
 Working directory              : /var/folders/2v/xbgp75_9785319ghcgb4zr4r0000gp/T//molpro.QscRP3Yxmt/
 Global scratch directory       : /var/folders/2v/xbgp75_9785319ghcgb4zr4r0000gp/T//molpro.QscRP3Yxmt/
 Wavefunction directory         : /Users/sacpjk/wfu/
 Main file repository           : /var/folders/2v/xbgp75_9785319ghcgb4zr4r0000gp/T//molpro.QscRP3Yxmt/

 id        : peterk

 Nodes                        nprocs
 Cardiff-University-G34YLXT77Y    1
 GA implementation: MPI file
 GA implementation (serial work in mppx): MPI file

 Using customized tuning parameters: mindgm=1; mindgv=20; mindgc=4; mindgr=1; noblas=0; minvec=7
 default implementation of scratch files=df  


 Variables initialized (1032), CPU time= 0.00 sec
 
 symmetry,nosym
 
 
 geometry={
            8
     S         -1.45620599      1.45620599     -0.36909390
     O         -1.87655153      0.00000000      0.36909390
     S         -1.45620599     -1.45620599     -0.36909390
     O          0.00000000     -1.87655153      0.36909390
     S          1.45620599     -1.45620599     -0.36909390
     O          1.87655153      0.00000000      0.36909390
     S          1.45620599      1.45620599     -0.36909390
     O          0.00000000      1.87655153      0.36909390
 }
 basis=cc-pVTZ
 
 
 
 hf
 
 
 
 {put,xml;noorbitals,nobasis}
 Commands initialized (841), CPU time= 0.01 sec, 704 directives.
 Default parameters read. Elapsed time= 0.24 sec

 Checking input...
 Passed
1


                                         ***  PROGRAM SYSTEM MOLPRO  ***
                                       Copyright, TTI GmbH Stuttgart, 2015
                                    Version 2023.1 linked Tue Jun  6 09:54:11 2023


 **********************************************************************************************************************************
 LABEL *                                                                                                                                                                 
  64 bit serial version                                                                  DATE: 12-Jun-23          TIME: 23:32:16  
 **********************************************************************************************************************************

 SHA1:             8ebb0dd001088a5c915591db1a321413035db0b1
 **********************************************************************************************************************************

 Memory per process:       393 MW
 Total memory per node:    524 MW
 Total GA space:           131 MW

 GA preallocation disabled
 GA check enabled

 Variable memory set to 393.2 MW

 ZSYMEL=NOSYM


 Geometry recognized as XYZ

 SETTING BASIS          =    CC-PVTZ


 Recomputing integrals since basis changed


 Using spherical harmonics

 Library entry S      S cc-pVTZ              selected for orbital group  1
 Library entry S      P cc-pVTZ              selected for orbital group  1
 Library entry S      D cc-pVTZ              selected for orbital group  1
 Library entry S      F cc-pVTZ              selected for orbital group  1
 Library entry O      S cc-pVTZ              selected for orbital group  2
 Library entry O      P cc-pVTZ              selected for orbital group  2
 Library entry O      D cc-pVTZ              selected for orbital group  2
 Library entry O      F cc-pVTZ              selected for orbital group  2


 PROGRAM * SEWARD (Integral evaluation for generally contracted gaussian basis sets)     Author: Roland Lindh, 1990

 Geometry written to block  1 of record 700


 Point group  C1  



 ATOMIC COORDINATES

 NR  ATOM    CHARGE       X              Y              Z

   1  S      16.00   -2.751830502    2.751830502   -0.697486385
   2  O       8.00   -3.546168450    0.000000000    0.697486385
   3  S      16.00   -2.751830502   -2.751830502   -0.697486385
   4  O       8.00    0.000000000   -3.546168450    0.697486385
   5  S      16.00    2.751830502   -2.751830502   -0.697486385
   6  O       8.00    3.546168450    0.000000000    0.697486385
   7  S      16.00    2.751830502    2.751830502   -0.697486385
   8  O       8.00    0.000000000    3.546168450    0.697486385

 Bond lengths in Bohr (Angstrom)

 1-2  3.185826882  1-3  5.503661004  1-7  5.503661004  1-8  3.185826882  2-3  3.185826882
     ( 1.685866984)     ( 2.912411980)     ( 2.912411980)     ( 1.685866984)     ( 1.685866984)

 3-4  3.185826882  3-5  5.503661004  4-5  3.185826882  5-6  3.185826882  5-7  5.503661004
     ( 1.685866984)     ( 2.912411980)     ( 1.685866984)     ( 1.685866984)     ( 2.912411980)

 6-7  3.185826882  7-8  3.185826882
     ( 1.685866984)     ( 1.685866984)

 Bond angles

  1-2-3  119.48573081   1-3-2   30.25713460   1-3-4  104.43816075   1-3-5   90.00000000

  1-7-5   90.00000000   1-7-6  104.43816075   1-7-8   30.25713460   1-8-7  119.48573081

  2-1-3   30.25713460   2-1-7  104.43816075   2-1-8  103.82804422   2-3-4  103.82804422

  2-3-5  104.43816075   3-1-7   90.00000000   3-1-8  104.43816075   3-4-5  119.48573081

  3-5-4   30.25713460   3-5-6  104.43816075   3-5-7   90.00000000   4-3-5   30.25713460

  4-5-6  103.82804422   4-5-7  104.43816075   5-6-7  119.48573081   5-7-6   30.25713460

  5-7-8  104.43816075   6-5-7   30.25713460   6-7-8  103.82804422   7-1-8   30.25713460

 NUCLEAR CHARGE:                   96
 NUMBER OF PRIMITIVE AOS:         444
 NUMBER OF SYMMETRY AOS:          404
 NUMBER OF CONTRACTIONS:          256   (  256A   )
 NUMBER OF INNER CORE ORBITALS:     4   (    4A   )
 NUMBER OF OUTER CORE ORBITALS:    20   (   20A   )
 NUMBER OF VALENCE ORBITALS:       32   (   32A   )


 NUCLEAR REPULSION ENERGY  788.36996931


 Eigenvalues of metric

         1 0.227E-02 0.294E-02 0.294E-02 0.315E-02 0.330E-02 0.386E-02 0.386E-02 0.608E-02


 Contracted 2-electron integrals neglected if value below      1.0D-11
 AO integral compression algorithm  1   Integral accuracy      1.0D-11

     1523.581 MB (compressed) written to integral file ( 32.0%)


 NUMBER OF SORTED TWO-ELECTRON INTEGRALS:  541089856.     BUFFER LENGTH:  32768
 NUMBER OF SEGMENTS:  34  SEGMENT LENGTH:   15999762      RECORD LENGTH: 262144

 Memory used in sort:      16.29 MW

 SORT1 READ   595013938. AND WROTE   408573221. INTEGRALS IN   2354 RECORDS. CPU TIME:     4.52 SEC, REAL TIME:     6.17 SEC
 SORT2 READ   408573221. AND WROTE   541089856. INTEGRALS IN   5812 RECORDS. CPU TIME:     3.68 SEC, REAL TIME:     8.03 SEC

 FILE SIZES:   FILE 1:  1556.2 MBYTE,  FILE 4:  4936.8 MBYTE,   TOTAL:   6492.9 MBYTE

 OPERATOR DM      FOR CENTER  0  COORDINATES:    0.000000    0.000000    0.000000


 **********************************************************************************************************************************
 DATASETS  * FILE   NREC   LENGTH (MB)   RECORD NAMES
              1      19     1298.48       500      610      700      900      950      970     1000      129      960     1100   
                                          VAR    BASINP    GEOM    SYMINP    ZMAT    AOBASIS   BASIS     P2S    ABASIS      S 
                                         1400     1410     1200     1210     1080     1600     1650     1300     1700   
                                           T        V       H0       H01     AOSYM     SMH    MOLCAS    ERIS     OPER   

 PROGRAMS   *        TOTAL       INT
 CPU TIMES  *        23.84     23.75
 REAL TIME  *        33.25 SEC
 DISK USED  *         6.05 GB
 **********************************************************************************************************************************


 Program * Restricted Hartree-Fock

 Orbital guess generated from atomic densities. Full valence occupancy:   56

 Initial occupancy:  48

 NELEC=   96   SYM=1   MS2= 0   THRE=1.0D-08   THRD=3.2D-06   THRG=3.2D-06  HFMA2=F  DIIS_START=2   DIIS_MAX=10   DIIS_INCORE=F

 Level shifts:    0.00 (CLOSED)    0.00 (OPEN)    0.30 (GAP_MIN)

 ITER           ETOT              DE          GRAD        DDIFF     DIIS  NEXP   TIME(IT)  TIME(TOT)  DIAG
   1    -1889.41162293   -1889.41162293     0.00D+00     0.72D-01     0     0       2.59      5.09    start
   2    -1889.52676731      -0.11514438     0.35D-02     0.50D-02     1     0       2.60      7.69    diag
   3    -1889.54099920      -0.01423189     0.12D-02     0.13D-02     2     0       2.56     10.25    diag
   4    -1889.54296264      -0.00196344     0.39D-03     0.63D-03     3     0       2.61     12.86    diag
   5    -1889.54321142      -0.00024878     0.14D-03     0.20D-03     4     0       2.62     15.48    diag
   6    -1889.54324363      -0.00003221     0.46D-04     0.75D-04     5     0       2.62     18.10    diag
   7    -1889.54324764      -0.00000400     0.99D-05     0.34D-04     6     0       2.65     20.75    diag
   8    -1889.54324809      -0.00000045     0.35D-05     0.12D-04     7     0       2.66     23.41    fixocc
   9    -1889.54324817      -0.00000009     0.13D-05     0.59D-05     8     0       2.66     26.07    diag
  10    -1889.54324818      -0.00000001     0.35D-06     0.16D-05     9     0       2.67     28.74    diag/orth
  11    -1889.54324818      -0.00000000     0.92D-07     0.16D-06     0     0       2.68     31.42    diag

 Final occupancy:  48

 !RHF STATE 1.1 Energy              -1889.543248180976
  RHF One-electron energy           -4182.612140193753
  RHF Two-electron energy            1504.698922704358
  RHF Kinetic energy                 1888.388063218595
  RHF Nuclear energy                  788.369969308418
  RHF Virial quotient                  -1.000611730706

 !RHF STATE 1.1 Dipole moment          -0.00000000    -0.00000000    -1.15307691
 Dipole moment /Debye                  -0.00000000    -0.00000000    -2.93082917

 Orbital energies:

           1.1          2.1          3.1          4.1          5.1          6.1          7.1          8.1          9.1         10.1
    -92.080903   -92.080903   -92.080903   -92.080903   -20.654332   -20.654322   -20.654322   -20.654310    -9.070736    -9.070726

          11.1         12.1         13.1         14.1         15.1         16.1         17.1         18.1         19.1         20.1
     -9.070726    -9.070718    -6.751263    -6.751260    -6.751260    -6.751256    -6.749875    -6.749875    -6.749875    -6.749875

          21.1         22.1         23.1         24.1         25.1         26.1         27.1         28.1         29.1         30.1
     -6.747844    -6.747842    -6.747842    -6.747841    -1.457785    -1.420444    -1.420444    -1.373675    -1.041885    -0.946108

          31.1         32.1         33.1         34.1         35.1         36.1         37.1         38.1         39.1         40.1
     -0.946108    -0.841529    -0.716589    -0.697052    -0.697052    -0.683334    -0.628371    -0.623827    -0.623827    -0.580919

          41.1         42.1         43.1         44.1         45.1         46.1         47.1         48.1         49.1         50.1
     -0.563979    -0.545130    -0.512820    -0.512820    -0.400418    -0.386775    -0.383269    -0.383269     0.082659     0.082659


 HOMO     48.1    -0.383269 =     -10.4293eV
 LUMO     49.1     0.082659 =       2.2493eV
 LUMO-HOMO         0.465927 =      12.6785eV

 Orbitals saved in record  2100.2


 **********************************************************************************************************************************
 DATASETS  * FILE   NREC   LENGTH (MB)   RECORD NAMES
              1      19     1298.48       500      610      700      900      950      970     1000      129      960     1100   
                                          VAR    BASINP    GEOM    SYMINP    ZMAT    AOBASIS   BASIS     P2S    ABASIS      S 
                                         1400     1410     1200     1210     1080     1600     1650     1300     1700   
                                           T        V       H0       H01     AOSYM     SMH    MOLCAS    ERIS     OPER   

              2       4        1.54       700     1000      520     2100   
                                         GEOM     BASIS   MCVARS     RHF  

 PROGRAMS   *        TOTAL    HF-SCF       INT
 CPU TIMES  *        55.27     31.43     23.75
 REAL TIME  *        70.14 SEC
 DISK USED  *         6.05 GB
 **********************************************************************************************************************************

 Dump information in style XML to xml output                                                                      

 Orbitals will not be exported.

 **********************************************************************************************************************************

 HF/cc-pVTZ energy=  -1889.543248180976

          HF-SCF
  -1889.54324818
 **********************************************************************************************************************************
 Molpro calculation terminated
