
 Working directory              : /var/folders/2v/xbgp75_9785319ghcgb4zr4r0000gp/T//molpro.4eEcGbMlhQ/
 Global scratch directory       : /var/folders/2v/xbgp75_9785319ghcgb4zr4r0000gp/T//molpro.4eEcGbMlhQ/
 Wavefunction directory         : /Users/sacpjk/wfu/
 Main file repository           : /var/folders/2v/xbgp75_9785319ghcgb4zr4r0000gp/T//molpro.4eEcGbMlhQ/

 id        : peterk

 Nodes                        nprocs
 Cardiff-University-G34YLXT77Y    1
 GA implementation: MPI file
 GA implementation (serial work in mppx): MPI file

 Using customized tuning parameters: mindgm=1; mindgv=20; mindgc=4; mindgr=1; noblas=0; minvec=7
 default implementation of scratch files=df  


 Variables initialized (1032), CPU time= 0.01 sec
 
 symmetry,nosym
 
 
 geometry={
 7
  n         -0.528120089816   -0.749777750248    0.024451711853
  h         -0.232755658770   -1.302415725426   -0.770339151211
  h         -0.218039595097   -1.260498840968    0.841311205138
  c          0.131215186939    0.558586214900   -0.015789925974
  h         -0.179327235014    1.140311174793    0.848725493808
  h          1.222524476979    0.519291242838   -0.024745595254
  h         -0.195497085116    1.094503683952   -0.903613738254
 }
 basis=aug-cc-pVTZ
 
 
 
 hf; mp4; counterpoise
 
 
 
 {put,xml;noorbitals,nobasis}
 Commands initialized (841), CPU time= 0.00 sec, 704 directives.
 Default parameters read. Elapsed time= 0.07 sec

 Checking input...
 Passed
1


                                         ***  PROGRAM SYSTEM MOLPRO  ***
                                       Copyright, TTI GmbH Stuttgart, 2015
                                    Version 2023.1 linked Tue Jun  6 09:54:11 2023


 **********************************************************************************************************************************
 LABEL *                                                                                                                                                                 
  64 bit serial version                                                                  DATE: 07-Jun-23          TIME: 08:50:01  
 **********************************************************************************************************************************

 SHA1:             8ebb0dd001088a5c915591db1a321413035db0b1
 **********************************************************************************************************************************

 Memory per process:       805 MW
 Total memory per node:   1074 MW
 Total GA space:           268 MW

 GA preallocation disabled
 GA check enabled

 Variable memory set to 805.3 MW

 ZSYMEL=NOSYM


 Geometry recognized as XYZ

 SETTING BASIS          =    AUG-CC-PVTZ


 Recomputing integrals since basis changed


 Using spherical harmonics

 Library entry N      S aug-cc-pVTZ          selected for orbital group  1
 Library entry N      P aug-cc-pVTZ          selected for orbital group  1
 Library entry N      D aug-cc-pVTZ          selected for orbital group  1
 Library entry N      F aug-cc-pVTZ          selected for orbital group  1
 Library entry H      S aug-cc-pVTZ          selected for orbital group  2
 Library entry H      P aug-cc-pVTZ          selected for orbital group  2
 Library entry H      D aug-cc-pVTZ          selected for orbital group  2
 Library entry C      S aug-cc-pVTZ          selected for orbital group  3
 Library entry C      P aug-cc-pVTZ          selected for orbital group  3
 Library entry C      D aug-cc-pVTZ          selected for orbital group  3
 Library entry C      F aug-cc-pVTZ          selected for orbital group  3


 PROGRAM * SEWARD (Integral evaluation for generally contracted gaussian basis sets)     Author: Roland Lindh, 1990

 Geometry written to block  1 of record 700


 Point group  C1  



 ATOMIC COORDINATES

 NR  ATOM    CHARGE       X              Y              Z

   1  N       7.00   -0.998002331   -1.416874602    0.046207039
   2  H       1.00   -0.439844449   -2.461209021   -1.455730019
   3  H       1.00   -0.412035119   -2.381997590    1.589847763
   4  C       6.00    0.247960767    1.055574963   -0.029838636
   5  H       1.00   -0.338879361    2.154875817    1.603858738
   6  H       1.00    2.310236442    0.981318228   -0.046762398
   7  H       1.00   -0.369435949    2.068312205   -1.707582488

 Bond lengths in Bohr (Angstrom)

 1-2  1.912587129  1-3  1.912497488  1-4  2.769695622  4-5  2.054704556  4-6  2.063681525
     ( 1.012097522)     ( 1.012050086)     ( 1.465659804)     ( 1.087302826)     ( 1.092053234)

 4-7  2.054662955
     ( 1.087280812)

 Bond angles

  1-4-5  109.10407841   1-4-6  114.68652182   1-4-7  109.10154196   2-1-3  105.59704103

  2-1-4  109.54744641   3-1-4  109.56111075   5-4-6  108.13067151   5-4-7  107.44041838

  6-4-7  108.13881680

 NUCLEAR CHARGE:                   18
 NUMBER OF PRIMITIVE AOS:         269
 NUMBER OF SYMMETRY AOS:          241
 NUMBER OF CONTRACTIONS:          207   (  207A   )
 NUMBER OF INNER CORE ORBITALS:     0   (    0A   )
 NUMBER OF OUTER CORE ORBITALS:     2   (    2A   )
 NUMBER OF VALENCE ORBITALS:       13   (   13A   )


 NUCLEAR REPULSION ENERGY   42.06267590

 Eigenvalues of metric

         1 0.390E-04 0.622E-04 0.643E-04 0.137E-03 0.158E-03 0.249E-03 0.393E-03 0.655E-03


 Contracted 2-electron integrals neglected if value below      1.0D-12
 AO integral compression algorithm  1   Integral accuracy      1.0D-12

     1329.332 MB (compressed) written to integral file ( 62.1%)


 NUMBER OF SORTED TWO-ELECTRON INTEGRALS:  231738156.     BUFFER LENGTH:  32768
 NUMBER OF SEGMENTS:  15  SEGMENT LENGTH:   15999503      RECORD LENGTH: 524288

 Memory used in sort:      16.56 MW

 SORT1 READ   267401021. AND WROTE   230423955. INTEGRALS IN    665 RECORDS. CPU TIME:     1.91 SEC, REAL TIME:     3.19 SEC
 SORT2 READ   230423955. AND WROTE   231738156. INTEGRALS IN   5071 RECORDS. CPU TIME:     1.52 SEC, REAL TIME:     2.32 SEC

 FILE SIZES:   FILE 1:  1361.0 MBYTE,  FILE 4:  2789.3 MBYTE,   TOTAL:   4150.3 MBYTE

 OPERATOR DM      FOR CENTER  0  COORDINATES:    0.000000    0.000000    0.000000


 **********************************************************************************************************************************
 DATASETS  * FILE   NREC   LENGTH (MB)   RECORD NAMES
              1      19     1155.46       500      610      700      900      950      970     1000      129      960     1100   
                                          VAR    BASINP    GEOM    SYMINP    ZMAT    AOBASIS   BASIS     P2S    ABASIS      S 
                                         1400     1410     1200     1210     1080     1600     1650     1300     1700   
                                           T        V       H0       H01     AOSYM     SMH    MOLCAS    ERIS     OPER   

 PROGRAMS   *        TOTAL       INT
 CPU TIMES  *         8.46      8.37
 REAL TIME  *        12.83 SEC
 DISK USED  *         3.87 GB
 **********************************************************************************************************************************


 Program * Restricted Hartree-Fock

 Orbital guess generated from atomic densities. Full valence occupancy:   15

 Initial occupancy:   9

 NELEC=   18   SYM=1   MS2= 0   THRE=1.0D-08   THRD=3.2D-06   THRG=3.2D-06  HFMA2=F  DIIS_START=2   DIIS_MAX=10   DIIS_INCORE=F

 Level shifts:    0.00 (CLOSED)    0.00 (OPEN)    0.30 (GAP_MIN)

 ITER           ETOT              DE          GRAD        DDIFF     DIIS  NEXP   TIME(IT)  TIME(TOT)  DIAG
   1      -95.22548518     -95.22548518     0.00D+00     0.41D-01     0     0       1.29      2.46    start
   2      -95.25114982      -0.02566465     0.37D-02     0.43D-02     1     0       1.30      3.76    diag
   3      -95.25492430      -0.00377447     0.16D-02     0.12D-02     2     0       1.31      5.07    diag
   4      -95.25544558      -0.00052129     0.46D-03     0.42D-03     3     0       1.28      6.35    diag
   5      -95.25547203      -0.00002645     0.90D-04     0.80D-04     4     0       1.31      7.66    diag
   6      -95.25547376      -0.00000173     0.22D-04     0.25D-04     5     0       1.30      8.96    diag
   7      -95.25547388      -0.00000013     0.60D-05     0.66D-05     6     0       1.34     10.30    diag
   8      -95.25547390      -0.00000002     0.16D-05     0.28D-05     7     0       1.34     11.64    fixocc
   9      -95.25547390      -0.00000000     0.42D-06     0.80D-06     8     0       1.32     12.96    diag
  10      -95.25547390      -0.00000000     0.89D-07     0.92D-07     0     0       1.36     14.32    diag/orth

 Final occupancy:   9

 !RHF STATE 1.1 Energy                -95.255473899084
  RHF One-electron energy            -211.477341566322
  RHF Two-electron energy              74.159191763052
  RHF Kinetic energy                   95.125889059805
  RHF Nuclear energy                   42.062675904186
  RHF Virial quotient                  -1.001362245763

 !RHF STATE 1.1 Dipole moment           0.56463926    -0.08065547    -0.00309828
 Dipole moment /Debye                   1.43516985    -0.20500576    -0.00787505

 Orbital energies:

           1.1          2.1          3.1          4.1          5.1          6.1          7.1          8.1          9.1         10.1
    -15.540020   -11.240267    -1.170369    -0.896638    -0.661472    -0.604132    -0.555648    -0.517373    -0.393559     0.029450

          11.1
      0.042826


 HOMO      9.1    -0.393559 =     -10.7093eV
 LUMO     10.1     0.029450 =       0.8014eV
 LUMO-HOMO         0.423009 =      11.5107eV

 Orbitals saved in record  2100.2


 **********************************************************************************************************************************
 DATASETS  * FILE   NREC   LENGTH (MB)   RECORD NAMES
              1      19     1155.46       500      610      700      900      950      970     1000      129      960     1100   
                                          VAR    BASINP    GEOM    SYMINP    ZMAT    AOBASIS   BASIS     P2S    ABASIS      S 
                                         1400     1410     1200     1210     1080     1600     1650     1300     1700   
                                           T        V       H0       H01     AOSYM     SMH    MOLCAS    ERIS     OPER   

              2       4        1.16       700     1000      520     2100   
                                         GEOM     BASIS   MCVARS     RHF  

 PROGRAMS   *        TOTAL    HF-SCF       INT
 CPU TIMES  *        22.78     14.32      8.37
 REAL TIME  *        31.81 SEC
 DISK USED  *         3.87 GB
 **********************************************************************************************************************************


 PROGRAM * MP4 (Closed-shell)     Authors: C. Hampel, H.-J. Werner, 1991, M. Deegan, P.J. Knowles, 1992


 Convergence thresholds:  THRVAR = 1.00D-08  THRDEN = 1.00D-06

 MP4(T)     terms to be evaluated (factor= 0.000)


 Number of core orbitals:           2 (   2 )
 Number of closed-shell orbitals:   7 (   7 )
 Number of external orbitals:     198 ( 198 )

 Molecular orbitals read from record     2100.2  Type=RHF/CANONICAL  

 Number of N-1 electron functions:               7
 Number of N-2 electron functions:              28
 Number of singly external CSFs:              1386
 Number of doubly external CSFs:            961191
 Total number of CSFs:                      962578

 Length of J-op  integral file:               0.00 MB
 Length of K-op  integral file:               3.00 MB

 Memory could be reduced to 76.69 Mwords without degradation in triples

 Integral transformation finished. Total CPU:   5.11 sec, npass=  1  Memory used:  38.60 MW

 Reference energy:                    -95.25547390

                        CORR.ENERGY   TOTAL ENERGY   ENERGY CHANGE
 MP2:                   -0.41167953   -95.66715343    -0.41167953

 SCS-MP2 correlation energy:           -0.41612869   (PS=  1.200000  PT=  0.333333)
 SCS-MP2 total energy:                -95.67160259

 MP3(D):                -0.43291784   -95.68839174    -0.02123831
 MP4(DQ):               -0.43275437   -95.68822827     0.00016347
 MP4(SDQ):              -0.43518773   -95.69066163    -0.00243336

 Norm of t1 vector:      0.03695862      S-energy:    -0.00243336      T1 diagnostic:  0.00698452


 Total CPU time for triples:     38.71 sec


 RESULTS
 =======

  Reference energy                    -95.255473899084
  MP4(SDQ) singlet pair energy         -0.304865023757
  MP4(SDQ) triplet pair energy         -0.127889350665
  MP4(SDQ) correlation energy          -0.435187730747

  Triples contribution                 -0.015772792645
  Total correlation energy             -0.450960523392

  MP4(SDQ) total energy               -95.690661629831
 !MP4(SDTQ) total energy              -95.706434422476

 Timing summary (sec):

 STEP                 CPU(USER)    SYS     CPU(TOT)    WALL
 Transformation          5.17      0.43      5.60      6.75
 CCSD iterations        26.90      0.23     27.13      5.42
 Triples                38.71      1.23     39.94     51.01

 Program statistics:

 Available memory in ccsd:               805306163
 Min. memory needed in ccsd:               3040312
 Max. memory used in ccsd:                 3839467
 Max. memory used in cckext:               2734686 ( 1 integral passes)



 **********************************************************************************************************************************
 DATASETS  * FILE   NREC   LENGTH (MB)   RECORD NAMES
              1      20     1378.19       500      610      700      900      950      970     1000      129      960     1100   
                                          VAR    BASINP    GEOM    SYMINP    ZMAT    AOBASIS   BASIS     P2S    ABASIS      S 
                                         1400     1410     1200     1210     1080     1600     1650     1300     1700     1380   
                                           T        V       H0       H01     AOSYM     SMH    MOLCAS    ERIS     OPER     JKOP   

              2       4        1.16       700     1000      520     2100   
                                         GEOM     BASIS   MCVARS     RHF  

 PROGRAMS   *        TOTAL       MP4    HF-SCF       INT
 CPU TIMES  *        70.68     47.90     14.32      8.37
 REAL TIME  *        95.04 SEC
 DISK USED  *         3.87 GB
 **********************************************************************************************************************************

 Counterpoise: absolute minimum monomer separation=    -1.000 Bragg radius scale factor=     1.400 Number of monomers= 1
 Counterpoise skipped because only a single monomer


 **********************************************************************************************************************************
 DATASETS  * FILE   NREC   LENGTH (MB)   RECORD NAMES
              1      20     1378.19       500      610      700      900      950      970     1000      129      960     1100   
                                          VAR    BASINP    GEOM    SYMINP    ZMAT    AOBASIS   BASIS     P2S    ABASIS      S 
                                         1400     1410     1200     1210     1080     1600     1650     1300     1700     1380   
                                           T        V       H0       H01     AOSYM     SMH    MOLCAS    ERIS     OPER     JKOP   

              2       4        1.16       700     1000      520     2100   
                                         GEOM     BASIS   MCVARS     RHF  

 PROGRAMS   *        TOTALCOUNTERPOI       MP4    HF-SCF       INT
 CPU TIMES  *        70.68      0.00     47.90     14.32      8.37
 REAL TIME  *        95.05 SEC
 DISK USED  *         3.87 GB
 **********************************************************************************************************************************

 Dump information in style XML to xml output                                                                      

 Orbitals will not be exported.

 **********************************************************************************************************************************

 MP4/aug-cc-pVTZ energy=    -95.706434422476

             MP4          HF-SCF
    -95.70643442    -95.25547390
 **********************************************************************************************************************************
 Molpro calculation terminated
