
 Working directory              : /var/folders/2v/xbgp75_9785319ghcgb4zr4r0000gp/T//molpro.d3QB2ONECI/
 Global scratch directory       : /var/folders/2v/xbgp75_9785319ghcgb4zr4r0000gp/T//molpro.d3QB2ONECI/
 Wavefunction directory         : /Users/sacpjk/wfu/
 Main file repository           : /var/folders/2v/xbgp75_9785319ghcgb4zr4r0000gp/T//molpro.d3QB2ONECI/

 id        : peterk

 Nodes                        nprocs
 Cardiff-University-G34YLXT77Y    1
 GA implementation: MPI file
 GA implementation (serial work in mppx): MPI file

 Using customized tuning parameters: mindgm=1; mindgv=20; mindgc=4; mindgr=1; noblas=0; minvec=7
 default implementation of scratch files=df  


 Variables initialized (1032), CPU time= 0.00 sec
 
 symmetry,nosym
 
 
 geometry={
            5
     N          0.00000000      0.00000000      1.88832511
     N          0.00000000      0.00000000      0.75165554
     C          0.00000000      0.00000000     -0.54332281
     H          0.95203700      0.00000000     -1.04832892
     H         -0.95203700      0.00000000     -1.04832892
 }
 basis=cc-pVDZ
 
 
 
 hf; ccsd(t)
 
 
 
 {put,xml;noorbitals,nobasis}
 Commands initialized (841), CPU time= 0.01 sec, 704 directives.
 Default parameters read. Elapsed time= 1.27 sec

 Checking input...
 Passed
1


                                         ***  PROGRAM SYSTEM MOLPRO  ***
                                       Copyright, TTI GmbH Stuttgart, 2015
                                    Version 2023.1 linked Tue Jun  6 09:54:11 2023


 **********************************************************************************************************************************
 LABEL *                                                                                                                                                                 
  64 bit serial version                                                                  DATE: 11-Jun-23          TIME: 23:33:41  
 **********************************************************************************************************************************

 SHA1:             8ebb0dd001088a5c915591db1a321413035db0b1
 **********************************************************************************************************************************

 Memory per process:       393 MW
 Total memory per node:    524 MW
 Total GA space:           131 MW

 GA preallocation disabled
 GA check enabled

 Variable memory set to 393.2 MW

 ZSYMEL=NOSYM


 Geometry recognized as XYZ

 SETTING BASIS          =    CC-PVDZ


 Recomputing integrals since basis changed


 Using spherical harmonics

 Library entry N      S cc-pVDZ              selected for orbital group  1
 Library entry N      P cc-pVDZ              selected for orbital group  1
 Library entry N      D cc-pVDZ              selected for orbital group  1
 Library entry C      S cc-pVDZ              selected for orbital group  2
 Library entry C      P cc-pVDZ              selected for orbital group  2
 Library entry C      D cc-pVDZ              selected for orbital group  2
 Library entry H      S cc-pVDZ              selected for orbital group  3
 Library entry H      P cc-pVDZ              selected for orbital group  3


 PROGRAM * SEWARD (Integral evaluation for generally contracted gaussian basis sets)     Author: Roland Lindh, 1990

 Geometry written to block  1 of record 700


 Point group  C1  



 ATOMIC COORDINATES

 NR  ATOM    CHARGE       X              Y              Z

   1  N       7.00    0.000000000    0.000000000    3.568417292
   2  N       7.00    0.000000000    0.000000000    1.420423111
   3  C       6.00    0.000000000    0.000000000   -1.026731308
   4  H       1.00    1.799089191    0.000000000   -1.981054547
   5  H       1.00   -1.799089191    0.000000000   -1.981054547

 Bond lengths in Bohr (Angstrom)

 1-2  2.147994181  2-3  2.447154419  3-4  2.036530078  3-5  2.036530078
     ( 1.136669570)     ( 1.294978350)     ( 1.077685307)     ( 1.077685307)

 Bond angles

  1-2-3  180.00000000   2-3-4  117.94362484   2-3-5  117.94362484   4-3-5  124.11275032

 NUCLEAR CHARGE:                   22
 NUMBER OF PRIMITIVE AOS:          95
 NUMBER OF SYMMETRY AOS:           92
 NUMBER OF CONTRACTIONS:           52   (   52A   )
 NUMBER OF INNER CORE ORBITALS:     0   (    0A   )
 NUMBER OF OUTER CORE ORBITALS:     3   (    3A   )
 NUMBER OF VALENCE ORBITALS:       14   (   14A   )


 NUCLEAR REPULSION ENERGY   61.32323683

 EXTRA SYMMETRY OF AOS IN SYMMETRY 1:   1 1 1 1 2 1 1 2 1 1   2 1 1 2 1 1 1 1 2 1   1 2 1 1 2 1 1 2 1 1   1 1 2 1 1 2 1 1 2 1
                                        1 2 1 1 1 2 1 1 1 1   2 1

 Eigenvalues of metric

         1 0.312E-02 0.713E-02 0.177E-01 0.264E-01 0.368E-01 0.377E-01 0.508E-01 0.570E-01


 Contracted 2-electron integrals neglected if value below      1.0D-11
 AO integral compression algorithm  1   Integral accuracy      1.0D-11

     2.621 MB (compressed) written to integral file ( 25.8%)


 NUMBER OF SORTED TWO-ELECTRON INTEGRALS:     950131.     BUFFER LENGTH:  32768
 NUMBER OF SEGMENTS:   1  SEGMENT LENGTH:     950131      RECORD LENGTH: 524288

 Memory used in sort:       1.51 MW

 SORT1 READ     1168367. AND WROTE      382995. INTEGRALS IN      2 RECORDS. CPU TIME:     0.01 SEC, REAL TIME:     0.01 SEC
 SORT2 READ      382995. AND WROTE      950131. INTEGRALS IN     10 RECORDS. CPU TIME:     0.02 SEC, REAL TIME:     0.03 SEC

 FILE SIZES:   FILE 1:    32.8 MBYTE,  FILE 4:     8.5 MBYTE,   TOTAL:     41.2 MBYTE

 OPERATOR DM      FOR CENTER  0  COORDINATES:    0.000000    0.000000    0.000000


 **********************************************************************************************************************************
 DATASETS  * FILE   NREC   LENGTH (MB)   RECORD NAMES
              1      19       30.60       500      610      700      900      950      970     1000      129      960     1100   
                                          VAR    BASINP    GEOM    SYMINP    ZMAT    AOBASIS   BASIS     P2S    ABASIS      S 
                                         1400     1410     1200     1210     1080     1600     1650     1300     1700   
                                           T        V       H0       H01     AOSYM     SMH    MOLCAS    ERIS     OPER   

 PROGRAMS   *        TOTAL       INT
 CPU TIMES  *         0.25      0.16
 REAL TIME  *         3.40 SEC
 DISK USED  *        39.71 MB
 **********************************************************************************************************************************


 Program * Restricted Hartree-Fock

 Orbital guess generated from atomic densities. Full valence occupancy:   17

 Initial occupancy:  11

 NELEC=   22   SYM=1   MS2= 0   THRE=1.0D-08   THRD=3.2D-06   THRG=3.2D-06  HFMA2=F  DIIS_START=2   DIIS_MAX=10   DIIS_INCORE=F

 Level shifts:    0.00 (CLOSED)    0.00 (OPEN)    0.30 (GAP_MIN)

 ITER           ETOT              DE          GRAD        DDIFF     DIIS  NEXP   TIME(IT)  TIME(TOT)  DIAG
   1     -147.80717719    -147.80717719     0.00D+00     0.16D+00     0     0       0.00      0.01    start
   2     -147.84060378      -0.03342659     0.10D-01     0.20D-01     1     0       0.01      0.02    diag
   3     -147.85560013      -0.01499635     0.64D-02     0.90D-02     2     0       0.00      0.02    diag
   4     -147.85702499      -0.00142486     0.13D-02     0.27D-02     3     0       0.01      0.03    diag
   5     -147.85754526      -0.00052027     0.73D-03     0.15D-02     4     0       0.00      0.03    diag
   6     -147.85777379      -0.00022853     0.33D-03     0.11D-02     5     0       0.01      0.04    diag
   7     -147.85783607      -0.00006229     0.15D-03     0.76D-03     6     0       0.00      0.04    diag
   8     -147.85783945      -0.00000337     0.40D-04     0.20D-03     7     0       0.01      0.05    fixocc
   9     -147.85783952      -0.00000008     0.89D-05     0.25D-04     8     0       0.00      0.05    diag
  10     -147.85783953      -0.00000001     0.29D-05     0.75D-05     9     0       0.01      0.06    diag/orth
  11     -147.85783953      -0.00000000     0.63D-06     0.23D-05     9     0       0.00      0.06    diag
  12     -147.85783953      -0.00000000     0.10D-06     0.22D-06     0     0       0.01      0.07    diag

 Final occupancy:  11

 !RHF STATE 1.1 Energy               -147.857839531676
  RHF One-electron energy            -320.659184693114
  RHF Two-electron energy             111.478108335710
  RHF Kinetic energy                  147.578423072402
  RHF Nuclear energy                   61.323236825727
  RHF Virial quotient                  -1.001893342221

 !RHF STATE 1.1 Dipole moment           0.00000000    -0.00000000    -0.58035958
 Dipole moment /Debye                   0.00000000    -0.00000000    -1.47512692

 Orbital energies:

           1.1          2.1          3.1          4.1          5.1          6.1          7.1          8.1          9.1         10.1
    -15.738024   -15.657487   -11.269695    -1.457500    -1.119936    -0.754853    -0.690544    -0.655459    -0.649429    -0.533944

          11.1         12.1         13.1
     -0.324613     0.135608     0.182884


 HOMO     11.1    -0.324613 =      -8.8332eV
 LUMO     12.1     0.135608 =       3.6901eV
 LUMO-HOMO         0.460221 =      12.5233eV

 Orbitals saved in record  2100.2


 **********************************************************************************************************************************
 DATASETS  * FILE   NREC   LENGTH (MB)   RECORD NAMES
              1      19       30.60       500      610      700      900      950      970     1000      129      960     1100   
                                          VAR    BASINP    GEOM    SYMINP    ZMAT    AOBASIS   BASIS     P2S    ABASIS      S 
                                         1400     1410     1200     1210     1080     1600     1650     1300     1700   
                                           T        V       H0       H01     AOSYM     SMH    MOLCAS    ERIS     OPER   

              2       4        0.49       700     1000      520     2100   
                                         GEOM     BASIS   MCVARS     RHF  

 PROGRAMS   *        TOTAL    HF-SCF       INT
 CPU TIMES  *         0.32      0.07      0.16
 REAL TIME  *         4.21 SEC
 DISK USED  *        39.71 MB
 **********************************************************************************************************************************


 PROGRAM * CCSD (Closed-shell coupled cluster)     Authors: C. Hampel, H.-J. Werner, 1991, M. Deegan, P.J. Knowles, 1992


 Convergence thresholds:  THRVAR = 1.00D-08  THRDEN = 1.00D-06

 CCSD(T)     terms to be evaluated (factor= 1.000)


 Number of core orbitals:           3 (   3 )
 Number of closed-shell orbitals:   8 (   8 )
 Number of external orbitals:      41 (  41 )

 Molecular orbitals read from record     2100.2  Type=RHF/CANONICAL  

 Number of N-1 electron functions:               8
 Number of N-2 electron functions:              36
 Number of singly external CSFs:               328
 Number of doubly external CSFs:             53956
 Total number of CSFs:                       54285

 Length of J-op  integral file:               0.00 MB
 Length of K-op  integral file:               0.25 MB
 Length of 3-ext integral record:             0.00 MB

 Memory could be reduced to 0.94 Mwords without degradation in triples

 Integral transformation finished. Total CPU:   0.02 sec, npass=  1  Memory used:   0.92 MW

 Reference energy:                   -147.85783953

 MP2 singlet pair energy:              -0.28074810
 MP2 triplet pair energy:              -0.18266248
 MP2 correlation energy:               -0.46341058
 MP2 total energy:                   -148.32125011

 SCS-MP2 correlation energy:           -0.45055437   (PS=  1.200000  PT=  0.333333)
 SCS-MP2 total energy:               -148.30839390

 ITER.      SQ.NORM     CORR.ENERGY   TOTAL ENERGY   ENERGY CHANGE        DEN1      VAR(S)    VAR(P)  DIIS     TIME  TIME/IT
   1      1.16558109    -0.47404093  -148.33188046    -0.01063035     0.00711839  0.47D-02  0.43D-02  1  1     0.50     0.32
   2      1.18164619    -0.47562921  -148.33346874    -0.00158828    -0.01466508  0.19D-03  0.66D-03  2  2     0.54     0.29
   3      1.19061476    -0.47610838  -148.33394791    -0.00047917    -0.00374958  0.12D-03  0.43D-04  3  3     0.58     0.30
   4      1.19471930    -0.47622484  -148.33406437    -0.00011646    -0.00109776  0.17D-04  0.91D-05  4  4     0.62     0.33
   5      1.19653980    -0.47622962  -148.33406915    -0.00000478    -0.00035071  0.27D-05  0.13D-05  5  5     0.66     0.33
   6      1.19706626    -0.47621347  -148.33405300     0.00001615    -0.00004827  0.47D-06  0.17D-06  6  6     0.71     0.32
   7      1.19720040    -0.47621395  -148.33405348    -0.00000048    -0.00000936  0.69D-07  0.37D-07  6  1     0.75     0.31
   8      1.19723487    -0.47621422  -148.33405375    -0.00000027     0.00000250  0.18D-07  0.48D-08  6  3     0.83     0.31
   9      1.19725553    -0.47621316  -148.33405269     0.00000106    -0.00000369  0.84D-09  0.85D-09  6  2     0.87     0.31
  10      1.19725706    -0.47621316  -148.33405269     0.00000000    -0.00000004  0.16D-09  0.13D-09  6  4     0.91     0.30
  11      1.19725697    -0.47621320  -148.33405274    -0.00000004     0.00000023  0.19D-10  0.17D-10  6  5     0.99     0.29

 Norm of t1 vector:      0.11464766      S-energy:     0.00000042      T1 diagnostic:  0.02026703
                                                                       D1 diagnostic:  0.05588646
                                                                       D2 diagnostic:  0.19265273 (external, symmetry=1)

 Doubles amplitudes (print threshold =  0.500E-01):

         I         J         SYM. A    SYM. B    A         B      T(IJ, AB)

         5         5         1         1         2         2     -0.05415121
         7         7         1         1         1         1     -0.06689414
         8         8         1         1         2         2     -0.11516999


 Total CPU time for triples:      0.18 sec


 RESULTS
 =======

  Reference energy                   -147.857839531676
  CCSD singlet pair energy             -0.319477103640
  CCSD triplet pair energy             -0.156736518792
  CCSD correlation energy              -0.476213203834

  Triples (T) contribution             -0.020446617291
  Total correlation energy             -0.496659821125

  CCSD total energy                  -148.334052735511
  CCSD[T] energy                     -148.355845910502
  CCSD-T energy                      -148.354105741571
 !CCSD(T) total energy               -148.354499352801

 Timing summary (sec):

 STEP                 CPU(USER)    SYS     CPU(TOT)    WALL
 Transformation          0.02      0.01      0.03      0.97
 CCSD iterations         0.98      0.05      1.03      4.69
 Triples                 0.18      0.01      0.19      0.21

 Program statistics:

 Available memory in ccsd:               393215733
 Min. memory needed in ccsd:                186609
 Max. memory used in ccsd:                  225821
 Max. memory used in cckext:                249418 (11 integral passes)



 **********************************************************************************************************************************
 DATASETS  * FILE   NREC   LENGTH (MB)   RECORD NAMES
              1      20       33.92       500      610      700      900      950      970     1000      129      960     1100   
                                          VAR    BASINP    GEOM    SYMINP    ZMAT    AOBASIS   BASIS     P2S    ABASIS      S 
                                         1400     1410     1200     1210     1080     1600     1650     1300     1700     1380   
                                           T        V       H0       H01     AOSYM     SMH    MOLCAS    ERIS     OPER     JKOP   

              2       4        0.49       700     1000      520     2100   
                                         GEOM     BASIS   MCVARS     RHF  

 PROGRAMS   *        TOTAL   CCSD(T)    HF-SCF       INT
 CPU TIMES  *         1.08      0.76      0.07      0.16
 REAL TIME  *        11.33 SEC
 DISK USED  *        44.34 MB
 **********************************************************************************************************************************

 Dump information in style XML to xml output                                                                      

 Orbitals will not be exported.

 **********************************************************************************************************************************

 CCSD(T)/cc-pVDZ energy=   -148.354499352801

         CCSD(T)          HF-SCF
   -148.35449935   -147.85783953
 **********************************************************************************************************************************
 Molpro calculation terminated
