
 Working directory              : /var/folders/2v/xbgp75_9785319ghcgb4zr4r0000gp/T//molpro.KgjLbkCCRt/
 Global scratch directory       : /var/folders/2v/xbgp75_9785319ghcgb4zr4r0000gp/T//molpro.KgjLbkCCRt/
 Wavefunction directory         : /Users/sacpjk/wfu/
 Main file repository           : /var/folders/2v/xbgp75_9785319ghcgb4zr4r0000gp/T//molpro.KgjLbkCCRt/

 id        : peterk

 Nodes                        nprocs
 Cardiff-University-G34YLXT77Y    1
 GA implementation: MPI file
 GA implementation (serial work in mppx): MPI file

 Using customized tuning parameters: mindgm=1; mindgv=20; mindgc=4; mindgr=1; noblas=0; minvec=7
 default implementation of scratch files=df  


 Variables initialized (1032), CPU time= 0.00 sec
 
 symmetry,nosym
 
 
 geometry={
            9
     C          0.64643893      0.66204762      0.00000000
     C          0.62059167     -0.72735291      0.00000000
     O         -1.43762017     -1.04803439      0.00000000
     N         -1.81431293      0.12667382      0.00000000
     N         -1.28271604      1.17289417      0.00000000
     H          0.87969100      1.19136240      0.91554310
     H          0.87969100      1.19136240     -0.91554310
     H          0.75411826     -1.28447655      0.91762992
     H          0.75411826     -1.28447655     -0.91762992
 }
 basis=cc-pVDZ
 
 
 
 hf; ccsd(t)
 
 
 
 {put,xml;noorbitals,nobasis}
 Commands initialized (841), CPU time= 0.01 sec, 704 directives.
 Default parameters read. Elapsed time= 1.40 sec

 Checking input...
 Passed
1


                                         ***  PROGRAM SYSTEM MOLPRO  ***
                                       Copyright, TTI GmbH Stuttgart, 2015
                                    Version 2023.1 linked Tue Jun  6 09:54:11 2023


 **********************************************************************************************************************************
 LABEL *                                                                                                                                                                 
  64 bit serial version                                                                  DATE: 11-Jun-23          TIME: 23:13:01  
 **********************************************************************************************************************************

 SHA1:             8ebb0dd001088a5c915591db1a321413035db0b1
 **********************************************************************************************************************************

 Memory per process:       393 MW
 Total memory per node:    524 MW
 Total GA space:           131 MW

 GA preallocation disabled
 GA check enabled

 Variable memory set to 393.2 MW

 ZSYMEL=NOSYM


 Geometry recognized as XYZ

 SETTING BASIS          =    CC-PVDZ


 Recomputing integrals since basis changed


 Using spherical harmonics

 Library entry C      S cc-pVDZ              selected for orbital group  1
 Library entry C      P cc-pVDZ              selected for orbital group  1
 Library entry C      D cc-pVDZ              selected for orbital group  1
 Library entry O      S cc-pVDZ              selected for orbital group  2
 Library entry O      P cc-pVDZ              selected for orbital group  2
 Library entry O      D cc-pVDZ              selected for orbital group  2
 Library entry N      S cc-pVDZ              selected for orbital group  3
 Library entry N      P cc-pVDZ              selected for orbital group  3
 Library entry N      D cc-pVDZ              selected for orbital group  3
 Library entry H      S cc-pVDZ              selected for orbital group  4
 Library entry H      P cc-pVDZ              selected for orbital group  4


 PROGRAM * SEWARD (Integral evaluation for generally contracted gaussian basis sets)     Author: Roland Lindh, 1990

 Geometry written to block  1 of record 700


 Point group  C1  



 ATOMIC COORDINATES

 NR  ATOM    CHARGE       X              Y              Z

   1  C       6.00    1.221592534    1.251088683    0.000000000
   2  C       6.00    1.172748292   -1.374497796    0.000000000
   3  O       8.00   -2.716708393   -1.980497966    0.000000000
   4  N       7.00   -3.428554542    0.239378827    0.000000000
   5  N       7.00   -2.423982011    2.216448754    0.000000000
   6  H       1.00    1.662375064    2.251348651    1.730125714
   7  H       1.00    1.662375064    2.251348651   -1.730125714
   8  H       1.00    1.425076977   -2.427308893    1.734069233
   9  H       1.00    1.425076977   -2.427308893   -1.734069233

 Bond lengths in Bohr (Angstrom)

 1-2  2.626040769  1-5  3.771224447  1-6  2.046495597  1-7  2.046495597  2-8  2.044279109
     ( 1.389640930)     ( 1.995646035)     ( 1.082958832)     ( 1.082958832)     ( 1.081785917)

 2-9  2.044279109  3-4  2.331218119  4-5  2.217649988
     ( 1.081785917)     ( 1.233627502)     ( 1.173529835)

 Bond angles

  1-2-8  120.83841687   1-2-9  120.83841687   1-5-4  102.10396580   2-1-5  103.76593409

  2-1-6  119.51746247   2-1-7  119.51746247   3-4-5  135.28489323   5-1-6   94.76637282

  5-1-7   94.76637282   6-1-7  115.43155810   8-2-9  116.04467695

 NUCLEAR CHARGE:                   38
 NUMBER OF PRIMITIVE AOS:         163
 NUMBER OF SYMMETRY AOS:          158
 NUMBER OF CONTRACTIONS:           90   (   90A   )
 NUMBER OF INNER CORE ORBITALS:     0   (    0A   )
 NUMBER OF OUTER CORE ORBITALS:     5   (    5A   )
 NUMBER OF VALENCE ORBITALS:       24   (   24A   )


 NUCLEAR REPULSION ENERGY  166.89563664


 Eigenvalues of metric

         1 0.295E-02 0.453E-02 0.827E-02 0.126E-01 0.162E-01 0.243E-01 0.281E-01 0.290E-01


 Contracted 2-electron integrals neglected if value below      1.0D-11
 AO integral compression algorithm  1   Integral accuracy      1.0D-11

     32.768 MB (compressed) written to integral file ( 43.1%)


 NUMBER OF SORTED TWO-ELECTRON INTEGRALS:    8386560.     BUFFER LENGTH:  32768
 NUMBER OF SEGMENTS:   1  SEGMENT LENGTH:    8386560      RECORD LENGTH: 524288

 Memory used in sort:       8.94 MW

 SORT1 READ     9500652. AND WROTE     6855820. INTEGRALS IN     20 RECORDS. CPU TIME:     0.06 SEC, REAL TIME:     0.08 SEC
 SORT2 READ     6855820. AND WROTE     8386560. INTEGRALS IN    125 RECORDS. CPU TIME:     0.09 SEC, REAL TIME:     0.11 SEC

 FILE SIZES:   FILE 1:    63.2 MBYTE,  FILE 4:    84.0 MBYTE,   TOTAL:    147.2 MBYTE

 OPERATOR DM      FOR CENTER  0  COORDINATES:    0.000000    0.000000    0.000000


 **********************************************************************************************************************************
 DATASETS  * FILE   NREC   LENGTH (MB)   RECORD NAMES
              1      19       56.67       500      610      700      900      950      970     1000      129      960     1100   
                                          VAR    BASINP    GEOM    SYMINP    ZMAT    AOBASIS   BASIS     P2S    ABASIS      S 
                                         1400     1410     1200     1210     1080     1600     1650     1300     1700   
                                           T        V       H0       H01     AOSYM     SMH    MOLCAS    ERIS     OPER   

 PROGRAMS   *        TOTAL       INT
 CPU TIMES  *         0.74      0.65
 REAL TIME  *         4.57 SEC
 DISK USED  *       140.81 MB
 **********************************************************************************************************************************


 Program * Restricted Hartree-Fock

 Orbital guess generated from atomic densities. Full valence occupancy:   29

 Initial occupancy:  19

 NELEC=   38   SYM=1   MS2= 0   THRE=1.0D-08   THRD=3.2D-06   THRG=3.2D-06  HFMA2=F  DIIS_START=2   DIIS_MAX=10   DIIS_INCORE=F

 Level shifts:    0.00 (CLOSED)    0.00 (OPEN)    0.30 (GAP_MIN)

 ITER           ETOT              DE          GRAD        DDIFF     DIIS  NEXP   TIME(IT)  TIME(TOT)  DIAG
   1     -261.54304000    -261.54304000     0.00D+00     0.12D+00     0     0       0.03      0.07    start
   2     -261.59696453      -0.05392453     0.90D-02     0.20D-01     1     0       0.03      0.10    diag
   3     -261.65382536      -0.05686083     0.72D-02     0.96D-02     2     0       0.04      0.14    diag
   4     -261.65599300      -0.00216764     0.88D-03     0.21D-02     3     0       0.03      0.17    diag
   5     -261.65641836      -0.00042536     0.40D-03     0.86D-03     4     0       0.04      0.21    diag
   6     -261.65657584      -0.00015748     0.21D-03     0.47D-03     5     0       0.04      0.25    diag
   7     -261.65667108      -0.00009524     0.14D-03     0.43D-03     6     0       0.03      0.28    diag
   8     -261.65670326      -0.00003218     0.58D-04     0.27D-03     7     0       0.04      0.32    fixocc
   9     -261.65671515      -0.00001189     0.35D-04     0.19D-03     8     0       0.03      0.35    diag
  10     -261.65671833      -0.00000318     0.16D-04     0.11D-03     9     0       0.04      0.39    diag/orth
  11     -261.65671866      -0.00000033     0.57D-05     0.36D-04     9     0       0.04      0.43    diag
  12     -261.65671869      -0.00000003     0.20D-05     0.87D-05     9     0       0.03      0.46    diag
  13     -261.65671869      -0.00000000     0.74D-06     0.30D-05     9     0       0.04      0.50    diag
  14     -261.65671869      -0.00000000     0.26D-06     0.57D-06     0     0       0.04      0.54    diag

 Final occupancy:  19

 !RHF STATE 1.1 Energy               -261.656718690482
  RHF One-electron energy            -686.555837791726
  RHF Two-electron energy             258.003482465726
  RHF Kinetic energy                  261.261119295283
  RHF Nuclear energy                  166.895636635517
  RHF Virial quotient                  -1.001514191611

 !RHF STATE 1.1 Dipole moment           0.85586323    -0.00941242    -0.00000000
 Dipole moment /Debye                   2.17538735    -0.02392399    -0.00000000

 Orbital energies:

           1.1          2.1          3.1          4.1          5.1          6.1          7.1          8.1          9.1         10.1
    -20.623210   -15.745993   -15.675774   -11.294960   -11.259430    -1.545316    -1.323126    -1.060879    -0.837917    -0.808453

          11.1         12.1         13.1         14.1         15.1         16.1         17.1         18.1         19.1         20.1
     -0.707251    -0.696068    -0.652507    -0.647327    -0.599123    -0.539931    -0.446076    -0.445600    -0.365499     0.083133

          21.1
      0.169935


 HOMO     19.1    -0.365499 =      -9.9457eV
 LUMO     20.1     0.083133 =       2.2622eV
 LUMO-HOMO         0.448633 =      12.2079eV

 Orbitals saved in record  2100.2


 **********************************************************************************************************************************
 DATASETS  * FILE   NREC   LENGTH (MB)   RECORD NAMES
              1      19       56.67       500      610      700      900      950      970     1000      129      960     1100   
                                          VAR    BASINP    GEOM    SYMINP    ZMAT    AOBASIS   BASIS     P2S    ABASIS      S 
                                         1400     1410     1200     1210     1080     1600     1650     1300     1700   
                                           T        V       H0       H01     AOSYM     SMH    MOLCAS    ERIS     OPER   

              2       4        0.64       700     1000      520     2100   
                                         GEOM     BASIS   MCVARS     RHF  

 PROGRAMS   *        TOTAL    HF-SCF       INT
 CPU TIMES  *         1.28      0.54      0.65
 REAL TIME  *         5.92 SEC
 DISK USED  *       140.81 MB
 **********************************************************************************************************************************


 PROGRAM * CCSD (Closed-shell coupled cluster)     Authors: C. Hampel, H.-J. Werner, 1991, M. Deegan, P.J. Knowles, 1992


 Convergence thresholds:  THRVAR = 1.00D-08  THRDEN = 1.00D-06

 CCSD(T)     terms to be evaluated (factor= 1.000)


 Number of core orbitals:           5 (   5 )
 Number of closed-shell orbitals:  14 (  14 )
 Number of external orbitals:      71 (  71 )

 Molecular orbitals read from record     2100.2  Type=RHF/CANONICAL  

 Number of N-1 electron functions:              14
 Number of N-2 electron functions:             105
 Number of singly external CSFs:               994
 Number of doubly external CSFs:            494515
 Total number of CSFs:                      495510

 Length of J-op  integral file:               0.00 MB
 Length of K-op  integral file:               0.62 MB
 Length of 3-ext integral record:             0.00 MB

 Memory could be reduced to 7.28 Mwords without degradation in triples

 Integral transformation finished. Total CPU:   0.29 sec, npass=  1  Memory used:   7.13 MW

 Reference energy:                   -261.65671869

 MP2 singlet pair energy:              -0.49748047
 MP2 triplet pair energy:              -0.34031613
 MP2 correlation energy:               -0.83779659
 MP2 total energy:                   -262.49451528

 SCS-MP2 correlation energy:           -0.80872881   (PS=  1.200000  PT=  0.333333)
 SCS-MP2 total energy:               -262.46544751

 ITER.      SQ.NORM     CORR.ENERGY   TOTAL ENERGY   ENERGY CHANGE        DEN1      VAR(S)    VAR(P)  DIIS     TIME  TIME/IT
   1      1.28376575    -0.84337896  -262.50009765    -0.00558237     0.03451749  0.13D-01  0.12D-01  1  1     2.47     0.95
   2      1.31175097    -0.84240790  -262.49912659     0.00097107    -0.02961041  0.62D-03  0.14D-02  2  2     3.28     0.95
   3      1.32976754    -0.84397877  -262.50069747    -0.00157088    -0.00716758  0.53D-03  0.15D-03  3  3     4.27     1.04
   4      1.33790975    -0.84383672  -262.50055541     0.00014206    -0.00226837  0.98D-04  0.36D-04  4  4     5.11     1.03
   5      1.34485340    -0.84396503  -262.50068372    -0.00012831    -0.00131315  0.16D-04  0.44D-05  5  5     6.13     1.08
   6      1.34681254    -0.84389189  -262.50061058     0.00007314    -0.00019925  0.26D-05  0.88D-06  6  6     7.01     1.09
   7      1.34748671    -0.84387937  -262.50059806     0.00001252    -0.00003905  0.73D-06  0.15D-06  6  2     8.02     1.12
   8      1.34768584    -0.84387958  -262.50059827    -0.00000021    -0.00000847  0.11D-06  0.48D-07  6  1     8.89     1.11
   9      1.34774122    -0.84387910  -262.50059779     0.00000047     0.00000913  0.27D-07  0.78D-08  6  4     9.75     1.10
  10      1.34777487    -0.84388119  -262.50059988    -0.00000209    -0.00000757  0.46D-08  0.18D-08  6  3    10.65     1.09
  11      1.34777854    -0.84388086  -262.50059955     0.00000033    -0.00000019  0.15D-08  0.44D-09  6  5    11.56     1.09
  12      1.34777695    -0.84388139  -262.50060008    -0.00000053     0.00000046  0.36D-09  0.11D-09  6  6    12.40     1.09

 Norm of t1 vector:      0.17968801      S-energy:     0.00000122      T1 diagnostic:  0.02401182
                                                                       D1 diagnostic:  0.09546246
                                                                       D2 diagnostic:  0.20633351 (external, symmetry=1)

 Singles amplitudes (print threshold =  0.500E-01):

         I         SYM. A    A   T(IA)

        13         1         1     -0.07930845

 Doubles amplitudes (print threshold =  0.500E-01):

         I         J         SYM. A    SYM. B    A         B      T(IJ, AB)

        12        12         1         1         2         2     -0.08130175
        13        12         1         1         1         2      0.05118898
        13        13         1         1         1         1     -0.08584203
        14        14         1         1         1         1     -0.07379678
        14        14         1         1         4         4     -0.05449261


 Total CPU time for triples:      6.70 sec


 RESULTS
 =======

  Reference energy                   -261.656718690483
  CCSD singlet pair energy             -0.555413988077
  CCSD triplet pair energy             -0.288468625510
  CCSD correlation energy              -0.843881389462

  Triples (T) contribution             -0.041636029350
  Total correlation energy             -0.885517418812

  CCSD total energy                  -262.500600079945
  CCSD[T] energy                     -262.545916059674
  CCSD-T energy                      -262.541576386995
 !CCSD(T) total energy               -262.542236109295

 Timing summary (sec):

 STEP                 CPU(USER)    SYS     CPU(TOT)    WALL
 Transformation          0.31      0.06      0.37      0.52
 CCSD iterations        12.13      0.57     12.70     13.36
 Triples                 6.70      0.51      7.21      8.21

 Program statistics:

 Available memory in ccsd:               393215197
 Min. memory needed in ccsd:               1386282
 Max. memory used in ccsd:                 1803181
 Max. memory used in cckext:               1822394 (12 integral passes)



 **********************************************************************************************************************************
 DATASETS  * FILE   NREC   LENGTH (MB)   RECORD NAMES
              1      20       85.95       500      610      700      900      950      970     1000      129      960     1100   
                                          VAR    BASINP    GEOM    SYMINP    ZMAT    AOBASIS   BASIS     P2S    ABASIS      S 
                                         1400     1410     1200     1210     1080     1600     1650     1300     1700     1380   
                                           T        V       H0       H01     AOSYM     SMH    MOLCAS    ERIS     OPER     JKOP   

              2       4        0.64       700     1000      520     2100   
                                         GEOM     BASIS   MCVARS     RHF  

 PROGRAMS   *        TOTAL   CCSD(T)    HF-SCF       INT
 CPU TIMES  *        19.05     17.77      0.54      0.65
 REAL TIME  *        28.50 SEC
 DISK USED  *       169.27 MB
 **********************************************************************************************************************************

 Dump information in style XML to xml output                                                                      

 Orbitals will not be exported.

 **********************************************************************************************************************************

 CCSD(T)/cc-pVDZ energy=   -262.542236109295

         CCSD(T)          HF-SCF
   -262.54223611   -261.65671869
 **********************************************************************************************************************************
 Molpro calculation terminated
