
 Working directory              : /var/folders/2v/xbgp75_9785319ghcgb4zr4r0000gp/T//molpro.1Qk6xntkZf/
 Global scratch directory       : /var/folders/2v/xbgp75_9785319ghcgb4zr4r0000gp/T//molpro.1Qk6xntkZf/
 Wavefunction directory         : /Users/sacpjk/wfu/
 Main file repository           : /var/folders/2v/xbgp75_9785319ghcgb4zr4r0000gp/T//molpro.1Qk6xntkZf/

 id        : peterk

 Nodes                        nprocs
 Cardiff-University-G34YLXT77Y    1
 GA implementation: MPI file
 GA implementation (serial work in mppx): MPI file

 Using customized tuning parameters: mindgm=1; mindgv=20; mindgc=4; mindgr=1; noblas=0; minvec=7
 default implementation of scratch files=df  


 Variables initialized (1032), CPU time= 0.00 sec
 
 symmetry,nosym
 
 
 geometry={
 9
  o         -2.235437230087    0.143124292817    0.279182781720
  h         -2.652114069471    0.941997007504    0.604952458971
  h         -1.306410910992    0.253881357629    0.520131274942
  o          0.606525854540    0.239596225744    0.665558031726
  h          0.974508678778   -0.332481177259    1.343086358835
  c          1.071530925880   -0.232033690184   -0.596601078094
  h          0.640713830642    0.419060000765   -1.349715110074
  h          2.157494612880   -0.181240829481   -0.670913006230
  h          0.743188307883   -1.251903187533   -0.795681711954
 }
 basis=aug-cc-pVDZ
 
 
 
 hf; mp2
 
 
 
 {put,xml;noorbitals,nobasis}
 Commands initialized (841), CPU time= 0.01 sec, 704 directives.
 Default parameters read. Elapsed time= 0.06 sec

 Checking input...
 Passed
1


                                         ***  PROGRAM SYSTEM MOLPRO  ***
                                       Copyright, TTI GmbH Stuttgart, 2015
                                    Version 2023.1 linked Tue Jun  6 09:54:11 2023


 **********************************************************************************************************************************
 LABEL *                                                                                                                                                                 
  64 bit serial version                                                                  DATE: 08-Jun-23          TIME: 21:49:27  
 **********************************************************************************************************************************

 SHA1:             8ebb0dd001088a5c915591db1a321413035db0b1
 **********************************************************************************************************************************

 Memory per process:       805 MW
 Total memory per node:   1074 MW
 Total GA space:           268 MW

 GA preallocation disabled
 GA check enabled

 Variable memory set to 805.3 MW

 ZSYMEL=NOSYM


 Geometry recognized as XYZ

 SETTING BASIS          =    AUG-CC-PVDZ


 Recomputing integrals since basis changed


 Using spherical harmonics

 Library entry O      S aug-cc-pVDZ          selected for orbital group  1
 Library entry O      P aug-cc-pVDZ          selected for orbital group  1
 Library entry O      D aug-cc-pVDZ          selected for orbital group  1
 Library entry H      S aug-cc-pVDZ          selected for orbital group  2
 Library entry H      P aug-cc-pVDZ          selected for orbital group  2
 Library entry C      S aug-cc-pVDZ          selected for orbital group  5
 Library entry C      P aug-cc-pVDZ          selected for orbital group  5
 Library entry C      D aug-cc-pVDZ          selected for orbital group  5


 PROGRAM * SEWARD (Integral evaluation for generally contracted gaussian basis sets)     Author: Roland Lindh, 1990

 Geometry written to block  1 of record 700


 Point group  C1  



 ATOMIC COORDINATES

 NR  ATOM    CHARGE       X              Y              Z

   1  O       8.00   -4.224364134    0.270465715    0.527578996
   2  H       1.00   -5.011769243    1.780116354    1.143194466
   3  H       1.00   -2.468758828    0.479766234    0.982905658
   4  O       8.00    1.146167753    0.452771247    1.257722400
   5  H       1.00    1.841554509   -0.628298367    2.538065380
   6  C       6.00    2.024899984   -0.438480126   -1.127412643
   7  H       1.00    1.210773664    0.791908631   -2.550591904
   8  H       1.00    4.077073934   -0.342495530   -1.267841835
   9  H       1.00    1.404422361   -2.365754159   -1.503620518

 Bond lengths in Bohr (Angstrom)

 1-2  1.810534248  1-3  1.825726997  4-5  1.814263596  4-6  2.693579128  6-7  2.049901795
     ( 0.958093464)     ( 0.966133120)     ( 0.960066950)     ( 1.425380690)     ( 1.084761314)

 6-8  2.059211335  6-9  2.059346994
     ( 1.089687711)     ( 1.089759499)

 Bond angles

  2-1-3  103.75741037   4-6-7  106.65459098   4-6-8  111.72059385   4-6-9  111.90879544

  5-4-6  107.61952491   7-6-8  108.69153235   7-6-9  108.37480423   8-6-9  109.35579189

 NUCLEAR CHARGE:                   28
 NUMBER OF PRIMITIVE AOS:         177
 NUMBER OF SYMMETRY AOS:          171
 NUMBER OF CONTRACTIONS:          123   (  123A   )
 NUMBER OF INNER CORE ORBITALS:     0   (    0A   )
 NUMBER OF OUTER CORE ORBITALS:     3   (    3A   )
 NUMBER OF VALENCE ORBITALS:       18   (   18A   )


 NUCLEAR REPULSION ENERGY   79.98338108


 Eigenvalues of metric

         1 0.533E-03 0.541E-03 0.709E-03 0.775E-03 0.137E-02 0.205E-02 0.232E-02 0.324E-02


 Contracted 2-electron integrals neglected if value below      1.0D-11
 AO integral compression algorithm  1   Integral accuracy      1.0D-11

     139.985 MB (compressed) written to integral file ( 51.3%)


 NUMBER OF SORTED TWO-ELECTRON INTEGRALS:   29081751.     BUFFER LENGTH:  32768
 NUMBER OF SEGMENTS:   2  SEGMENT LENGTH:   15997996      RECORD LENGTH: 524288

 Memory used in sort:      16.56 MW

 SORT1 READ    34029761. AND WROTE    28603919. INTEGRALS IN     83 RECORDS. CPU TIME:     0.21 SEC, REAL TIME:     0.31 SEC
 SORT2 READ    28603919. AND WROTE    29081751. INTEGRALS IN    534 RECORDS. CPU TIME:     0.24 SEC, REAL TIME:     0.32 SEC

 FILE SIZES:   FILE 1:   170.7 MBYTE,  FILE 4:   348.2 MBYTE,   TOTAL:    518.9 MBYTE

 OPERATOR DM      FOR CENTER  0  COORDINATES:    0.000000    0.000000    0.000000


 **********************************************************************************************************************************
 DATASETS  * FILE   NREC   LENGTH (MB)   RECORD NAMES
              1      19      145.15       500      610      700      900      950      970     1000      129      960     1100   
                                          VAR    BASINP    GEOM    SYMINP    ZMAT    AOBASIS   BASIS     P2S    ABASIS      S 
                                         1400     1410     1200     1210     1080     1600     1650     1300     1700   
                                           T        V       H0       H01     AOSYM     SMH    MOLCAS    ERIS     OPER   

 PROGRAMS   *        TOTAL       INT
 CPU TIMES  *         1.33      1.24
 REAL TIME  *         1.99 SEC
 DISK USED  *       495.31 MB
 **********************************************************************************************************************************


 Program * Restricted Hartree-Fock

 Orbital guess generated from atomic densities. Full valence occupancy:   21

 Initial occupancy:  14

 NELEC=   28   SYM=1   MS2= 0   THRE=1.0D-08   THRD=3.2D-06   THRG=3.2D-06  HFMA2=F  DIIS_START=2   DIIS_MAX=10   DIIS_INCORE=F

 Level shifts:    0.00 (CLOSED)    0.00 (OPEN)    0.30 (GAP_MIN)

 ITER           ETOT              DE          GRAD        DDIFF     DIIS  NEXP   TIME(IT)  TIME(TOT)  DIAG
   1     -191.04196446    -191.04196446     0.00D+00     0.82D-01     0     0       0.12      0.23    start
   2     -191.09367371      -0.05170925     0.68D-02     0.12D-01     1     0       0.13      0.36    diag
   3     -191.10817813      -0.01450442     0.37D-02     0.38D-02     2     0       0.12      0.48    diag
   4     -191.10885929      -0.00068116     0.58D-03     0.94D-03     3     0       0.12      0.60    diag
   5     -191.10889912      -0.00003983     0.12D-03     0.22D-03     4     0       0.12      0.72    diag
   6     -191.10890108      -0.00000197     0.22D-04     0.52D-04     5     0       0.12      0.84    diag
   7     -191.10890117      -0.00000009     0.54D-05     0.11D-04     6     0       0.13      0.97    diag
   8     -191.10890119      -0.00000001     0.23D-05     0.36D-05     7     0       0.12      1.09    fixocc
   9     -191.10890119      -0.00000000     0.64D-06     0.10D-05     8     0       0.12      1.21    diag
  10     -191.10890119      -0.00000000     0.16D-06     0.25D-06     0     0       0.12      1.33    diag/orth

 Final occupancy:  14

 !RHF STATE 1.1 Energy               -191.108901186881
  RHF One-electron energy            -420.670011429955
  RHF Two-electron energy             149.577729165182
  RHF Kinetic energy                  190.840647809913
  RHF Nuclear energy                   79.983381077893
  RHF Virial quotient                  -1.001405640675

 !RHF STATE 1.1 Dipole moment           1.00460901     0.00878906     0.21971969
 Dipole moment /Debye                   2.55346140     0.02233957     0.55847175

 Orbital energies:

           1.1          2.1          3.1          4.1          5.1          6.1          7.1          8.1          9.1         10.1
    -20.590761   -20.545221   -11.289573    -1.383981    -1.324874    -0.942009    -0.717484    -0.689083    -0.632600    -0.610899

          11.1         12.1         13.1         14.1         15.1         16.1
     -0.559644    -0.520788    -0.480062    -0.470315     0.031323     0.048266


 HOMO     14.1    -0.470315 =     -12.7979eV
 LUMO     15.1     0.031323 =       0.8523eV
 LUMO-HOMO         0.501638 =      13.6503eV

 Orbitals saved in record  2100.2


 **********************************************************************************************************************************
 DATASETS  * FILE   NREC   LENGTH (MB)   RECORD NAMES
              1      19      145.15       500      610      700      900      950      970     1000      129      960     1100   
                                          VAR    BASINP    GEOM    SYMINP    ZMAT    AOBASIS   BASIS     P2S    ABASIS      S 
                                         1400     1410     1200     1210     1080     1600     1650     1300     1700   
                                           T        V       H0       H01     AOSYM     SMH    MOLCAS    ERIS     OPER   

              2       4        0.75       700     1000      520     2100   
                                         GEOM     BASIS   MCVARS     RHF  

 PROGRAMS   *        TOTAL    HF-SCF       INT
 CPU TIMES  *         2.66      1.33      1.24
 REAL TIME  *         3.58 SEC
 DISK USED  *       495.31 MB
 **********************************************************************************************************************************


 PROGRAM * MP2 (Closed-shell)     Authors: C. Hampel, H.-J. Werner, 1991, M. Deegan, P.J. Knowles, 1992


 Convergence thresholds:  THRVAR = 1.00D-08  THRDEN = 1.00D-06

 Number of core orbitals:           3 (   3 )
 Number of closed-shell orbitals:  11 (  11 )
 Number of external orbitals:     109 ( 109 )

 Molecular orbitals read from record     2100.2  Type=RHF/CANONICAL  

 Number of N-1 electron functions:              11
 Number of N-2 electron functions:              66
 Number of singly external CSFs:              1199
 Number of doubly external CSFs:            719400
 Total number of CSFs:                      720600

 Length of J-op  integral file:               0.00 MB
 Length of K-op  integral file:               1.10 MB

 Integral transformation finished. Total CPU:   0.26 sec, npass=  1  Memory used:   2.00 MW

 Memory needed for MP2:                      0.07 MW

 SCS-MP2 correlation energy:           -0.575240061220   (PS=  1.200000  PT=  0.333333)
 SCS-MP2 total energy:               -191.684141248101


  Reference energy                   -191.108901186881
  MP2 singlet pair energy              -0.367645812180
  MP2 triplet pair energy              -0.215461746328
  MP2 correlation energy               -0.583107558508

 !MP2 total energy                   -191.692008745389


 **********************************************************************************************************************************
 DATASETS  * FILE   NREC   LENGTH (MB)   RECORD NAMES
              1      20      156.84       500      610      700      900      950      970     1000      129      960     1100   
                                          VAR    BASINP    GEOM    SYMINP    ZMAT    AOBASIS   BASIS     P2S    ABASIS      S 
                                         1400     1410     1200     1210     1080     1600     1650     1300     1700     1380   
                                           T        V       H0       H01     AOSYM     SMH    MOLCAS    ERIS     OPER     JKOP   

              2       4        0.75       700     1000      520     2100   
                                         GEOM     BASIS   MCVARS     RHF  

 PROGRAMS   *        TOTAL       MP2    HF-SCF       INT
 CPU TIMES  *         2.97      0.31      1.33      1.24
 REAL TIME  *         4.04 SEC
 DISK USED  *       495.31 MB
 **********************************************************************************************************************************

 Dump information in style XML to xml output                                                                      

 Orbitals will not be exported.

 **********************************************************************************************************************************

 MP2/aug-cc-pVDZ energy=   -191.692008745389

             MP2          HF-SCF
   -191.69200875   -191.10890119
 **********************************************************************************************************************************
 Molpro calculation terminated
