
 Working directory              : /var/folders/2v/xbgp75_9785319ghcgb4zr4r0000gp/T//molpro.EoThVNnRRr/
 Global scratch directory       : /var/folders/2v/xbgp75_9785319ghcgb4zr4r0000gp/T//molpro.EoThVNnRRr/
 Wavefunction directory         : /Users/sacpjk/wfu/
 Main file repository           : /var/folders/2v/xbgp75_9785319ghcgb4zr4r0000gp/T//molpro.EoThVNnRRr/

 id        : peterk

 Nodes                        nprocs
 Cardiff-University-G34YLXT77Y    1
 GA implementation: MPI file
 GA implementation (serial work in mppx): MPI file

 Using customized tuning parameters: mindgm=1; mindgv=20; mindgc=4; mindgr=1; noblas=0; minvec=7
 default implementation of scratch files=df  


 Variables initialized (1032), CPU time= 0.00 sec
 
 symmetry,nosym
 
 
 geometry={
           10
     C         -0.10908494     -0.00012170      1.84867956
     C          0.40056224     -0.00008470      0.60878612
     C         -0.40056204     -0.00007770     -0.60878632
     H          1.48267763     -0.00004270      0.47407607
     H         -1.48267743     -0.00011170     -0.47407627
     C          0.10908414     -0.00003170     -1.84867976
     H          1.18301352      0.00022930     -2.02259382
     H          0.52643529      0.00000030      2.72908587
     H         -1.18301332      0.00044230      2.02259462
     H         -0.52643509     -0.00020170     -2.72908607
 }
 basis=cc-pVDZ
 
 
 
 hf; mp2
 
 
 
 {put,xml;noorbitals,nobasis}
 Commands initialized (841), CPU time= 0.01 sec, 704 directives.
 Default parameters read. Elapsed time= 0.50 sec

 Checking input...
 Passed
1


                                         ***  PROGRAM SYSTEM MOLPRO  ***
                                       Copyright, TTI GmbH Stuttgart, 2015
                                    Version 2023.1 linked Tue Jun  6 09:54:11 2023


 **********************************************************************************************************************************
 LABEL *                                                                                                                                                                 
  64 bit serial version                                                                  DATE: 10-Jun-23          TIME: 15:02:58  
 **********************************************************************************************************************************

 SHA1:             8ebb0dd001088a5c915591db1a321413035db0b1
 **********************************************************************************************************************************

 Memory per process:       805 MW
 Total memory per node:   1074 MW
 Total GA space:           268 MW

 GA preallocation disabled
 GA check enabled

 Variable memory set to 805.3 MW

 ZSYMEL=NOSYM


 Geometry recognized as XYZ

 SETTING BASIS          =    CC-PVDZ


 Recomputing integrals since basis changed


 Using spherical harmonics

 Library entry C      S cc-pVDZ              selected for orbital group  1
 Library entry C      P cc-pVDZ              selected for orbital group  1
 Library entry C      D cc-pVDZ              selected for orbital group  1
 Library entry H      S cc-pVDZ              selected for orbital group  2
 Library entry H      P cc-pVDZ              selected for orbital group  2


 PROGRAM * SEWARD (Integral evaluation for generally contracted gaussian basis sets)     Author: Roland Lindh, 1990

 Geometry written to block  1 of record 700


 Point group  C1  



 ATOMIC COORDINATES

 NR  ATOM    CHARGE       X              Y              Z

   1  C       6.00   -0.206140661   -0.000229980    3.493498061
   2  C       6.00    0.756952929   -0.000160060    1.150439035
   3  C       6.00   -0.756952552   -0.000146832   -1.150439413
   4  H       1.00    2.801854652   -0.000080691    0.895873935
   5  H       1.00   -2.801854274   -0.000211082   -0.895874312
   6  C       6.00    0.206139149   -0.000059904   -3.493498439
   7  H       1.00    2.235571555    0.000433314   -3.822148381
   8  H       1.00    0.994818520    0.000000567    5.157224865
   9  H       1.00   -2.235571177    0.000835826    3.822149893
  10  H       1.00   -0.994818142   -0.000381158   -5.157225243

 Bond lengths in Bohr (Angstrom)

 1-2  2.533273547  1-8  2.051899093  1-9  2.055869981  2-3  2.754260598  2-4  2.060685918
     ( 1.340550630)     ( 1.085818239)     ( 1.087919543)     ( 1.457491941)     ( 1.090468026)

  3- 5  2.060685917   3- 6  2.533272829   6- 7  2.055871328   6-10  2.051897999
       ( 1.090468026)       ( 1.340550250)       ( 1.087920255)       ( 1.085817660)

 Bond angles

  1-2-3  124.31166664   1-2-4  119.44079072   2-1-8  121.83173308   2-1-9  121.54345619

  2-3-5  116.24754265   2-3-6  124.31170616   3-2-4  116.24754264   3-6-7  121.54336148

  3- 6-10  121.83181502   5- 3- 6  119.44075119   7- 6-10  116.62482343   8- 1- 9  116.62479681

 NUCLEAR CHARGE:                   30
 NUMBER OF PRIMITIVE AOS:         150
 NUMBER OF SYMMETRY AOS:          146
 NUMBER OF CONTRACTIONS:           86   (   86A   )
 NUMBER OF INNER CORE ORBITALS:     0   (    0A   )
 NUMBER OF OUTER CORE ORBITALS:     4   (    4A   )
 NUMBER OF VALENCE ORBITALS:       22   (   22A   )


 NUCLEAR REPULSION ENERGY  103.54782820


 Eigenvalues of metric

         1 0.190E-02 0.248E-02 0.393E-02 0.128E-01 0.155E-01 0.183E-01 0.229E-01 0.247E-01


 Contracted 2-electron integrals neglected if value below      1.0D-11
 AO integral compression algorithm  1   Integral accuracy      1.0D-11

     26.477 MB (compressed) written to integral file ( 43.3%)


 NUMBER OF SORTED TWO-ELECTRON INTEGRALS:    6999411.     BUFFER LENGTH:  32768
 NUMBER OF SEGMENTS:   1  SEGMENT LENGTH:    6999411      RECORD LENGTH: 524288

 Memory used in sort:       7.56 MW

 SORT1 READ     7726471. AND WROTE     6435139. INTEGRALS IN     19 RECORDS. CPU TIME:     0.05 SEC, REAL TIME:     0.07 SEC
 SORT2 READ     6435139. AND WROTE     6999411. INTEGRALS IN    101 RECORDS. CPU TIME:     0.09 SEC, REAL TIME:     0.12 SEC

 FILE SIZES:   FILE 1:    56.9 MBYTE,  FILE 4:    79.8 MBYTE,   TOTAL:    136.7 MBYTE

 OPERATOR DM      FOR CENTER  0  COORDINATES:    0.000000    0.000000    0.000000


 **********************************************************************************************************************************
 DATASETS  * FILE   NREC   LENGTH (MB)   RECORD NAMES
              1      19       50.62       500      610      700      900      950      970     1000      129      960     1100   
                                          VAR    BASINP    GEOM    SYMINP    ZMAT    AOBASIS   BASIS     P2S    ABASIS      S 
                                         1400     1410     1200     1210     1080     1600     1650     1300     1700   
                                           T        V       H0       H01     AOSYM     SMH    MOLCAS    ERIS     OPER   

 PROGRAMS   *        TOTAL       INT
 CPU TIMES  *         0.66      0.56
 REAL TIME  *         2.20 SEC
 DISK USED  *       130.81 MB
 **********************************************************************************************************************************


 Program * Restricted Hartree-Fock

 Orbital guess generated from atomic densities. Full valence occupancy:   26

 Initial occupancy:  15

 NELEC=   30   SYM=1   MS2= 0   THRE=1.0D-08   THRD=3.2D-06   THRG=3.2D-06  HFMA2=F  DIIS_START=2   DIIS_MAX=10   DIIS_INCORE=F

 Level shifts:    0.00 (CLOSED)    0.00 (OPEN)    0.30 (GAP_MIN)

 ITER           ETOT              DE          GRAD        DDIFF     DIIS  NEXP   TIME(IT)  TIME(TOT)  DIAG
   1     -154.89215467    -154.89215467     0.00D+00     0.11D+00     0     0       0.04      0.07    start
   2     -154.93036719      -0.03821253     0.47D-02     0.11D-01     1     0       0.04      0.11    diag
   3     -154.93384519      -0.00347799     0.15D-02     0.36D-02     2     0       0.05      0.16    diag
   4     -154.93429132      -0.00044614     0.49D-03     0.13D-02     3     0       0.03      0.19    diag
   5     -154.93431008      -0.00001876     0.12D-03     0.23D-03     4     0       0.04      0.23    diag
   6     -154.93431221      -0.00000213     0.30D-04     0.77D-04     5     0       0.04      0.27    diag
   7     -154.93431234      -0.00000013     0.63D-05     0.17D-04     6     0       0.04      0.31    diag
   8     -154.93431235      -0.00000001     0.16D-05     0.46D-05     7     0       0.04      0.35    fixocc
   9     -154.93431235      -0.00000000     0.38D-06     0.11D-05     8     0       0.04      0.39    diag
  10     -154.93431235      -0.00000000     0.91D-07     0.22D-06     0     0       0.04      0.43    diag/orth

 Final occupancy:  15

 !RHF STATE 1.1 Energy               -154.934312349843
  RHF One-electron energy            -412.476175456914
  RHF Two-electron energy             153.994034905756
  RHF Kinetic energy                  154.671052503457
  RHF Nuclear energy                  103.547828201315
  RHF Virial quotient                  -1.001702062811

 !RHF STATE 1.1 Dipole moment          -0.00000019     0.00021830     0.00000002
 Dipole moment /Debye                  -0.00000048     0.00055487     0.00000006

 Orbital energies:

           1.1          2.1          3.1          4.1          5.1          6.1          7.1          8.1          9.1         10.1
    -11.244093   -11.243299   -11.236355   -11.236345    -1.089822    -0.998228    -0.825344    -0.750943    -0.641080    -0.630827

          11.1         12.1         13.1         14.1         15.1         16.1         17.1
     -0.555003    -0.540414    -0.489883    -0.441589    -0.320828     0.118542     0.202824


 HOMO     15.1    -0.320828 =      -8.7302eV
 LUMO     16.1     0.118542 =       3.2257eV
 LUMO-HOMO         0.439371 =      11.9559eV

 Orbitals saved in record  2100.2


 **********************************************************************************************************************************
 DATASETS  * FILE   NREC   LENGTH (MB)   RECORD NAMES
              1      19       50.62       500      610      700      900      950      970     1000      129      960     1100   
                                          VAR    BASINP    GEOM    SYMINP    ZMAT    AOBASIS   BASIS     P2S    ABASIS      S 
                                         1400     1410     1200     1210     1080     1600     1650     1300     1700   
                                           T        V       H0       H01     AOSYM     SMH    MOLCAS    ERIS     OPER   

              2       4        0.65       700     1000      520     2100   
                                         GEOM     BASIS   MCVARS     RHF  

 PROGRAMS   *        TOTAL    HF-SCF       INT
 CPU TIMES  *         1.09      0.43      0.56
 REAL TIME  *         3.17 SEC
 DISK USED  *       130.81 MB
 **********************************************************************************************************************************


 PROGRAM * MP2 (Closed-shell)     Authors: C. Hampel, H.-J. Werner, 1991, M. Deegan, P.J. Knowles, 1992


 Convergence thresholds:  THRVAR = 1.00D-08  THRDEN = 1.00D-06

 Number of core orbitals:           4 (   4 )
 Number of closed-shell orbitals:  11 (  11 )
 Number of external orbitals:      71 (  71 )

 Molecular orbitals read from record     2100.2  Type=RHF/CANONICAL  

 Number of N-1 electron functions:              11
 Number of N-2 electron functions:              66
 Number of singly external CSFs:               781
 Number of doubly external CSFs:            305371
 Total number of CSFs:                      306153

 Length of J-op  integral file:               0.00 MB
 Length of K-op  integral file:               0.57 MB

 Integral transformation finished. Total CPU:   0.07 sec, npass=  1  Memory used:   1.00 MW

 Memory needed for MP2:                      0.04 MW

 SCS-MP2 correlation energy:           -0.532267062127   (PS=  1.200000  PT=  0.333333)
 SCS-MP2 total energy:               -155.466579411970


  Reference energy                   -154.934312349843
  MP2 singlet pair energy              -0.345418333155
  MP2 triplet pair energy              -0.189265278761
  MP2 correlation energy               -0.534683611917

 !MP2 total energy                   -155.468995961760


 **********************************************************************************************************************************
 DATASETS  * FILE   NREC   LENGTH (MB)   RECORD NAMES
              1      20       56.34       500      610      700      900      950      970     1000      129      960     1100   
                                          VAR    BASINP    GEOM    SYMINP    ZMAT    AOBASIS   BASIS     P2S    ABASIS      S 
                                         1400     1410     1200     1210     1080     1600     1650     1300     1700     1380   
                                           T        V       H0       H01     AOSYM     SMH    MOLCAS    ERIS     OPER     JKOP   

              2       4        0.65       700     1000      520     2100   
                                         GEOM     BASIS   MCVARS     RHF  

 PROGRAMS   *        TOTAL       MP2    HF-SCF       INT
 CPU TIMES  *         1.21      0.12      0.43      0.56
 REAL TIME  *         3.60 SEC
 DISK USED  *       130.81 MB
 **********************************************************************************************************************************

 Dump information in style XML to xml output                                                                      

 Orbitals will not be exported.

 **********************************************************************************************************************************

 MP2/cc-pVDZ energy=   -155.468995961760

             MP2          HF-SCF
   -155.46899596   -154.93431235
 **********************************************************************************************************************************
 Molpro calculation terminated
