
 Working directory              : /var/folders/2v/xbgp75_9785319ghcgb4zr4r0000gp/T//molpro.gGclAanvKA/
 Global scratch directory       : /var/folders/2v/xbgp75_9785319ghcgb4zr4r0000gp/T//molpro.gGclAanvKA/
 Wavefunction directory         : /Users/sacpjk/wfu/
 Main file repository           : /var/folders/2v/xbgp75_9785319ghcgb4zr4r0000gp/T//molpro.gGclAanvKA/

 id        : peterk

 Nodes                        nprocs
 Cardiff-University-G34YLXT77Y    1
 GA implementation: MPI file
 GA implementation (serial work in mppx): MPI file

 Using customized tuning parameters: mindgm=1; mindgv=20; mindgc=4; mindgr=1; noblas=0; minvec=7
 default implementation of scratch files=df  


 Variables initialized (1032), CPU time= 0.00 sec
 
 symmetry,nosym
 
 
 geometry={
 7
  n          0.124569655278   -0.403187953202   -0.817004660257
  h          1.114969132486   -0.615403079114   -0.845077133339
  h         -0.350417919872   -1.292734282935   -0.740169479530
  c         -0.157761603644    0.398564064054    0.371229986595
  h         -1.223605732468    0.612872378618    0.421017437514
  h          0.137231318991   -0.055096893267    1.323201890510
  h          0.355015149071    1.354985766005    0.286801958507
 }
 basis=aug-cc-pVTZ
 
 
 
 hf; hf; counterpoise
 
 
 
 {put,xml;noorbitals,nobasis}
 Commands initialized (841), CPU time= 0.01 sec, 704 directives.
 Default parameters read. Elapsed time= 0.07 sec

 Checking input...
 Passed
1


                                         ***  PROGRAM SYSTEM MOLPRO  ***
                                       Copyright, TTI GmbH Stuttgart, 2015
                                    Version 2023.1 linked Tue Jun  6 09:54:11 2023


 **********************************************************************************************************************************
 LABEL *                                                                                                                                                                 
  64 bit serial version                                                                  DATE: 07-Jun-23          TIME: 07:16:52  
 **********************************************************************************************************************************

 SHA1:             8ebb0dd001088a5c915591db1a321413035db0b1
 **********************************************************************************************************************************

 Memory per process:       805 MW
 Total memory per node:   1074 MW
 Total GA space:           268 MW

 GA preallocation disabled
 GA check enabled

 Variable memory set to 805.3 MW

 ZSYMEL=NOSYM


 Geometry recognized as XYZ

 SETTING BASIS          =    AUG-CC-PVTZ


 Recomputing integrals since basis changed


 Using spherical harmonics

 Library entry N      S aug-cc-pVTZ          selected for orbital group  1
 Library entry N      P aug-cc-pVTZ          selected for orbital group  1
 Library entry N      D aug-cc-pVTZ          selected for orbital group  1
 Library entry N      F aug-cc-pVTZ          selected for orbital group  1
 Library entry H      S aug-cc-pVTZ          selected for orbital group  2
 Library entry H      P aug-cc-pVTZ          selected for orbital group  2
 Library entry H      D aug-cc-pVTZ          selected for orbital group  2
 Library entry C      S aug-cc-pVTZ          selected for orbital group  3
 Library entry C      P aug-cc-pVTZ          selected for orbital group  3
 Library entry C      D aug-cc-pVTZ          selected for orbital group  3
 Library entry C      F aug-cc-pVTZ          selected for orbital group  3


 PROGRAM * SEWARD (Integral evaluation for generally contracted gaussian basis sets)     Author: Roland Lindh, 1990

 Geometry written to block  1 of record 700


 Point group  C1  



 ATOMIC COORDINATES

 NR  ATOM    CHARGE       X              Y              Z

   1  N       7.00    0.235402532   -0.761914808   -1.543915050
   2  H       1.00    2.106986298   -1.162943276   -1.596964336
   3  H       1.00   -0.662193898   -2.442913747   -1.398717602
   4  C       6.00   -0.298126224    0.753176924    0.701523004
   5  H       1.00   -2.312279719    1.158160945    0.795607651
   6  H       1.00    0.259329609   -0.104118039    2.500489181
   7  H       1.00    0.670881402    2.560552001    0.541977154

 Bond lengths in Bohr (Angstrom)

 1-2  1.914801256  1-3  1.911156477  1-4  2.760823780  4-5  2.056618166  4-6  2.069297215
     ( 1.013269188)     ( 1.011340454)     ( 1.460965028)     ( 1.088315465)     ( 1.095024929)

 4-7  2.056948060
     ( 1.088490038)

 Bond angles

  1-4-5  109.54406629   1-4-6  115.31871979   1-4-7  109.15197352   2-1-3  106.07836562

  2-1-4  109.04774565   3-1-4  109.27730371   5-4-6  107.79679288   5-4-7  106.97091570

  6-4-7  107.73101274

 NUCLEAR CHARGE:                   18
 NUMBER OF PRIMITIVE AOS:         269
 NUMBER OF SYMMETRY AOS:          241
 NUMBER OF CONTRACTIONS:          207   (  207A   )
 NUMBER OF INNER CORE ORBITALS:     0   (    0A   )
 NUMBER OF OUTER CORE ORBITALS:     2   (    2A   )
 NUMBER OF VALENCE ORBITALS:       13   (   13A   )


 NUCLEAR REPULSION ENERGY   42.10593245

 Eigenvalues of metric

         1 0.393E-04 0.619E-04 0.643E-04 0.136E-03 0.156E-03 0.246E-03 0.391E-03 0.649E-03


 Contracted 2-electron integrals neglected if value below      1.0D-12
 AO integral compression algorithm  1   Integral accuracy      1.0D-12

     1336.934 MB (compressed) written to integral file ( 62.5%)


 NUMBER OF SORTED TWO-ELECTRON INTEGRALS:  231738156.     BUFFER LENGTH:  32768
 NUMBER OF SEGMENTS:  15  SEGMENT LENGTH:   15999503      RECORD LENGTH: 524288

 Memory used in sort:      16.56 MW

 SORT1 READ   267401021. AND WROTE   230488972. INTEGRALS IN    665 RECORDS. CPU TIME:     1.85 SEC, REAL TIME:     3.72 SEC
 SORT2 READ   230488972. AND WROTE   231738156. INTEGRALS IN   5100 RECORDS. CPU TIME:     1.50 SEC, REAL TIME:     2.90 SEC

 FILE SIZES:   FILE 1:  1368.6 MBYTE,  FILE 4:  2789.3 MBYTE,   TOTAL:   4157.9 MBYTE

 OPERATOR DM      FOR CENTER  0  COORDINATES:    0.000000    0.000000    0.000000


 **********************************************************************************************************************************
 DATASETS  * FILE   NREC   LENGTH (MB)   RECORD NAMES
              1      19     1161.59       500      610      700      900      950      970     1000      129      960     1100   
                                          VAR    BASINP    GEOM    SYMINP    ZMAT    AOBASIS   BASIS     P2S    ABASIS      S 
                                         1400     1410     1200     1210     1080     1600     1650     1300     1700   
                                           T        V       H0       H01     AOSYM     SMH    MOLCAS    ERIS     OPER   

 PROGRAMS   *        TOTAL       INT
 CPU TIMES  *         8.16      8.06
 REAL TIME  *        13.99 SEC
 DISK USED  *         3.87 GB
 **********************************************************************************************************************************


 Program * Restricted Hartree-Fock

 Orbital guess generated from atomic densities. Full valence occupancy:   15

 Initial occupancy:   9

 NELEC=   18   SYM=1   MS2= 0   THRE=1.0D-08   THRD=3.2D-06   THRG=3.2D-06  HFMA2=F  DIIS_START=2   DIIS_MAX=10   DIIS_INCORE=F

 Level shifts:    0.00 (CLOSED)    0.00 (OPEN)    0.30 (GAP_MIN)

 ITER           ETOT              DE          GRAD        DDIFF     DIIS  NEXP   TIME(IT)  TIME(TOT)  DIAG
   1      -95.22537461     -95.22537461     0.00D+00     0.41D-01     0     0       1.08      2.07    start
   2      -95.25106579      -0.02569118     0.37D-02     0.43D-02     1     0       1.11      3.18    diag
   3      -95.25483812      -0.00377233     0.16D-02     0.12D-02     2     0       1.13      4.31    diag
   4      -95.25535965      -0.00052152     0.46D-03     0.42D-03     3     0       1.06      5.37    diag
   5      -95.25538599      -0.00002635     0.89D-04     0.80D-04     4     0       1.07      6.44    diag
   6      -95.25538770      -0.00000170     0.21D-04     0.24D-04     5     0       1.06      7.50    diag
   7      -95.25538782      -0.00000012     0.60D-05     0.66D-05     6     0       1.14      8.64    diag
   8      -95.25538783      -0.00000001     0.16D-05     0.27D-05     7     0       1.17      9.81    fixocc
   9      -95.25538784      -0.00000000     0.41D-06     0.78D-06     8     0       1.06     10.87    diag
  10      -95.25538784      -0.00000000     0.88D-07     0.88D-07     0     0       1.03     11.90    diag/orth

 Final occupancy:   9

 !RHF STATE 1.1 Energy                -95.255387835392
  RHF One-electron energy            -211.559447236824
  RHF Two-electron energy              74.198126956341
  RHF Kinetic energy                   95.126823682826
  RHF Nuclear energy                   42.105932445091
  RHF Virial quotient                  -1.001351502632

 !RHF STATE 1.1 Dipole moment           0.16873248    -0.29237466     0.45791349
 Dipole moment /Debye                   0.42887518    -0.74314226     1.16389999

 Orbital energies:

           1.1          2.1          3.1          4.1          5.1          6.1          7.1          8.1          9.1         10.1
    -15.540490   -11.240251    -1.172054    -0.895786    -0.662927    -0.604370    -0.555711    -0.516107    -0.393900     0.029440

          11.1
      0.042824


 HOMO      9.1    -0.393900 =     -10.7186eV
 LUMO     10.1     0.029440 =       0.8011eV
 LUMO-HOMO         0.423341 =      11.5197eV

 Orbitals saved in record  2100.2


 **********************************************************************************************************************************
 DATASETS  * FILE   NREC   LENGTH (MB)   RECORD NAMES
              1      19     1161.59       500      610      700      900      950      970     1000      129      960     1100   
                                          VAR    BASINP    GEOM    SYMINP    ZMAT    AOBASIS   BASIS     P2S    ABASIS      S 
                                         1400     1410     1200     1210     1080     1600     1650     1300     1700   
                                           T        V       H0       H01     AOSYM     SMH    MOLCAS    ERIS     OPER   

              2       4        1.16       700     1000      520     2100   
                                         GEOM     BASIS   MCVARS     RHF  

 PROGRAMS   *        TOTAL    HF-SCF       INT
 CPU TIMES  *        20.06     11.90      8.06
 REAL TIME  *        32.19 SEC
 DISK USED  *         3.87 GB
 **********************************************************************************************************************************


 Program * Restricted Hartree-Fock

 Molecular orbitals read from record     2100.2  Type=RHF/CANONICAL  

 Initial occupancy:   9

 NELEC=   18   SYM=1   MS2= 0   THRE=1.0D-08   THRD=3.2D-06   THRG=3.2D-06  HFMA2=F  DIIS_START=2   DIIS_MAX=10   DIIS_INCORE=F

 Level shifts:    0.00 (CLOSED)    0.00 (OPEN)    0.30 (GAP_MIN)

 ITER           ETOT              DE          GRAD        DDIFF     DIIS  NEXP   TIME(IT)  TIME(TOT)  DIAG
   1      -95.25538784     -95.25538784     0.00D+00     0.42D-01     0     0       1.06      1.06    start
   2      -95.25538784      -0.00000000     0.41D-07     0.43D-07     1     0       1.17      2.23    diag

 Final occupancy:   9

 !RHF STATE 1.1 Energy                -95.255387835401
  RHF One-electron energy            -211.559449982842
  RHF Two-electron energy              74.198129702351
  RHF Kinetic energy                   95.126824088642
  RHF Nuclear energy                   42.105932445091
  RHF Virial quotient                  -1.001351498360

 !RHF STATE 1.1 Dipole moment           0.16873283    -0.29237515     0.45791511
 Dipole moment /Debye                   0.42887608    -0.74314351     1.16390411

 Orbital energies:

           1.1          2.1          3.1          4.1          5.1          6.1          7.1          8.1          9.1         10.1
    -15.540490   -11.240251    -1.172054    -0.895786    -0.662927    -0.604370    -0.555711    -0.516107    -0.393901     0.029440

          11.1
      0.042824


 HOMO      9.1    -0.393901 =     -10.7186eV
 LUMO     10.1     0.029440 =       0.8011eV
 LUMO-HOMO         0.423341 =      11.5197eV

 Orbitals saved in record  2101.2


 **********************************************************************************************************************************
 DATASETS  * FILE   NREC   LENGTH (MB)   RECORD NAMES
              1      19     1161.59       500      610      700      900      950      970     1000      129      960     1100   
                                          VAR    BASINP    GEOM    SYMINP    ZMAT    AOBASIS   BASIS     P2S    ABASIS      S 
                                         1400     1410     1200     1210     1080     1600     1650     1300     1700   
                                           T        V       H0       H01     AOSYM     SMH    MOLCAS    ERIS     OPER   

              2       5        2.41       700     1000      520     2100     2101   
                                         GEOM     BASIS   MCVARS     RHF      RHF  

 PROGRAMS   *        TOTAL    HF-SCF    HF-SCF       INT
 CPU TIMES  *        22.30      2.24     11.90      8.06
 REAL TIME  *        35.31 SEC
 DISK USED  *         3.87 GB
 **********************************************************************************************************************************

 Counterpoise: absolute minimum monomer separation=    -1.000 Bragg radius scale factor=     1.400 Number of monomers= 1
 Counterpoise skipped because only a single monomer


 **********************************************************************************************************************************
 DATASETS  * FILE   NREC   LENGTH (MB)   RECORD NAMES
              1      19     1161.59       500      610      700      900      950      970     1000      129      960     1100   
                                          VAR    BASINP    GEOM    SYMINP    ZMAT    AOBASIS   BASIS     P2S    ABASIS      S 
                                         1400     1410     1200     1210     1080     1600     1650     1300     1700   
                                           T        V       H0       H01     AOSYM     SMH    MOLCAS    ERIS     OPER   

              2       5        2.41       700     1000      520     2100     2101   
                                         GEOM     BASIS   MCVARS     RHF      RHF  

 PROGRAMS   *        TOTALCOUNTERPOI    HF-SCF    HF-SCF       INT
 CPU TIMES  *        22.30      0.00      2.24     11.90      8.06
 REAL TIME  *        35.32 SEC
 DISK USED  *         3.87 GB
 **********************************************************************************************************************************

 Dump information in style XML to xml output                                                                      

 Orbitals will not be exported.

 **********************************************************************************************************************************

 HF/aug-cc-pVTZ energy=    -95.255387835401

          HF-SCF          HF-SCF
    -95.25538784    -95.25538784
 **********************************************************************************************************************************
 Molpro calculation terminated
