
 Working directory              : /var/folders/2v/xbgp75_9785319ghcgb4zr4r0000gp/T//molpro.eWNQ8hsvEI/
 Global scratch directory       : /var/folders/2v/xbgp75_9785319ghcgb4zr4r0000gp/T//molpro.eWNQ8hsvEI/
 Wavefunction directory         : /Users/sacpjk/wfu/
 Main file repository           : /var/folders/2v/xbgp75_9785319ghcgb4zr4r0000gp/T//molpro.eWNQ8hsvEI/

 id        : peterk

 Nodes                        nprocs
 Cardiff-University-G34YLXT77Y    1
 GA implementation: MPI file
 GA implementation (serial work in mppx): MPI file

 Using customized tuning parameters: mindgm=1; mindgv=20; mindgc=4; mindgr=1; noblas=0; minvec=7
 default implementation of scratch files=df  


 Variables initialized (1032), CPU time= 0.00 sec
 
 symmetry,nosym
 
 
 geometry={
            6
     F          0.00000000      0.00000000     -1.99680889
     C          0.00000000      0.00000000      0.05274751
     H         -0.53104260      0.91979276     -0.07385286
     H         -0.53104260     -0.91979276     -0.07385286
     H          1.06208520      0.00000000     -0.07385286
     CL         0.00000000      0.00000000      2.16561997
 }
 basis=cc-pVDZ
 
 charge=-1
 
 hf; ccsd(t)
 
 
 
 {put,xml;noorbitals,nobasis}
 Commands initialized (841), CPU time= 0.01 sec, 704 directives.
 Default parameters read. Elapsed time= 0.44 sec

 Checking input...
 Passed
1


                                         ***  PROGRAM SYSTEM MOLPRO  ***
                                       Copyright, TTI GmbH Stuttgart, 2015
                                    Version 2023.1 linked Tue Jun  6 09:54:11 2023


 **********************************************************************************************************************************
 LABEL *                                                                                                                                                                 
  64 bit serial version                                                                  DATE: 09-Jun-23          TIME: 16:06:52  
 **********************************************************************************************************************************

 SHA1:             8ebb0dd001088a5c915591db1a321413035db0b1
 **********************************************************************************************************************************

 Memory per process:       805 MW
 Total memory per node:   1074 MW
 Total GA space:           268 MW

 GA preallocation disabled
 GA check enabled

 Variable memory set to 805.3 MW

 ZSYMEL=NOSYM


 Geometry recognized as XYZ

 SETTING BASIS          =    CC-PVDZ
 SETTING CHARGE         =        -1.00000000                                  


 Recomputing integrals since basis changed


 Using spherical harmonics

 Library entry F      S cc-pVDZ              selected for orbital group  1
 Library entry F      P cc-pVDZ              selected for orbital group  1
 Library entry F      D cc-pVDZ              selected for orbital group  1
 Library entry C      S cc-pVDZ              selected for orbital group  2
 Library entry C      P cc-pVDZ              selected for orbital group  2
 Library entry C      D cc-pVDZ              selected for orbital group  2
 Library entry H      S cc-pVDZ              selected for orbital group  3
 Library entry H      P cc-pVDZ              selected for orbital group  3
 Library entry CL     S cc-pVDZ              selected for orbital group  4
 Library entry CL     P cc-pVDZ              selected for orbital group  4
 Library entry CL     D cc-pVDZ              selected for orbital group  4


 PROGRAM * SEWARD (Integral evaluation for generally contracted gaussian basis sets)     Author: Roland Lindh, 1990

 Geometry written to block  1 of record 700


 Point group  C1  



 ATOMIC COORDINATES

 NR  ATOM    CHARGE       X              Y              Z

   1  F       9.00    0.000000000    0.000000000   -3.773421925
   2  C       6.00    0.000000000    0.000000000    0.099678348
   3  H       1.00   -1.003525075    1.738156408   -0.139561679
   4  H       1.00   -1.003525075   -1.738156408   -0.139561679
   5  H       1.00    2.007050149    0.000000000   -0.139561679
   6  CL     17.00    0.000000000    0.000000000    4.092428633

 Bond lengths in Bohr (Angstrom)

 2-3  2.021258535  2-4  2.021258535  2-5  2.021258541  2-6  3.992750286
     ( 1.069603954)     ( 1.069603954)     ( 1.069603957)     ( 2.112872460)

 Bond angles

  3-2-4  118.61917631   3-2-5  118.61917664   3-2-6   96.79757334   4-2-5  118.61917664

  4-2-6   96.79757334   5-2-6   96.79757331

 NUCLEAR CHARGE:                   35
 NUMBER OF PRIMITIVE AOS:         117
 NUMBER OF SYMMETRY AOS:          114
 NUMBER OF CONTRACTIONS:           61   (   61A   )
 NUMBER OF INNER CORE ORBITALS:     1   (    1A   )
 NUMBER OF OUTER CORE ORBITALS:     6   (    6A   )
 NUMBER OF VALENCE ORBITALS:       15   (   15A   )


 NUCLEAR REPULSION ENERGY   86.10071454


 Eigenvalues of metric

         1 0.103E-01 0.165E-01 0.339E-01 0.339E-01 0.362E-01 0.415E-01 0.507E-01 0.507E-01


 Contracted 2-electron integrals neglected if value below      1.0D-11
 AO integral compression algorithm  1   Integral accuracy      1.0D-11

     6.029 MB (compressed) written to integral file ( 34.2%)


 NUMBER OF SORTED TWO-ELECTRON INTEGRALS:    1788886.     BUFFER LENGTH:  32768
 NUMBER OF SEGMENTS:   1  SEGMENT LENGTH:    1788886      RECORD LENGTH: 524288

 Memory used in sort:       2.35 MW

 SORT1 READ     2223908. AND WROTE     1152953. INTEGRALS IN      4 RECORDS. CPU TIME:     0.01 SEC, REAL TIME:     0.02 SEC
 SORT2 READ     1152953. AND WROTE     1788886. INTEGRALS IN     23 RECORDS. CPU TIME:     0.03 SEC, REAL TIME:     0.04 SEC

 FILE SIZES:   FILE 1:    36.2 MBYTE,  FILE 4:    16.8 MBYTE,   TOTAL:     53.1 MBYTE

 OPERATOR DM      FOR CENTER  0  COORDINATES:    0.000000    0.000000    0.000000


 **********************************************************************************************************************************
 DATASETS  * FILE   NREC   LENGTH (MB)   RECORD NAMES
              1      19       33.42       500      610      700      900      950      970     1000      129      960     1100   
                                          VAR    BASINP    GEOM    SYMINP    ZMAT    AOBASIS   BASIS     P2S    ABASIS      S 
                                         1400     1410     1200     1210     1080     1600     1650     1300     1700   
                                           T        V       H0       H01     AOSYM     SMH    MOLCAS    ERIS     OPER   

 PROGRAMS   *        TOTAL       INT
 CPU TIMES  *         0.33      0.24
 REAL TIME  *         2.39 SEC
 DISK USED  *        51.04 MB
 **********************************************************************************************************************************


 Program * Restricted Hartree-Fock

 Orbital guess generated from atomic densities. Full valence occupancy:   22

 Initial occupancy:  18

 NELEC=   36   SYM=1   MS2= 0   THRE=1.0D-08   THRD=3.2D-06   THRG=3.2D-06  HFMA2=F  DIIS_START=2   DIIS_MAX=10   DIIS_INCORE=F

 Level shifts:    0.00 (CLOSED)    0.00 (OPEN)    0.30 (GAP_MIN)

 ITER           ETOT              DE          GRAD        DDIFF     DIIS  NEXP   TIME(IT)  TIME(TOT)  DIAG
   1     -598.44215079    -598.44215079     0.00D+00     0.19D+00     0     0       0.00      0.01    start
   2     -598.49773021      -0.05557941     0.12D-01     0.28D-01     1     0       0.01      0.02    diag
   3     -598.52660539      -0.02887519     0.76D-02     0.94D-02     2     0       0.01      0.03    diag
   4     -598.52760215      -0.00099676     0.73D-03     0.25D-02     3     0       0.01      0.04    diag
   5     -598.52770744      -0.00010529     0.22D-03     0.92D-03     4     0       0.01      0.05    diag
   6     -598.52771811      -0.00001067     0.62D-04     0.26D-03     5     0       0.01      0.06    diag
   7     -598.52771877      -0.00000066     0.17D-04     0.76D-04     6     0       0.01      0.07    diag
   8     -598.52771879      -0.00000002     0.37D-05     0.13D-04     7     0       0.00      0.07    fixocc
   9     -598.52771879      -0.00000000     0.93D-06     0.28D-05     8     0       0.01      0.08    diag
  10     -598.52771879      -0.00000000     0.26D-06     0.73D-06     0     0       0.01      0.09    diag/orth

 Final occupancy:  18

 !RHF STATE 1.1 Energy               -598.527718794875
  RHF One-electron energy           -1008.836167138545
  RHF Two-electron energy             324.207733799835
  RHF Kinetic energy                  598.615323353855
  RHF Nuclear energy                   86.100714543835
  RHF Virial quotient                  -0.999853654667

 !RHF STATE 1.1 Dipole moment           0.00000000     0.00000000     0.28975206
 Dipole moment /Debye                   0.00000000     0.00000000     0.73647627

 Orbital energies:

           1.1          2.1          3.1          4.1          5.1          6.1          7.1          8.1          9.1         10.1
   -104.582710   -25.863523   -11.138571   -10.308194    -7.775055    -7.773339    -7.773339    -1.129722    -0.861744    -0.733860

          11.1         12.1         13.1         14.1         15.1         16.1         17.1         18.1         19.1         20.1
     -0.440474    -0.440474    -0.292876    -0.234639    -0.234639    -0.220898    -0.220898    -0.185387     0.351788     0.389101


 HOMO     18.1    -0.185387 =      -5.0446eV
 LUMO     19.1     0.351788 =       9.5726eV
 LUMO-HOMO         0.537175 =      14.6173eV

 Orbitals saved in record  2100.2


 **********************************************************************************************************************************
 DATASETS  * FILE   NREC   LENGTH (MB)   RECORD NAMES
              1      19       33.42       500      610      700      900      950      970     1000      129      960     1100   
                                          VAR    BASINP    GEOM    SYMINP    ZMAT    AOBASIS   BASIS     P2S    ABASIS      S 
                                         1400     1410     1200     1210     1080     1600     1650     1300     1700   
                                           T        V       H0       H01     AOSYM     SMH    MOLCAS    ERIS     OPER   

              2       4        0.52       700     1000      520     2100   
                                         GEOM     BASIS   MCVARS     RHF  

 PROGRAMS   *        TOTAL    HF-SCF       INT
 CPU TIMES  *         0.42      0.09      0.24
 REAL TIME  *         3.03 SEC
 DISK USED  *        51.04 MB
 **********************************************************************************************************************************


 PROGRAM * CCSD (Closed-shell coupled cluster)     Authors: C. Hampel, H.-J. Werner, 1991, M. Deegan, P.J. Knowles, 1992


 Convergence thresholds:  THRVAR = 1.00D-08  THRDEN = 1.00D-06

 CCSD(T)     terms to be evaluated (factor= 1.000)


 Number of core orbitals:           7 (   7 )
 Number of closed-shell orbitals:  11 (  11 )
 Number of external orbitals:      43 (  43 )

 Molecular orbitals read from record     2100.2  Type=RHF/CANONICAL  

 Number of N-1 electron functions:              11
 Number of N-2 electron functions:              66
 Number of singly external CSFs:               473
 Number of doubly external CSFs:            112101
 Total number of CSFs:                      112575

 Length of J-op  integral file:               0.00 MB
 Length of K-op  integral file:               0.32 MB
 Length of 3-ext integral record:             0.00 MB

 Memory could be reduced to 1.45 Mwords without degradation in triples

 Integral transformation finished. Total CPU:   0.04 sec, npass=  1  Memory used:   1.92 MW

 Reference energy:                   -598.52771879

 MP2 singlet pair energy:              -0.29708921
 MP2 triplet pair energy:              -0.18105540
 MP2 correlation energy:               -0.47814462
 MP2 total energy:                   -599.00586341

 SCS-MP2 correlation energy:           -0.46916375   (PS=  1.200000  PT=  0.333333)
 SCS-MP2 total energy:               -598.99688255

 ITER.      SQ.NORM     CORR.ENERGY   TOTAL ENERGY   ENERGY CHANGE        DEN1      VAR(S)    VAR(P)  DIIS     TIME  TIME/IT
   1      1.15763815    -0.50832705  -599.03604585    -0.03018243    -0.01678177  0.48D-02  0.24D-02  1  1     0.70     0.12
   2      1.16974858    -0.51031610  -599.03803489    -0.00198905    -0.01148444  0.14D-03  0.67D-03  2  2     0.82     0.14
   3      1.17699748    -0.51100710  -599.03872590    -0.00069100    -0.00299833  0.23D-03  0.41D-04  3  3     0.93     0.14
   4      1.18070164    -0.51109117  -599.03880997    -0.00008407    -0.00090679  0.62D-04  0.76D-05  4  4     1.06     0.15
   5      1.18349060    -0.51101712  -599.03873592     0.00007405    -0.00053139  0.61D-05  0.19D-05  5  5     1.18     0.15
   6      1.18454333    -0.51098653  -599.03870533     0.00003059    -0.00011775  0.12D-05  0.28D-06  6  6     1.30     0.15
   7      1.18472647    -0.51097958  -599.03869837     0.00000696    -0.00000223  0.21D-06  0.85D-07  6  1     1.41     0.15
   8      1.18482263    -0.51097364  -599.03869244     0.00000594    -0.00001218  0.70D-07  0.13D-07  6  2     1.53     0.15
   9      1.18482492    -0.51097437  -599.03869317    -0.00000073     0.00000508  0.32D-08  0.28D-08  6  4     1.65     0.15
  10      1.18483106    -0.51097410  -599.03869289     0.00000027    -0.00000099  0.43D-09  0.25D-09  6  3     1.76     0.15

 Norm of t1 vector:      0.12357776      S-energy:     0.00000031      T1 diagnostic:  0.01863005
                                                                       D1 diagnostic:  0.08316980
                                                                       D2 diagnostic:  0.15062220 (external, symmetry=1)

 Singles amplitudes (print threshold =  0.500E-01):

         I         SYM. A    A   T(IA)

         6         1         2     -0.05871328


 Total CPU time for triples:      0.45 sec


 RESULTS
 =======

  Reference energy                   -598.527718794876
  CCSD singlet pair energy             -0.343191472463
  CCSD triplet pair energy             -0.167782933783
  CCSD correlation energy              -0.510974099704

  Triples (T) contribution             -0.010372632084
  Total correlation energy             -0.521346731788

  CCSD total energy                  -599.038692894580
  CCSD[T] energy                     -599.050464860968
  CCSD-T energy                      -599.048682523871
 !CCSD(T) total energy               -599.049065526664

 Timing summary (sec):

 STEP                 CPU(USER)    SYS     CPU(TOT)    WALL
 Transformation          0.04      0.01      0.05      0.30
 CCSD iterations         1.74      0.10      1.84      1.79
 Triples                 0.45      0.03      0.48      0.53

 Program statistics:

 Available memory in ccsd:               805305866
 Min. memory needed in ccsd:                363005
 Max. memory used in ccsd:                  444581
 Max. memory used in cckext:                562933 (10 integral passes)



 **********************************************************************************************************************************
 DATASETS  * FILE   NREC   LENGTH (MB)   RECORD NAMES
              1      20       39.72       500      610      700      900      950      970     1000      129      960     1100   
                                          VAR    BASINP    GEOM    SYMINP    ZMAT    AOBASIS   BASIS     P2S    ABASIS      S 
                                         1400     1410     1200     1210     1080     1600     1650     1300     1700     1380   
                                           T        V       H0       H01     AOSYM     SMH    MOLCAS    ERIS     OPER     JKOP   

              2       4        0.52       700     1000      520     2100   
                                         GEOM     BASIS   MCVARS     RHF  

 PROGRAMS   *        TOTAL   CCSD(T)    HF-SCF       INT
 CPU TIMES  *         2.13      1.71      0.09      0.24
 REAL TIME  *         5.93 SEC
 DISK USED  *        60.22 MB
 **********************************************************************************************************************************

 Dump information in style XML to xml output                                                                      

 Orbitals will not be exported.

 **********************************************************************************************************************************

 CCSD(T)/cc-pVDZ energy=   -599.049065526664

         CCSD(T)          HF-SCF
   -599.04906553   -598.52771879
 **********************************************************************************************************************************
 Molpro calculation terminated
