
 Working directory              : /var/folders/2v/xbgp75_9785319ghcgb4zr4r0000gp/T//molpro.eKKSzV5Hiq/
 Global scratch directory       : /var/folders/2v/xbgp75_9785319ghcgb4zr4r0000gp/T//molpro.eKKSzV5Hiq/
 Wavefunction directory         : /Users/sacpjk/wfu/
 Main file repository           : /var/folders/2v/xbgp75_9785319ghcgb4zr4r0000gp/T//molpro.eKKSzV5Hiq/

 id        : peterk

 Nodes                        nprocs
 Cardiff-University-G34YLXT77Y    1
 GA implementation: MPI file
 GA implementation (serial work in mppx): MPI file

 Using customized tuning parameters: mindgm=1; mindgv=20; mindgc=4; mindgr=1; noblas=0; minvec=7
 default implementation of scratch files=df  


 Variables initialized (1032), CPU time= 0.00 sec
 
 symmetry,nosym
 
 
 geometry={
           18
     SI         1.91873897     -1.10778446      0.38779602
     SI         1.91873897      1.10778446     -0.38779602
     SI         0.00000000      2.21556892      0.38779602
     SI        -1.91873897      1.10778446     -0.38779602
     SI        -1.91873897     -1.10778446      0.38779602
     SI         0.00000000     -2.21556892     -0.38779602
     H          1.89826779     -1.09596542      1.87596105
     H          3.15145900     -1.81949570     -0.04784335
     H          3.15145900      1.81949570      0.04784335
     H          1.89826779      1.09596542     -1.87596105
     H          0.00000000      3.63899140     -0.04784335
     H          0.00000000      2.19193084      1.87596105
     H         -3.15145900      1.81949570      0.04784335
     H         -1.89826779      1.09596542     -1.87596105
     H         -3.15145900     -1.81949570     -0.04784335
     H         -1.89826779     -1.09596542      1.87596105
     H          0.00000000     -2.19193084     -1.87596105
     H          0.00000000     -3.63899140      0.04784335
 }
 basis=cc-pVTZ
 
 
 
 hf; ccsd(t)
 
 
 
 {put,xml;noorbitals,nobasis}
 Commands initialized (841), CPU time= 0.01 sec, 704 directives.
 Default parameters read. Elapsed time= 3.26 sec

 Checking input...
 Passed
1


                                         ***  PROGRAM SYSTEM MOLPRO  ***
                                       Copyright, TTI GmbH Stuttgart, 2015
                                    Version 2023.1 linked Tue Jun  6 09:54:11 2023


 **********************************************************************************************************************************
 LABEL *                                                                                                                                                                 
  64 bit serial version                                                                  DATE: 13-Jun-23          TIME: 12:11:46  
 **********************************************************************************************************************************

 SHA1:             8ebb0dd001088a5c915591db1a321413035db0b1
 **********************************************************************************************************************************

 Memory per process:       393 MW
 Total memory per node:    524 MW
 Total GA space:           131 MW

 GA preallocation disabled
 GA check enabled

 Variable memory set to 393.2 MW

 ZSYMEL=NOSYM


 Geometry recognized as XYZ

 SETTING BASIS          =    CC-PVTZ


 Recomputing integrals since basis changed


 Using spherical harmonics

 Library entry SI     S cc-pVTZ              selected for orbital group  1
 Library entry SI     P cc-pVTZ              selected for orbital group  1
 Library entry SI     D cc-pVTZ              selected for orbital group  1
 Library entry SI     F cc-pVTZ              selected for orbital group  1
 Library entry H      S cc-pVTZ              selected for orbital group  2
 Library entry H      P cc-pVTZ              selected for orbital group  2
 Library entry H      D cc-pVTZ              selected for orbital group  2


 PROGRAM * SEWARD (Integral evaluation for generally contracted gaussian basis sets)     Author: Roland Lindh, 1990

 Geometry written to block  1 of record 700


 Point group  C1  



 ATOMIC COORDINATES

 NR  ATOM    CHARGE       X              Y              Z

   1  SI     14.00    3.625891158   -2.093409235    0.732828270
   2  SI     14.00    3.625891158    2.093409235   -0.732828270
   3  SI     14.00    0.000000000    4.186818469    0.732828270
   4  SI     14.00   -3.625891158    2.093409235   -0.732828270
   5  SI     14.00   -3.625891158   -2.093409235    0.732828270
   6  SI     14.00    0.000000000   -4.186818469   -0.732828270
   7  H       1.00    3.587206234   -2.071074486    3.545052605
   8  H       1.00    5.955394403   -3.438348558   -0.090410828
   9  H       1.00    5.955394403    3.438348558    0.090410828
  10  H       1.00    3.587206234    2.071074486   -3.545052605
  11  H       1.00    0.000000000    6.876697116   -0.090410828
  12  H       1.00    0.000000000    4.142148972    3.545052605
  13  H       1.00   -5.955394403    3.438348558    0.090410828
  14  H       1.00   -3.587206234    2.071074486   -3.545052605
  15  H       1.00   -5.955394403   -3.438348558   -0.090410828
  16  H       1.00   -3.587206234   -2.071074486    3.545052605
  17  H       1.00    0.000000000   -4.142148972   -3.545052605
  18  H       1.00    0.000000000   -6.876697116    0.090410828

 Bond lengths in Bohr (Angstrom)

 1-2  4.435943866  1-6  4.435943869  1-7  2.812579079  1-8  2.813035685  2-3  4.435943869
     ( 2.347400403)     ( 2.347400404)     ( 1.488352752)     ( 1.488594378)     ( 2.347400404)

  2- 9  2.813035685   2-10  2.812579079   3- 4  4.435943869   3-11  2.813035682   3-12  2.812579079
       ( 1.488594378)       ( 1.488352752)       ( 2.347400404)       ( 1.488594376)       ( 1.488352752)

  4- 5  4.435943866   4-13  2.813035685   4-14  2.812579079   5- 6  4.435943869   5-15  2.813035685
       ( 2.347400403)       ( 1.488594378)       ( 1.488352752)       ( 2.347400404)       ( 1.488594378)

  5-16  2.812579079   6-17  2.812579079   6-18  2.813035682
       ( 1.488352752)       ( 1.488352752)       ( 1.488594376)

 Bond angles

  1- 2- 3  109.64851526   1- 2- 9  110.76680076   1- 2-10  108.83645485   1- 6- 5  109.64851531

  1- 6-17  108.83645484   1- 6-18  110.76680078   2- 1- 6  109.64851526   2- 1- 7  108.83645485

  2- 1- 8  110.76680076   2- 3- 4  109.64851531   2- 3-11  110.76680078   2- 3-12  108.83645484

  3- 2- 9  110.76680085   3- 2-10  108.83645476   3- 4- 5  109.64851526   3- 4-13  110.76680085

  3- 4-14  108.83645476   4- 3-11  110.76680078   4- 3-12  108.83645484   4- 5- 6  109.64851526

  4- 5-15  110.76680076   4- 5-16  108.83645485   5- 4-13  110.76680076   5- 4-14  108.83645485

  5- 6-17  108.83645484   5- 6-18  110.76680078   6- 1- 7  108.83645476   6- 1- 8  110.76680085

  6- 5-15  110.76680085   6- 5-16  108.83645476   7- 1- 8  107.92677630   9- 2-10  107.92677630

 11- 3-12  107.92677624  13- 4-14  107.92677630  15- 5-16  107.92677630  17- 6-18  107.92677624

 NUCLEAR CHARGE:                   96
 NUMBER OF PRIMITIVE AOS:         588
 NUMBER OF SYMMETRY AOS:          546
 NUMBER OF CONTRACTIONS:          372   (  372A   )
 NUMBER OF INNER CORE ORBITALS:     6   (    6A   )
 NUMBER OF OUTER CORE ORBITALS:    24   (   24A   )
 NUMBER OF VALENCE ORBITALS:       36   (   36A   )


 NUCLEAR REPULSION ENERGY  675.86517828


 Eigenvalues of metric

         1 0.826E-03 0.836E-03 0.836E-03 0.124E-02 0.126E-02 0.126E-02 0.182E-02 0.182E-02


 Contracted 2-electron integrals neglected if value below      1.0D-11
 AO integral compression algorithm  1   Integral accuracy      1.0D-11

     5411.439 MB (compressed) written to integral file ( 29.9%)


 NUMBER OF SORTED TWO-ELECTRON INTEGRALS: 2406688131.     BUFFER LENGTH:  32768
 NUMBER OF SEGMENTS:  76  SEGMENT LENGTH:   31999951      RECORD LENGTH: 262144

 Memory used in sort:      32.29 MW

 SORT1 READ  2259646084. AND WROTE  1550342305. INTEGRALS IN   8909 RECORDS. CPU TIME:    19.41 SEC, REAL TIME:    25.22 SEC
 SORT2 READ  1550342305. AND WROTE  2406688131. INTEGRALS IN  20643 RECORDS. CPU TIME:    14.10 SEC, REAL TIME:    19.36 SEC

 FILE SIZES:   FILE 1:  5446.9 MBYTE,  FILE 4: 18683.6 MBYTE,   TOTAL:  24130.4 MBYTE

 OPERATOR DM      FOR CENTER  0  COORDINATES:    0.000000    0.000000    0.000000


 **********************************************************************************************************************************
 DATASETS  * FILE   NREC   LENGTH (MB)   RECORD NAMES
              1      19     4691.19       500      610      700      900      950      970     1000      129      960     1100   
                                          VAR    BASINP    GEOM    SYMINP    ZMAT    AOBASIS   BASIS     P2S    ABASIS      S 
                                         1400     1410     1200     1210     1080     1600     1650     1300     1700   
                                           T        V       H0       H01     AOSYM     SMH    MOLCAS    ERIS     OPER   

 PROGRAMS   *        TOTAL       INT
 CPU TIMES  *        91.33     91.24
 REAL TIME  *       113.89 SEC
 DISK USED  *        22.47 GB
 **********************************************************************************************************************************


 Program * Restricted Hartree-Fock

 Orbital guess generated from atomic densities. Full valence occupancy:   66

 Initial occupancy:  48

 NELEC=   96   SYM=1   MS2= 0   THRE=1.0D-08   THRD=3.2D-06   THRG=3.2D-06  HFMA2=F  DIIS_START=2   DIIS_MAX=10   DIIS_INCORE=F

 Level shifts:    0.00 (CLOSED)    0.00 (OPEN)    0.30 (GAP_MIN)

 ITER           ETOT              DE          GRAD        DDIFF     DIIS  NEXP   TIME(IT)  TIME(TOT)  DIAG
   1    -1740.58681989   -1740.58681989     0.00D+00     0.50D-01     0     0      12.50     23.76    start
   2    -1740.65691912      -0.07009923     0.13D-02     0.23D-02     1     0      12.53     36.29    diag

 GLOBAL ERROR fehler on processor   0                                         
