
 Working directory              : /var/folders/2v/xbgp75_9785319ghcgb4zr4r0000gp/T//molpro.ECVhRqEFJU/
 Global scratch directory       : /var/folders/2v/xbgp75_9785319ghcgb4zr4r0000gp/T//molpro.ECVhRqEFJU/
 Wavefunction directory         : /Users/sacpjk/wfu/
 Main file repository           : /var/folders/2v/xbgp75_9785319ghcgb4zr4r0000gp/T//molpro.ECVhRqEFJU/

 id        : peterk

 Nodes                        nprocs
 Cardiff-University-G34YLXT77Y    1
 GA implementation: MPI file
 GA implementation (serial work in mppx): MPI file

 Using customized tuning parameters: mindgm=1; mindgv=20; mindgc=4; mindgr=1; noblas=0; minvec=7
 default implementation of scratch files=df  


 Variables initialized (1032), CPU time= 0.00 sec
 
 symmetry,nosym
 
 
 geometry={
            6
     C         -0.62421620      0.28593985      0.00000000
     H         -0.68092146      1.36354307      0.00000000
     H         -1.48969207     -0.35847391      0.00000000
     N          0.55573802     -0.26924615      0.00000000
     H          0.55369001     -1.30176739      0.00000000
     O          1.68540169      0.28000452      0.00000000
 }
 basis=cc-pVDZ
 
 
 
 hf; mp3
 
 
 
 {put,xml;noorbitals,nobasis}
 Commands initialized (841), CPU time= 0.01 sec, 704 directives.
 Default parameters read. Elapsed time= 0.42 sec

 Checking input...
 Passed
1


                                         ***  PROGRAM SYSTEM MOLPRO  ***
                                       Copyright, TTI GmbH Stuttgart, 2015
                                    Version 2023.1 linked Tue Jun  6 09:54:11 2023


 **********************************************************************************************************************************
 LABEL *                                                                                                                                                                 
  64 bit serial version                                                                  DATE: 10-Jun-23          TIME: 16:22:25  
 **********************************************************************************************************************************

 SHA1:             8ebb0dd001088a5c915591db1a321413035db0b1
 **********************************************************************************************************************************

 Memory per process:       805 MW
 Total memory per node:   1074 MW
 Total GA space:           268 MW

 GA preallocation disabled
 GA check enabled

 Variable memory set to 805.3 MW

 ZSYMEL=NOSYM


 Geometry recognized as XYZ

 SETTING BASIS          =    CC-PVDZ


 Recomputing integrals since basis changed


 Using spherical harmonics

 Library entry C      S cc-pVDZ              selected for orbital group  1
 Library entry C      P cc-pVDZ              selected for orbital group  1
 Library entry C      D cc-pVDZ              selected for orbital group  1
 Library entry H      S cc-pVDZ              selected for orbital group  2
 Library entry H      P cc-pVDZ              selected for orbital group  2
 Library entry N      S cc-pVDZ              selected for orbital group  3
 Library entry N      P cc-pVDZ              selected for orbital group  3
 Library entry N      D cc-pVDZ              selected for orbital group  3
 Library entry O      S cc-pVDZ              selected for orbital group  5
 Library entry O      P cc-pVDZ              selected for orbital group  5
 Library entry O      D cc-pVDZ              selected for orbital group  5


 PROGRAM * SEWARD (Integral evaluation for generally contracted gaussian basis sets)     Author: Roland Lindh, 1990

 Geometry written to block  1 of record 700


 Point group  C1  



 ATOMIC COORDINATES

 NR  ATOM    CHARGE       X              Y              Z

   1  C       6.00   -1.179597661    0.540348005    0.000000000
   2  H       1.00   -1.286755072    2.576722961    0.000000000
   3  H       1.00   -2.815110022   -0.677417513    0.000000000
   4  N       7.00    1.050192655   -0.508801484    0.000000000
   5  H       1.00    1.046322477   -2.459983845    0.000000000
   6  O       8.00    3.184947604    0.529131856    0.000000000

 Bond lengths in Bohr (Angstrom)

 1-2  2.039192408  1-3  2.039081543  1-4  2.464280727  4-5  1.951186200  4-6  2.373706871
     ( 1.079094151)     ( 1.079035484)     ( 1.304041202)     ( 1.032523271)     ( 1.256111582)

 Bond angles

  1-4-5  115.08403562   1-4-6  128.87296113   2-1-3  123.65831583   2-1-4  118.20990210

  3-1-4  118.13178207   5-4-6  116.04300324

 NUCLEAR CHARGE:                   24
 NUMBER OF PRIMITIVE AOS:         102
 NUMBER OF SYMMETRY AOS:           99
 NUMBER OF CONTRACTIONS:           57   (   57A   )
 NUMBER OF INNER CORE ORBITALS:     0   (    0A   )
 NUMBER OF OUTER CORE ORBITALS:     3   (    3A   )
 NUMBER OF VALENCE ORBITALS:       15   (   15A   )


 NUCLEAR REPULSION ENERGY   72.13301824

 EXTRA SYMMETRY OF AOS IN SYMMETRY 1:   1 1 1 1 1 2 1 1 2 1   1 2 1 2 1 1 1 1 2 1   1 1 1 2 1 1 1 1 1 2   1 1 2 1 1 2 1 2 1 1
                                        1 1 2 1 1 1 1 1 2 1   1 2 1 1 2 1 2

 Eigenvalues of metric

         1 0.610E-02 0.808E-02 0.176E-01 0.225E-01 0.350E-01 0.388E-01 0.426E-01 0.530E-01


 Contracted 2-electron integrals neglected if value below      1.0D-11
 AO integral compression algorithm  1   Integral accuracy      1.0D-11

     4.456 MB (compressed) written to integral file ( 33.2%)


 NUMBER OF SORTED TWO-ELECTRON INTEGRALS:    1367031.     BUFFER LENGTH:  32768
 NUMBER OF SEGMENTS:   1  SEGMENT LENGTH:    1367031      RECORD LENGTH: 524288

 Memory used in sort:       1.92 MW

 SORT1 READ     1671734. AND WROTE      715223. INTEGRALS IN      3 RECORDS. CPU TIME:     0.01 SEC, REAL TIME:     0.01 SEC
 SORT2 READ      715223. AND WROTE     1367031. INTEGRALS IN     17 RECORDS. CPU TIME:     0.03 SEC, REAL TIME:     0.03 SEC

 FILE SIZES:   FILE 1:    34.6 MBYTE,  FILE 4:    12.6 MBYTE,   TOTAL:     47.3 MBYTE

 OPERATOR DM      FOR CENTER  0  COORDINATES:    0.000000    0.000000    0.000000


 **********************************************************************************************************************************
 DATASETS  * FILE   NREC   LENGTH (MB)   RECORD NAMES
              1      19       32.10       500      610      700      900      950      970     1000      129      960     1100   
                                          VAR    BASINP    GEOM    SYMINP    ZMAT    AOBASIS   BASIS     P2S    ABASIS      S 
                                         1400     1410     1200     1210     1080     1600     1650     1300     1700   
                                           T        V       H0       H01     AOSYM     SMH    MOLCAS    ERIS     OPER   

 PROGRAMS   *        TOTAL       INT
 CPU TIMES  *         0.30      0.21
 REAL TIME  *         4.08 SEC
 DISK USED  *        45.52 MB
 **********************************************************************************************************************************


 Program * Restricted Hartree-Fock

 Orbital guess generated from atomic densities. Full valence occupancy:   18

 Initial occupancy:  12

 NELEC=   24   SYM=1   MS2= 0   THRE=1.0D-08   THRD=3.2D-06   THRG=3.2D-06  HFMA2=F  DIIS_START=2   DIIS_MAX=10   DIIS_INCORE=F

 Level shifts:    0.00 (CLOSED)    0.00 (OPEN)    0.30 (GAP_MIN)

 ITER           ETOT              DE          GRAD        DDIFF     DIIS  NEXP   TIME(IT)  TIME(TOT)  DIAG
   1     -168.73183408    -168.73183408     0.00D+00     0.15D+00     0     0       0.01      0.01    start
   2     -168.77801059      -0.04617651     0.14D-01     0.29D-01     1     0       0.00      0.01    diag
   3     -168.82388132      -0.04587073     0.11D-01     0.13D-01     2     0       0.01      0.02    diag
   4     -168.82475043      -0.00086911     0.12D-02     0.24D-02     3     0       0.01      0.03    diag
   5     -168.82492981      -0.00017938     0.52D-03     0.96D-03     4     0       0.00      0.03    diag
   6     -168.82496191      -0.00003210     0.19D-03     0.34D-03     5     0       0.01      0.04    diag
   7     -168.82496881      -0.00000690     0.61D-04     0.19D-03     6     0       0.01      0.05    diag
   8     -168.82496943      -0.00000062     0.17D-04     0.63D-04     7     0       0.00      0.05    fixocc
   9     -168.82496949      -0.00000005     0.57D-05     0.18D-04     8     0       0.01      0.06    diag
  10     -168.82496949      -0.00000001     0.22D-05     0.79D-05     9     0       0.01      0.07    diag/orth
  11     -168.82496949      -0.00000000     0.67D-06     0.23D-05     9     0       0.00      0.07    diag
  12     -168.82496949      -0.00000000     0.14D-06     0.31D-06     0     0       0.01      0.08    diag

 Final occupancy:  12

 !RHF STATE 1.1 Energy               -168.824969494487
  RHF One-electron energy            -373.066685027800
  RHF Two-electron energy             132.108697295251
  RHF Kinetic energy                  168.654699053897
  RHF Nuclear energy                   72.133018238062
  RHF Virial quotient                  -1.001009580175

 !RHF STATE 1.1 Dipole moment          -1.50934766    -0.77210389     0.00000000
 Dipole moment /Debye                  -3.83637908    -1.96249234     0.00000000

 Orbital energies:

           1.1          2.1          3.1          4.1          5.1          6.1          7.1          8.1          9.1         10.1
    -20.514767   -15.737244   -11.296023    -1.453724    -1.154016    -0.892352    -0.748720    -0.665259    -0.614187    -0.585729

          11.1         12.1         13.1         14.1
     -0.422328    -0.340293     0.123586     0.160672


 HOMO     12.1    -0.340293 =      -9.2598eV
 LUMO     13.1     0.123586 =       3.3629eV
 LUMO-HOMO         0.463878 =      12.6228eV

 Orbitals saved in record  2100.2


 **********************************************************************************************************************************
 DATASETS  * FILE   NREC   LENGTH (MB)   RECORD NAMES
              1      19       32.10       500      610      700      900      950      970     1000      129      960     1100   
                                          VAR    BASINP    GEOM    SYMINP    ZMAT    AOBASIS   BASIS     P2S    ABASIS      S 
                                         1400     1410     1200     1210     1080     1600     1650     1300     1700   
                                           T        V       H0       H01     AOSYM     SMH    MOLCAS    ERIS     OPER   

              2       4        0.51       700     1000      520     2100   
                                         GEOM     BASIS   MCVARS     RHF  

 PROGRAMS   *        TOTAL    HF-SCF       INT
 CPU TIMES  *         0.38      0.08      0.21
 REAL TIME  *         4.73 SEC
 DISK USED  *        45.52 MB
 **********************************************************************************************************************************


 PROGRAM * MP3 (Closed-shell)     Authors: C. Hampel, H.-J. Werner, 1991, M. Deegan, P.J. Knowles, 1992


 Convergence thresholds:  THRVAR = 1.00D-08  THRDEN = 1.00D-06

 Number of core orbitals:           3 (   3 )
 Number of closed-shell orbitals:   9 (   9 )
 Number of external orbitals:      45 (  45 )

 Molecular orbitals read from record     2100.2  Type=RHF/CANONICAL  

 Number of N-1 electron functions:               9
 Number of N-2 electron functions:              45
 Number of singly external CSFs:               405
 Number of doubly external CSFs:             82215
 Total number of CSFs:                       82621

 Length of J-op  integral file:               0.00 MB
 Length of K-op  integral file:               0.29 MB

 Integral transformation finished. Total CPU:   0.02 sec, npass=  1  Memory used:   0.36 MW

 Reference energy:                   -168.82496949

                        CORR.ENERGY   TOTAL ENERGY   ENERGY CHANGE
 MP2:                   -0.50316757  -169.32813707    -0.50316757

 SCS-MP2 correlation energy:           -0.49087554   (PS=  1.200000  PT=  0.333333)
 SCS-MP2 total energy:               -169.31584504

 MP3(D):                -0.51073522  -169.33570472    -0.00756765



 RESULTS
 =======

  Reference energy                   -168.824969494487
  MP3 singlet pair energy              -0.336399945285
  MP3 triplet pair energy              -0.174335276846
  MP3 correlation energy               -0.510735222132

 !MP3 total energy                   -169.335704716619

 Timing summary (sec):

 STEP                 CPU(USER)    SYS     CPU(TOT)    WALL
 Transformation          0.02      0.00      0.02      0.18
 CCSD iterations         0.54      0.00      0.54      0.29

 Program statistics:

 Available memory in ccsd:               805306032
 Min. memory needed in ccsd:                269356
 Max. memory used in ccsd:                  331645
 Max. memory used in cckext:                352940 ( 1 integral passes)



 **********************************************************************************************************************************
 DATASETS  * FILE   NREC   LENGTH (MB)   RECORD NAMES
              1      20       33.83       500      610      700      900      950      970     1000      129      960     1100   
                                          VAR    BASINP    GEOM    SYMINP    ZMAT    AOBASIS   BASIS     P2S    ABASIS      S 
                                         1400     1410     1200     1210     1080     1600     1650     1300     1700     1380   
                                           T        V       H0       H01     AOSYM     SMH    MOLCAS    ERIS     OPER     JKOP   

              2       4        0.51       700     1000      520     2100   
                                         GEOM     BASIS   MCVARS     RHF  

 PROGRAMS   *        TOTAL       MP3    HF-SCF       INT
 CPU TIMES  *         0.48      0.09      0.08      0.21
 REAL TIME  *         5.36 SEC
 DISK USED  *        45.52 MB
 **********************************************************************************************************************************

 Dump information in style XML to xml output                                                                      

 Orbitals will not be exported.

 **********************************************************************************************************************************

 MP3/cc-pVDZ energy=   -169.335704716619

             MP3          HF-SCF
   -169.33570472   -168.82496949
 **********************************************************************************************************************************
 Molpro calculation terminated
