
 Working directory              : /var/folders/2v/xbgp75_9785319ghcgb4zr4r0000gp/T//molpro.gNsvFCWXd3/
 Global scratch directory       : /var/folders/2v/xbgp75_9785319ghcgb4zr4r0000gp/T//molpro.gNsvFCWXd3/
 Wavefunction directory         : /Users/sacpjk/wfu/
 Main file repository           : /var/folders/2v/xbgp75_9785319ghcgb4zr4r0000gp/T//molpro.gNsvFCWXd3/

 id        : peterk

 Nodes                        nprocs
 Cardiff-University-G34YLXT77Y    1
 GA implementation: MPI file
 GA implementation (serial work in mppx): MPI file

 Using customized tuning parameters: mindgm=1; mindgv=20; mindgc=4; mindgr=1; noblas=0; minvec=7
 default implementation of scratch files=df  


 Variables initialized (1032), CPU time= 0.00 sec
 
 symmetry,nosym
 
 
 geometry={
           16
     C          0.21201045     -0.48957299      0.56019014
     C         -0.21306270      0.49020536     -0.56049526
     C          0.44094453      0.18131125     -1.87943573
     C         -0.20248370     -0.15111787     -2.99914113
     C         -0.44094578     -0.17994088      1.87947861
     C          0.20355845      0.14962224      2.99941201
     H         -0.05302664     -1.50888335      0.24377002
     H          1.30395084     -0.46896998      0.67310018
     H         -1.30491609      0.46878935     -0.67408830
     H          0.05105039      1.50962573     -0.24368515
     H          1.53174992      0.22833727     -1.89003674
     H         -1.28860708     -0.21254389     -3.03699714
     H          0.32767449     -0.37021894     -3.92227346
     H         -1.53187817     -0.22397589      1.89020561
     H         -0.32586574      0.36924632      3.92284033
     H          1.28984683      0.20808626      3.03715602
 }
 basis=cc-pVDZ
 
 
 
 hf; mp4
 
 
 
 {put,xml;noorbitals,nobasis}
 Commands initialized (841), CPU time= 0.01 sec, 704 directives.
 Default parameters read. Elapsed time= 2.59 sec

 Checking input...
 Passed
1


                                         ***  PROGRAM SYSTEM MOLPRO  ***
                                       Copyright, TTI GmbH Stuttgart, 2015
                                    Version 2023.1 linked Tue Jun  6 09:54:11 2023


 **********************************************************************************************************************************
 LABEL *                                                                                                                                                                 
  64 bit serial version                                                                  DATE: 10-Jun-23          TIME: 18:50:32  
 **********************************************************************************************************************************

 SHA1:             8ebb0dd001088a5c915591db1a321413035db0b1
 **********************************************************************************************************************************

 Memory per process:       805 MW
 Total memory per node:   1074 MW
 Total GA space:           268 MW

 GA preallocation disabled
 GA check enabled

 Variable memory set to 805.3 MW

 ZSYMEL=NOSYM


 Geometry recognized as XYZ

 SETTING BASIS          =    CC-PVDZ


 Recomputing integrals since basis changed


 Using spherical harmonics

 Library entry C      S cc-pVDZ              selected for orbital group  1
 Library entry C      P cc-pVDZ              selected for orbital group  1
 Library entry C      D cc-pVDZ              selected for orbital group  1
 Library entry H      S cc-pVDZ              selected for orbital group  2
 Library entry H      P cc-pVDZ              selected for orbital group  2


 PROGRAM * SEWARD (Integral evaluation for generally contracted gaussian basis sets)     Author: Roland Lindh, 1990

 Geometry written to block  1 of record 700


 Point group  C1  



 ATOMIC COORDINATES

 NR  ATOM    CHARGE       X              Y              Z

   1  C       6.00    0.400641686   -0.925158869    1.058605942
   2  C       6.00   -0.402630150    0.926353875   -1.059182536
   3  C       6.00    0.833264398    0.342628606   -3.551618799
   4  C       6.00   -0.382638738   -0.285571387   -5.667555345
   5  C       6.00   -0.833266760   -0.340038982    3.551699830
   6  C       6.00    0.384669721    0.282745056    5.668067234
   7  H       1.00   -0.100205827   -2.851376286    0.460658575
   8  H       1.00    2.464109968   -0.886224823    1.271974995
   9  H       1.00   -2.465934026    0.885883482   -1.273842271
  10  H       1.00    0.096471256    2.852779180   -0.460498194
  11  H       1.00    2.894587840    0.431494904   -3.571651804
  12  H       1.00   -2.435114463   -0.401649742   -5.739092836
  13  H       1.00    0.619215044   -0.699612403   -7.412022625
  14  H       1.00   -2.894830198   -0.423253091    3.571970922
  15  H       1.00   -0.615797002    0.697774417    7.413093854
  16  H       1.00    2.437457251    0.393226042    5.739393076

 Bond lengths in Bohr (Angstrom)

 1-2  2.925469727  1-5  2.842606633  1-7  2.078148893  1-8  2.074835791  2-3  2.842606031
     ( 1.548091911)     ( 1.504242650)     ( 1.099709035)     ( 1.097955817)     ( 1.504242331)

  2- 9  2.074834822   2-10  2.078133684   3- 4  2.519968876   3-11  2.063335376   4-12  2.056999855
       ( 1.097955304)       ( 1.099700987)       ( 1.333510101)       ( 1.091870059)       ( 1.088517446)

  4-13  2.053851761   5- 6  2.519968297   5-14  2.063341783   6-15  2.053850272   6-16  2.056995399
       ( 1.086851546)       ( 1.333509795)       ( 1.091873450)       ( 1.086850759)       ( 1.088515088)

 Bond angles

  1- 2- 3  112.66819098   1- 2- 9  109.60921989   1- 2-10  108.19161320   1- 5- 6  125.28558186

  1- 5-14  115.72277759   2- 1- 5  112.67121694   2- 1- 7  108.18922602   2- 1- 8  109.61164772

  2- 3- 4  125.28480975   2- 3-11  115.72295421   3- 2- 9  109.73312352   3- 2-10  109.78780825

  3- 4-12  121.64907226   3- 4-13  121.87545710   4- 3-11  118.98764627   5- 1- 7  109.78722094

  5- 1- 8  109.73335793   5- 6-15  121.87497903   5- 6-16  121.64943497   6- 5-14  118.98717432

  7- 1- 8  106.65860238   9- 2-10  106.66168499  12- 4-13  116.47484984  15- 6-16  116.47497343

 NUCLEAR CHARGE:                   46
 NUMBER OF PRIMITIVE AOS:         232
 NUMBER OF SYMMETRY AOS:          226
 NUMBER OF CONTRACTIONS:          134   (  134A   )
 NUMBER OF INNER CORE ORBITALS:     0   (    0A   )
 NUMBER OF OUTER CORE ORBITALS:     6   (    6A   )
 NUMBER OF VALENCE ORBITALS:       34   (   34A   )


 NUCLEAR REPULSION ENERGY  211.48477282


 Eigenvalues of metric

         1 0.172E-02 0.250E-02 0.256E-02 0.445E-02 0.793E-02 0.131E-01 0.140E-01 0.156E-01


 Contracted 2-electron integrals neglected if value below      1.0D-11
 AO integral compression algorithm  1   Integral accuracy      1.0D-11

     147.325 MB (compressed) written to integral file ( 45.2%)


 NUMBER OF SORTED TWO-ELECTRON INTEGRALS:   40910535.     BUFFER LENGTH:  32768
 NUMBER OF SEGMENTS:   3  SEGMENT LENGTH:   15998004      RECORD LENGTH: 524288

 Memory used in sort:      16.56 MW

 SORT1 READ    40783166. AND WROTE    35240703. INTEGRALS IN    102 RECORDS. CPU TIME:     0.31 SEC, REAL TIME:     0.42 SEC
 SORT2 READ    35240703. AND WROTE    40910535. INTEGRALS IN    562 RECORDS. CPU TIME:     0.33 SEC, REAL TIME:     0.40 SEC

 FILE SIZES:   FILE 1:   178.3 MBYTE,  FILE 4:   427.9 MBYTE,   TOTAL:    606.1 MBYTE

 OPERATOR DM      FOR CENTER  0  COORDINATES:    0.000000    0.000000    0.000000


 **********************************************************************************************************************************
 DATASETS  * FILE   NREC   LENGTH (MB)   RECORD NAMES
              1      19      155.02       500      610      700      900      950      970     1000      129      960     1100   
                                          VAR    BASINP    GEOM    SYMINP    ZMAT    AOBASIS   BASIS     P2S    ABASIS      S 
                                         1400     1410     1200     1210     1080     1600     1650     1300     1700   
                                           T        V       H0       H01     AOSYM     SMH    MOLCAS    ERIS     OPER   

 PROGRAMS   *        TOTAL       INT
 CPU TIMES  *         2.41      2.31
 REAL TIME  *         8.64 SEC
 DISK USED  *       578.66 MB
 **********************************************************************************************************************************


 Program * Restricted Hartree-Fock

 Orbital guess generated from atomic densities. Full valence occupancy:   40

 Initial occupancy:  23

 NELEC=   46   SYM=1   MS2= 0   THRE=1.0D-08   THRD=3.2D-06   THRG=3.2D-06  HFMA2=F  DIIS_START=2   DIIS_MAX=10   DIIS_INCORE=F

 Level shifts:    0.00 (CLOSED)    0.00 (OPEN)    0.30 (GAP_MIN)

 ITER           ETOT              DE          GRAD        DDIFF     DIIS  NEXP   TIME(IT)  TIME(TOT)  DIAG
   1     -232.93352758    -232.93352758     0.00D+00     0.90D-01     0     0       0.18      0.36    start
   2     -232.99664397      -0.06311639     0.39D-02     0.84D-02     1     0       0.19      0.55    diag
   3     -233.00269080      -0.00604683     0.13D-02     0.29D-02     2     0       0.20      0.75    diag
   4     -233.00347564      -0.00078484     0.40D-03     0.99D-03     3     0       0.19      0.94    diag
   5     -233.00349067      -0.00001503     0.54D-04     0.16D-03     4     0       0.19      1.13    diag
   6     -233.00349217      -0.00000150     0.19D-04     0.43D-04     5     0       0.18      1.31    diag
   7     -233.00349236      -0.00000019     0.64D-05     0.15D-04     6     0       0.19      1.50    diag
   8     -233.00349238      -0.00000002     0.15D-05     0.54D-05     7     0       0.19      1.69    fixocc
   9     -233.00349238      -0.00000000     0.56D-06     0.18D-05     8     0       0.19      1.88    diag
  10     -233.00349238      -0.00000000     0.16D-06     0.38D-06     0     0       0.19      2.07    diag/orth

 Final occupancy:  23

 !RHF STATE 1.1 Energy               -233.003492378280
  RHF One-electron energy            -731.784180579856
  RHF Two-electron energy             287.295915378247
  RHF Kinetic energy                  232.627871039637
  RHF Nuclear energy                  211.484772823329
  RHF Virial quotient                  -1.001614687599

 !RHF STATE 1.1 Dipole moment          -0.00006130     0.00003350    -0.00006247
 Dipole moment /Debye                  -0.00015581     0.00008515    -0.00015879

 Orbital energies:

           1.1          2.1          3.1          4.1          5.1          6.1          7.1          8.1          9.1         10.1
    -11.238082   -11.238078   -11.234674   -11.234125   -11.227646   -11.227641    -1.095606    -1.048283    -0.970884    -0.864369

          11.1         12.1         13.1         14.1         15.1         16.1         17.1         18.1         19.1         20.1
     -0.759166    -0.751527    -0.649536    -0.630380    -0.607129    -0.562265    -0.561069    -0.526383    -0.497401    -0.482297

          21.1         22.1         23.1         24.1         25.1
     -0.470492    -0.366923    -0.352208     0.170683     0.174166


 HOMO     23.1    -0.352208 =      -9.5841eV
 LUMO     24.1     0.170683 =       4.6445eV
 LUMO-HOMO         0.522890 =      14.2286eV

 Orbitals saved in record  2100.2


 **********************************************************************************************************************************
 DATASETS  * FILE   NREC   LENGTH (MB)   RECORD NAMES
              1      19      155.02       500      610      700      900      950      970     1000      129      960     1100   
                                          VAR    BASINP    GEOM    SYMINP    ZMAT    AOBASIS   BASIS     P2S    ABASIS      S 
                                         1400     1410     1200     1210     1080     1600     1650     1300     1700   
                                           T        V       H0       H01     AOSYM     SMH    MOLCAS    ERIS     OPER   

              2       4        0.92       700     1000      520     2100   
                                         GEOM     BASIS   MCVARS     RHF  

 PROGRAMS   *        TOTAL    HF-SCF       INT
 CPU TIMES  *         4.48      2.07      2.31
 REAL TIME  *        13.81 SEC
 DISK USED  *       578.66 MB
 **********************************************************************************************************************************


 PROGRAM * MP4 (Closed-shell)     Authors: C. Hampel, H.-J. Werner, 1991, M. Deegan, P.J. Knowles, 1992


 Convergence thresholds:  THRVAR = 1.00D-08  THRDEN = 1.00D-06

 MP4(T)     terms to be evaluated (factor= 0.000)


 Number of core orbitals:           6 (   6 )
 Number of closed-shell orbitals:  17 (  17 )
 Number of external orbitals:     111 ( 111 )

 Molecular orbitals read from record     2100.2  Type=RHF/CANONICAL  

 Number of N-1 electron functions:              17
 Number of N-2 electron functions:             153
 Number of singly external CSFs:              1887
 Number of doubly external CSFs:           1781328
 Total number of CSFs:                     1783216

 Length of J-op  integral file:               0.00 MB
 Length of K-op  integral file:               1.30 MB

 Memory could be reduced to 31.25 Mwords without degradation in triples

 Integral transformation finished. Total CPU:   1.48 sec, npass=  1  Memory used:  26.70 MW

 Reference energy:                   -233.00349238

                        CORR.ENERGY   TOTAL ENERGY   ENERGY CHANGE
 MP2:                   -0.82040822  -233.82390060    -0.82040822

 SCS-MP2 correlation energy:           -0.81753603   (PS=  1.200000  PT=  0.333333)
 SCS-MP2 total energy:               -233.82102841

 MP3(D):                -0.88274872  -233.88624110    -0.06234050
 MP4(DQ):               -0.88622431  -233.88971669    -0.00347559
 MP4(SDQ):              -0.89174138  -233.89523376    -0.00551708

 Norm of t1 vector:      0.06170497      S-energy:    -0.00551708      T1 diagnostic:  0.00748283


 Total CPU time for triples:     49.60 sec


 RESULTS
 =======

  Reference energy                   -233.003492378279
  MP4(SDQ) singlet pair energy         -0.610955321235
  MP4(SDQ) triplet pair energy         -0.275268987938
  MP4(SDQ) correlation energy          -0.891741384966

  Triples contribution                 -0.029380929712
  Total correlation energy             -0.921122314677

  MP4(SDQ) total energy              -233.895233763245
 !MP4(SDTQ) total energy             -233.924614692957

 Timing summary (sec):

 STEP                 CPU(USER)    SYS     CPU(TOT)    WALL
 Transformation          1.54      0.16      1.70      2.26
 CCSD iterations         9.85      0.17     10.02      7.22
 Triples                49.60      2.94     52.54     60.49

 Program statistics:

 Available memory in ccsd:               805305189
 Min. memory needed in ccsd:               4608836
 Max. memory used in ccsd:                 6190584
 Max. memory used in cckext:               5741158 ( 1 integral passes)



 **********************************************************************************************************************************
 DATASETS  * FILE   NREC   LENGTH (MB)   RECORD NAMES
              1      20      276.30       500      610      700      900      950      970     1000      129      960     1100   
                                          VAR    BASINP    GEOM    SYMINP    ZMAT    AOBASIS   BASIS     P2S    ABASIS      S 
                                         1400     1410     1200     1210     1080     1600     1650     1300     1700     1380   
                                           T        V       H0       H01     AOSYM     SMH    MOLCAS    ERIS     OPER     JKOP   

              2       4        0.92       700     1000      520     2100   
                                         GEOM     BASIS   MCVARS     RHF  

 PROGRAMS   *        TOTAL       MP4    HF-SCF       INT
 CPU TIMES  *        60.90     56.42      2.07      2.31
 REAL TIME  *        84.12 SEC
 DISK USED  *       578.66 MB
 **********************************************************************************************************************************

 Dump information in style XML to xml output                                                                      

 Orbitals will not be exported.

 **********************************************************************************************************************************

 MP4/cc-pVDZ energy=   -233.924614692957

             MP4          HF-SCF
   -233.92461469   -233.00349238
 **********************************************************************************************************************************
 Molpro calculation terminated
