
 Working directory              : /var/folders/2v/xbgp75_9785319ghcgb4zr4r0000gp/T//molpro.iAPzyA37CO/
 Global scratch directory       : /var/folders/2v/xbgp75_9785319ghcgb4zr4r0000gp/T//molpro.iAPzyA37CO/
 Wavefunction directory         : /Users/sacpjk/wfu/
 Main file repository           : /var/folders/2v/xbgp75_9785319ghcgb4zr4r0000gp/T//molpro.iAPzyA37CO/

 id        : peterk

 Nodes                        nprocs
 Cardiff-University-G34YLXT77Y    1
 GA implementation: MPI file
 GA implementation (serial work in mppx): MPI file

 Using customized tuning parameters: mindgm=1; mindgv=20; mindgc=4; mindgr=1; noblas=0; minvec=7
 default implementation of scratch files=df  


 Variables initialized (1032), CPU time= 0.01 sec
 
 symmetry,nosym
 
 
 geometry={
            9
     C         -0.71731126      0.00000000      0.73536428
     C         -1.09398697      0.00000000     -0.56903173
     O          0.00000000      0.00000000     -1.38121434
     C          1.09398697      0.00000000     -0.56903173
     C          0.71731126      0.00000000      0.73536428
     H         -1.37199245      0.00000000      1.59213938
     H         -2.04808591      0.00000000     -1.06786475
     H          2.04808591      0.00000000     -1.06786475
     H          1.37199245      0.00000000      1.59213938
 }
 basis=cc-pVDZ
 
 
 
 hf; hf; papt; mp2
 
 
 
 {put,xml;noorbitals,nobasis}
 Commands initialized (841), CPU time= 0.00 sec, 704 directives.
 Default parameters read. Elapsed time= 0.12 sec

 Checking input...
 Passed
1


                                         ***  PROGRAM SYSTEM MOLPRO  ***
                                       Copyright, TTI GmbH Stuttgart, 2015
                                    Version 2023.1 linked Tue Jun  6 09:54:11 2023


 **********************************************************************************************************************************
 LABEL *                                                                                                                                                                 
  64 bit serial version                                                                  DATE: 11-Jun-23          TIME: 09:03:10  
 **********************************************************************************************************************************

 SHA1:             8ebb0dd001088a5c915591db1a321413035db0b1
 **********************************************************************************************************************************

 Memory per process:       393 MW
 Total memory per node:    524 MW
 Total GA space:           131 MW

 GA preallocation disabled
 GA check enabled

 Variable memory set to 393.2 MW

 ZSYMEL=NOSYM


 Geometry recognized as XYZ

 SETTING BASIS          =    CC-PVDZ


 Recomputing integrals since basis changed


 Using spherical harmonics

 Library entry C      S cc-pVDZ              selected for orbital group  1
 Library entry C      P cc-pVDZ              selected for orbital group  1
 Library entry C      D cc-pVDZ              selected for orbital group  1
 Library entry O      S cc-pVDZ              selected for orbital group  2
 Library entry O      P cc-pVDZ              selected for orbital group  2
 Library entry O      D cc-pVDZ              selected for orbital group  2
 Library entry H      S cc-pVDZ              selected for orbital group  4
 Library entry H      P cc-pVDZ              selected for orbital group  4


 PROGRAM * SEWARD (Integral evaluation for generally contracted gaussian basis sets)     Author: Roland Lindh, 1990

 Geometry written to block  1 of record 700


 Point group  C1  



 ATOMIC COORDINATES

 NR  ATOM    CHARGE       X              Y              Z

   1  C       6.00   -1.355521828    0.000000000    1.389637091
   2  C       6.00   -2.067335757    0.000000000   -1.075314126
   3  O       8.00    0.000000000    0.000000000   -2.610116822
   4  C       6.00    2.067335757    0.000000000   -1.075314126
   5  C       6.00    1.355521828    0.000000000    1.389637091
   6  H       1.00   -2.592689976    0.000000000    3.008707380
   7  H       1.00   -3.870321450    0.000000000   -2.017971916
   8  H       1.00    3.870321450    0.000000000   -2.017971916
   9  H       1.00    2.592689976    0.000000000    3.008707380

 Bond lengths in Bohr (Angstrom)

 1-2  2.565670199  1-5  2.711043655  1-6  2.037639229  2-3  2.574780855  2-7  2.034541992
     ( 1.357694200)     ( 1.434622520)     ( 1.078272244)     ( 1.362515351)     ( 1.076633257)

 3-4  2.574780855  4-5  2.565670199  4-8  2.034541992  5-9  2.037639229
     ( 1.362515351)     ( 1.357694200)     ( 1.076633257)     ( 1.078272244)

 Bond angles

  1-2-3  110.48307374   1-2-7  133.70933251   1-5-4  106.10734474   1-5-9  127.38426163

  2-1-5  106.10734474   2-1-6  126.50839363   2-3-4  106.81916303   3-2-7  115.80759375

  3-4-5  110.48307374   3-4-8  115.80759375   4-5-9  126.50839363   5-1-6  127.38426163

  5-4-8  133.70933251

 NUCLEAR CHARGE:                   36
 NUMBER OF PRIMITIVE AOS:         163
 NUMBER OF SYMMETRY AOS:          158
 NUMBER OF CONTRACTIONS:           90   (   90A   )
 NUMBER OF INNER CORE ORBITALS:     0   (    0A   )
 NUMBER OF OUTER CORE ORBITALS:     5   (    5A   )
 NUMBER OF VALENCE ORBITALS:       24   (   24A   )


 NUCLEAR REPULSION ENERGY  160.96170046

 EXTRA SYMMETRY OF AOS IN SYMMETRY 1:   1 1 1 1 2 1 1 2 1 1   2 1 1 2 1 1 1 1 2 1   1 2 1 1 2 1 1 2 1 1   1 1 2 1 1 2 1 1 2 1
                                        1 2 1 1 1 1 2 1 1 2   1 1 2 1 1 2 1 1 1 1   2 1 1 2 1 1 2 1 1 2   1 1 1 2 1 1 1 1 2 1
                                        1 1 1 2 1 1 1 1 2 1

 Eigenvalues of metric

         1 0.740E-03 0.338E-02 0.584E-02 0.114E-01 0.150E-01 0.182E-01 0.185E-01 0.205E-01


 Contracted 2-electron integrals neglected if value below      1.0D-11
 AO integral compression algorithm  1   Integral accuracy      1.0D-11

     23.069 MB (compressed) written to integral file ( 30.7%)


 NUMBER OF SORTED TWO-ELECTRON INTEGRALS:    8386560.     BUFFER LENGTH:  32768
 NUMBER OF SEGMENTS:   1  SEGMENT LENGTH:    8386560      RECORD LENGTH: 524288

 Memory used in sort:       8.94 MW

 SORT1 READ     9488277. AND WROTE     4318007. INTEGRALS IN     13 RECORDS. CPU TIME:     0.07 SEC, REAL TIME:     0.14 SEC
 SORT2 READ     4318007. AND WROTE     8386560. INTEGRALS IN     88 RECORDS. CPU TIME:     0.10 SEC, REAL TIME:     0.25 SEC

 FILE SIZES:   FILE 1:    53.5 MBYTE,  FILE 4:    54.6 MBYTE,   TOTAL:    108.1 MBYTE

 OPERATOR DM      FOR CENTER  0  COORDINATES:    0.000000    0.000000    0.000000


 **********************************************************************************************************************************
 DATASETS  * FILE   NREC   LENGTH (MB)   RECORD NAMES
              1      19       47.80       500      610      700      900      950      970     1000      129      960     1100   
                                          VAR    BASINP    GEOM    SYMINP    ZMAT    AOBASIS   BASIS     P2S    ABASIS      S 
                                         1400     1410     1200     1210     1080     1600     1650     1300     1700   
                                           T        V       H0       H01     AOSYM     SMH    MOLCAS    ERIS     OPER   

 PROGRAMS   *        TOTAL       INT
 CPU TIMES  *         0.90      0.79
 REAL TIME  *         1.98 SEC
 DISK USED  *       103.56 MB
 **********************************************************************************************************************************


 Program * Restricted Hartree-Fock

 Orbital guess generated from atomic densities. Full valence occupancy:   29

 Initial occupancy:  18

 NELEC=   36   SYM=1   MS2= 0   THRE=1.0D-08   THRD=3.2D-06   THRG=3.2D-06  HFMA2=F  DIIS_START=2   DIIS_MAX=10   DIIS_INCORE=F

 Level shifts:    0.00 (CLOSED)    0.00 (OPEN)    0.30 (GAP_MIN)

 ITER           ETOT              DE          GRAD        DDIFF     DIIS  NEXP   TIME(IT)  TIME(TOT)  DIAG
   1     -228.59447839    -228.59447839     0.00D+00     0.12D+00     0     0       0.05      0.09    start
   2     -228.63439677      -0.03991838     0.53D-02     0.11D-01     1     0       0.04      0.13    diag
   3     -228.64183684      -0.00744008     0.24D-02     0.45D-02     2     0       0.04      0.17    diag
   4     -228.64317554      -0.00133870     0.88D-03     0.17D-02     3     0       0.04      0.21    diag
   5     -228.64325379      -0.00007825     0.23D-03     0.39D-03     4     0       0.04      0.25    diag
   6     -228.64326887      -0.00001508     0.68D-04     0.15D-03     5     0       0.04      0.29    diag
   7     -228.64327316      -0.00000429     0.30D-04     0.94D-04     6     0       0.04      0.33    diag
   8     -228.64327346      -0.00000029     0.75D-05     0.26D-04     7     0       0.04      0.37    fixocc
   9     -228.64327347      -0.00000002     0.22D-05     0.61D-05     8     0       0.04      0.41    diag
  10     -228.64327347      -0.00000000     0.42D-06     0.12D-05     9     0       0.04      0.45    diag/orth
  11     -228.64327347      -0.00000000     0.11D-06     0.26D-06     0     0       0.04      0.49    diag

 Final occupancy:  18

 !RHF STATE 1.1 Energy               -228.643273474548
  RHF One-electron energy            -628.918661665855
  RHF Two-electron energy             239.313687730324
  RHF Kinetic energy                  228.431799043469
  RHF Nuclear energy                  160.961700460983
  RHF Virial quotient                  -1.000925766167

 !RHF STATE 1.1 Dipole moment          -0.00000000    -0.00000000     0.29585319
 Dipole moment /Debye                  -0.00000000    -0.00000000     0.75198380

 Orbital energies:

           1.1          2.1          3.1          4.1          5.1          6.1          7.1          8.1          9.1         10.1
    -20.621778   -11.289847   -11.289802   -11.233561   -11.232627    -1.457072    -1.082400    -1.003408    -0.804221    -0.778523

          11.1         12.1         13.1         14.1         15.1         16.1         17.1         18.1         19.1         20.1
     -0.736142    -0.628106    -0.606158    -0.573758    -0.560885    -0.535999    -0.393891    -0.317467     0.161513     0.202474


 HOMO     18.1    -0.317467 =      -8.6387eV
 LUMO     19.1     0.161513 =       4.3950eV
 LUMO-HOMO         0.478980 =      13.0337eV

 Orbitals saved in record  2100.2


 **********************************************************************************************************************************
 DATASETS  * FILE   NREC   LENGTH (MB)   RECORD NAMES
              1      19       47.80       500      610      700      900      950      970     1000      129      960     1100   
                                          VAR    BASINP    GEOM    SYMINP    ZMAT    AOBASIS   BASIS     P2S    ABASIS      S 
                                         1400     1410     1200     1210     1080     1600     1650     1300     1700   
                                           T        V       H0       H01     AOSYM     SMH    MOLCAS    ERIS     OPER   

              2       4        0.64       700     1000      520     2100   
                                         GEOM     BASIS   MCVARS     RHF  

 PROGRAMS   *        TOTAL    HF-SCF       INT
 CPU TIMES  *         1.39      0.49      0.79
 REAL TIME  *         2.97 SEC
 DISK USED  *       103.56 MB
 **********************************************************************************************************************************


 Program * Restricted Hartree-Fock

 Molecular orbitals read from record     2100.2  Type=RHF/CANONICAL  

 Initial occupancy:  18

 NELEC=   36   SYM=1   MS2= 0   THRE=1.0D-08   THRD=3.2D-06   THRG=3.2D-06  HFMA2=F  DIIS_START=2   DIIS_MAX=10   DIIS_INCORE=F

 Level shifts:    0.00 (CLOSED)    0.00 (OPEN)    0.30 (GAP_MIN)

 ITER           ETOT              DE          GRAD        DDIFF     DIIS  NEXP   TIME(IT)  TIME(TOT)  DIAG
   1     -228.64327347    -228.64327347     0.00D+00     0.12D+00     0     0       0.05      0.05    start
   2     -228.64327347      -0.00000000     0.46D-07     0.11D-06     1     0       0.04      0.09    diag

 Final occupancy:  18

 !RHF STATE 1.1 Energy               -228.643273474555
  RHF One-electron energy            -628.918655369891
  RHF Two-electron energy             239.313681434353
  RHF Kinetic energy                  228.431795209564
  RHF Nuclear energy                  160.961700460983
  RHF Virial quotient                  -1.000925782966

 !RHF STATE 1.1 Dipole moment           0.00000000     0.00000000     0.29584342
 Dipole moment /Debye                   0.00000000     0.00000000     0.75195897

 Orbital energies:

           1.1          2.1          3.1          4.1          5.1          6.1          7.1          8.1          9.1         10.1
    -20.621777   -11.289846   -11.289801   -11.233562   -11.232628    -1.457071    -1.082400    -1.003407    -0.804220    -0.778523

          11.1         12.1         13.1         14.1         15.1         16.1         17.1         18.1         19.1         20.1
     -0.736142    -0.628106    -0.606158    -0.573759    -0.560885    -0.535999    -0.393891    -0.317467     0.161513     0.202473


 HOMO     18.1    -0.317467 =      -8.6387eV
 LUMO     19.1     0.161513 =       4.3950eV
 LUMO-HOMO         0.478980 =      13.0337eV

 Orbitals saved in record  2101.2


 **********************************************************************************************************************************
 DATASETS  * FILE   NREC   LENGTH (MB)   RECORD NAMES
              1      19       47.80       500      610      700      900      950      970     1000      129      960     1100   
                                          VAR    BASINP    GEOM    SYMINP    ZMAT    AOBASIS   BASIS     P2S    ABASIS      S 
                                         1400     1410     1200     1210     1080     1600     1650     1300     1700   
                                           T        V       H0       H01     AOSYM     SMH    MOLCAS    ERIS     OPER   

              2       5        0.96       700     1000      520     2100     2101   
                                         GEOM     BASIS   MCVARS     RHF      RHF  

 PROGRAMS   *        TOTAL    HF-SCF    HF-SCF       INT
 CPU TIMES  *         1.49      0.09      0.49      0.79
 REAL TIME  *         3.20 SEC
 DISK USED  *       103.56 MB
 **********************************************************************************************************************************


 PROGRAM * PAPT (Closed-shell)     Authors: C. Hampel, H.-J. Werner, 1991, P.J. Knowles, 2021


 Convergence thresholds:  THRVAR = 1.00D-08  THRDEN = 1.00D-06

 Number of core orbitals:           5 (   5 )
 Number of closed-shell orbitals:  13 (  13 )
 Number of external orbitals:      72 (  72 )

 Molecular orbitals read from record     2101.2  Type=RHF/CANONICAL  

 Number of N-1 electron functions:              13
 Number of N-2 electron functions:              91
 Number of singly external CSFs:               936
 Number of doubly external CSFs:            438516
 Total number of CSFs:                      439453

 Length of J-op  integral file:               0.00 MB
 Length of K-op  integral file:               0.62 MB

 Integral transformation finished. Total CPU:   0.13 sec, npass=  1  Memory used:   1.41 MW

 Reference energy:                   -228.64327347

                        CORR.ENERGY   TOTAL ENERGY   ENERGY CHANGE
 MP2:                   -0.70780661  -229.35108009    -0.70780661

 SCS-MP2 correlation energy:           -0.68694588   (PS=  1.200000  PT=  0.333333)
 SCS-MP2 total energy:               -229.33021936
 Iteration:   1     0.3119D+00
 Iteration:   2     0.1894D+01
 Iteration:   3     0.9858D-01
 Iteration:   4     0.1029D+00
 Iteration:   5     0.4661D-01
 Iteration:   6     0.3313D-01
 Iteration:   7     0.5773D-01
 Iteration:   8     0.9817D-02
 Iteration:   9     0.3513D-01
 Iteration:  10     0.3279D-02
 Iteration:  11     0.2252D-02
 Iteration:  12     0.1754D-02
 Iteration:  13     0.4524D-03
 Iteration:  14     0.1136D-01
 Iteration:  15     0.1706D-03
 Iteration:  16     0.3487D-03
 Iteration:  17     0.9824D-04
 PAPT operator written to  7000.1
 PAPT orbitals and eigenvalues written to  7000.2

 MP3(D):                -0.72816167  -229.37143514    -0.02035506



 RESULTS
 =======

  Reference energy                   -228.643273474555
  MP3 singlet pair energy              -0.471095581614
  MP3 triplet pair energy              -0.257066087416
  MP3 correlation energy               -0.728161669029

 !MP3 total energy                   -229.371435143585

 Timing summary (sec):

 STEP                 CPU(USER)    SYS     CPU(TOT)    WALL
 Transformation          0.15      0.02      0.17      0.22
 CCSD iterations         3.31      0.04      3.35      3.23

 Program statistics:

 Available memory in ccsd:               393215306
 Min. memory needed in ccsd:               1238737
 Max. memory used in ccsd:                 1606117
 Max. memory used in cckext:               1586795 ( 1 integral passes)



 **********************************************************************************************************************************
 DATASETS  * FILE   NREC   LENGTH (MB)   RECORD NAMES
              1      21       56.42       500      610      700      900      950      970     1000      129      960     1100   
                                          VAR    BASINP    GEOM    SYMINP    ZMAT    AOBASIS   BASIS     P2S    ABASIS      S 
                                         1400     1410     1200     1210     1080     1600     1650     1300     1700     1380   
                                           T        V       H0       H01     AOSYM     SMH    MOLCAS    ERIS     OPER     JKOP   
                                         7000   
                                        PAPT AO    

              2       6        1.25       700     1000      520     2100     2101     7000   
                                         GEOM     BASIS   MCVARS     RHF      RHF     PAPT   

 PROGRAMS   *        TOTAL      PAPT    HF-SCF    HF-SCF       INT
 CPU TIMES  *         3.35      1.86      0.09      0.49      0.79
 REAL TIME  *         6.71 SEC
 DISK USED  *       103.56 MB
 **********************************************************************************************************************************


 PROGRAM * MP2 (Closed-shell)     Authors: C. Hampel, H.-J. Werner, 1991, M. Deegan, P.J. Knowles, 1992


 Convergence thresholds:  THRVAR = 1.00D-08  THRDEN = 1.00D-06

 Number of core orbitals:           5 (   5 )
 Number of closed-shell orbitals:  13 (  13 )
 Number of external orbitals:      72 (  72 )

 Molecular orbitals read from record     7000.2  Type=PAPT/CANONICAL (state 1.1)

 Number of N-1 electron functions:              13
 Number of N-2 electron functions:              91
 Number of singly external CSFs:               936
 Number of doubly external CSFs:            438516
 Total number of CSFs:                      439453

 Length of J-op  integral file:               0.00 MB
 Length of K-op  integral file:               0.62 MB

 Integral transformation finished. Total CPU:   0.12 sec, npass=  1  Memory used:   1.41 MW
 Orbital energies read from record       7000.2  Type=PAPT/CANONICAL (state 1.1)

 Memory needed for MP2:                      0.04 MW

 SCS-MP2 correlation energy:           -0.718303000635   (PS=  1.200000  PT=  0.333333)
 SCS-MP2 total energy:               -229.361576475190


  Reference energy                   -228.643273474555
  MP2 singlet pair energy              -0.451568963711
  MP2 triplet pair energy              -0.283532535292
  MP2 correlation energy               -0.735101499003

 !MP2 total energy                   -229.378374973558


 **********************************************************************************************************************************
 DATASETS  * FILE   NREC   LENGTH (MB)   RECORD NAMES
              1      21       56.42       500      610      700      900      950      970     1000      129      960     1100   
                                          VAR    BASINP    GEOM    SYMINP    ZMAT    AOBASIS   BASIS     P2S    ABASIS      S 
                                         1400     1410     1200     1210     1080     1600     1650     1300     1700     1380   
                                           T        V       H0       H01     AOSYM     SMH    MOLCAS    ERIS     OPER     JKOP   
                                         7000   
                                        PAPT AO    

              2       6        1.25       700     1000      520     2100     2101     7000   
                                         GEOM     BASIS   MCVARS     RHF      RHF     PAPT   

 PROGRAMS   *        TOTAL       MP2      PAPT    HF-SCF    HF-SCF       INT
 CPU TIMES  *         3.59      0.24      1.86      0.09      0.49      0.79
 REAL TIME  *         7.09 SEC
 DISK USED  *       103.56 MB
 **********************************************************************************************************************************

 Dump information in style XML to xml output                                                                      

 Orbitals will not be exported.

 **********************************************************************************************************************************

 MP2/cc-pVDZ energy=   -229.378374973558

             MP2            PAPT          HF-SCF          HF-SCF
   -229.37837497   -229.37143514   -228.64327347   -228.64327347
 **********************************************************************************************************************************
 Molpro calculation terminated
