
 Working directory              : /var/folders/2v/xbgp75_9785319ghcgb4zr4r0000gp/T//molpro.aj7c8RMikr/
 Global scratch directory       : /var/folders/2v/xbgp75_9785319ghcgb4zr4r0000gp/T//molpro.aj7c8RMikr/
 Wavefunction directory         : /Users/sacpjk/wfu/
 Main file repository           : /var/folders/2v/xbgp75_9785319ghcgb4zr4r0000gp/T//molpro.aj7c8RMikr/

 id        : peterk

 Nodes                        nprocs
 Cardiff-University-G34YLXT77Y    1
 GA implementation: MPI file
 GA implementation (serial work in mppx): MPI file

 Using customized tuning parameters: mindgm=1; mindgv=20; mindgc=4; mindgr=1; noblas=0; minvec=7
 default implementation of scratch files=df  


 Variables initialized (1037), CPU time= 0.00 sec
 
 symmetry,nosym
 
 
 geometry={
 12
  c         -2.459218126015    0.916788348978   -0.670797774233
  h         -1.741270501936    1.550721280027   -1.134404942908
  c         -3.234931287824    0.163959749385   -0.120222176892
  h         -3.929358797758   -0.484782139703    0.354183664714
  c          0.985794039147    0.047853878952   -0.034259673957
  o          0.731614981215    1.003956126123   -0.733097422222
  o          0.037889420139   -0.726486347779    0.533426931046
  h         -0.823109967671   -0.359187360778    0.265655788796
  c          2.361429192151   -0.433595950547    0.315891233766
  h          3.099815005257    0.203954137134   -0.154959090250
  h          2.487639707965   -0.421741224987    1.395926558104
  h          2.483706335065   -1.461440496700   -0.017343096018
 }
 basis=aug-cc-pVTZ
 
 
 
 hf; mp3; counterpoise
 
 
 
 {put,xml;noorbitals,nobasis}
 Commands initialized (841), CPU time= 0.00 sec, 716 directives.
 Default parameters read. Elapsed time= 0.11 sec

 Checking input...
 Passed
1


                                         ***  PROGRAM SYSTEM MOLPRO  ***
                                       Copyright, TTI GmbH Stuttgart, 2015
                                    Version 2023.1 linked Fri Jul  7 12:12:39 2023


 **********************************************************************************************************************************
 LABEL *                                                                                                                                                                 
  64 bit serial version                                                                  DATE: 07-Jul-23          TIME: 22:02:04  
 **********************************************************************************************************************************

 SHA1:             0fe2fddcc441eb00bb4c7ecb49b93e22d4ddc339
 **********************************************************************************************************************************

 Memory per process:       393 MW
 Total memory per node:    524 MW
 Total GA space:           131 MW

 GA preallocation disabled
 GA check enabled

 Variable memory set to 393.2 MW

 ZSYMEL=NOSYM


 Geometry recognized as XYZ

 SETTING BASIS          =    AUG-CC-PVTZ


 Recomputing integrals since basis changed


 Using spherical harmonics

 Library entry C      S aug-cc-pVTZ          selected for orbital group  1
 Library entry C      P aug-cc-pVTZ          selected for orbital group  1
 Library entry C      D aug-cc-pVTZ          selected for orbital group  1
 Library entry C      F aug-cc-pVTZ          selected for orbital group  1
 Library entry H      S aug-cc-pVTZ          selected for orbital group  2
 Library entry H      P aug-cc-pVTZ          selected for orbital group  2
 Library entry H      D aug-cc-pVTZ          selected for orbital group  2
 Library entry O      S aug-cc-pVTZ          selected for orbital group  6
 Library entry O      P aug-cc-pVTZ          selected for orbital group  6
 Library entry O      D aug-cc-pVTZ          selected for orbital group  6
 Library entry O      F aug-cc-pVTZ          selected for orbital group  6


 PROGRAM * SEWARD (Integral evaluation for generally contracted gaussian basis sets)     Author: Roland Lindh, 1990

 Geometry written to block  1 of record 700


 Point group  C1  



 ATOMIC COORDINATES

 NR  ATOM    CHARGE       X              Y              Z

   1  C       6.00   -4.647248739    1.732478894   -1.267624078
   2  H       1.00   -3.290524358    2.930438515   -2.143714657
   3  C       6.00   -6.113134166    0.309839022   -0.227186988
   4  H       1.00   -7.425411973   -0.916105474    0.669310124
   5  C       6.00    1.862880749    0.090430725   -0.064741401
   6  O       8.00    1.382551943    1.897202120   -1.385353351
   7  O       8.00    0.071600627   -1.372860231    1.008030807
   8  H       1.00   -1.555452409   -0.678765739    0.502016684
   9  C       6.00    4.462454436   -0.819377595    0.596947917
  10  H       1.00    5.857801397    0.385417461   -0.292830241
  11  H       1.00    4.700957745   -0.796975411    2.637918885
  12  H       1.00    4.693524747   -2.761722286   -0.032773702

 Bond lengths in Bohr (Angstrom)

 1-2  2.010806555  1-3  2.292429634  3-4  2.007167164  5-6  2.288919954  5-7  2.549655880
     ( 1.064073004)     ( 1.213101520)     ( 1.062147122)     ( 1.211244277)     ( 1.349219787)

  5- 9  2.832554904   7- 8  1.839869299   9-10  2.047004993   9-11  2.054981308   9-12  2.054907712
       ( 1.498923504)       ( 0.973616904)       ( 1.083228393)       ( 1.087449277)       ( 1.087410332)

 Bond angles

  1- 3- 4  178.92211762   2- 1- 3  177.31839716   5- 7- 8  106.80191145   5- 9-10  109.57256808

  5- 9-11  109.57389652   5- 9-12  109.58561376   6- 5- 7  123.25385323   6- 5- 9  125.51430755

  7- 5- 9  111.23183915  10- 9-11  110.25385240  10- 9-12  110.27152505  11- 9-12  107.55443570

 NUCLEAR CHARGE:                   46
 NUMBER OF PRIMITIVE AOS:         564
 NUMBER OF SYMMETRY AOS:          498
 NUMBER OF CONTRACTIONS:          414   (  414A   )
 NUMBER OF INNER CORE ORBITALS:     0   (    0A   )
 NUMBER OF OUTER CORE ORBITALS:     6   (    6A   )
 NUMBER OF VALENCE ORBITALS:       30   (   30A   )


 NUCLEAR REPULSION ENERGY  206.60195753


 Eigenvalues of metric

         1 0.713E-05 0.102E-04 0.121E-04 0.176E-04 0.292E-04 0.443E-04 0.542E-04 0.748E-04


 Contracted 2-electron integrals neglected if value below      1.0D-12
 AO integral compression algorithm  1   Integral accuracy      1.0D-12

     13921.944 MB (compressed) written to integral file ( 43.4%)


 NUMBER OF SORTED TWO-ELECTRON INTEGRALS: 3689877465.     BUFFER LENGTH:  32768
 NUMBER OF SEGMENTS: 116  SEGMENT LENGTH:   31999951      RECORD LENGTH: 262144

 Memory used in sort:      32.29 MW

 SORT1 READ  4006137025. AND WROTE  3176115867. INTEGRALS IN  18234 RECORDS. CPU TIME:    26.46 SEC, REAL TIME:    33.68 SEC
 SORT2 READ  3176115867. AND WROTE  3689877465. INTEGRALS IN  53108 RECORDS. CPU TIME:    16.41 SEC, REAL TIME:    34.98 SEC

 FILE SIZES:   FILE 1: 13958.4 MBYTE,  FILE 4: 38239.5 MBYTE,   TOTAL:  52198.0 MBYTE

 OPERATOR DM      FOR CENTER  0  COORDINATES:    0.000000    0.000000    0.000000


 **********************************************************************************************************************************
 DATASETS  * FILE   NREC   LENGTH (MB)   RECORD NAMES
              1      19    12265.65       500      610      700      900      950      970     1000      129      960     1100   
                                          VAR    BASINP    GEOM    SYMINP    ZMAT    AOBASIS   BASIS     P2S    ABASIS      S 
                                         1400     1410     1200     1210     1080     1600     1650     1300     1700   
                                           T        V       H0       H01     AOSYM     SMH    MOLCAS    ERIS     OPER   

 PROGRAMS   *        TOTAL       INT
 CPU TIMES  *       105.63    105.55
 REAL TIME  *       137.02 SEC
 DISK USED  *        48.61 GB
 **********************************************************************************************************************************


 Program * Restricted Hartree-Fock

 Orbital guess generated from atomic densities. Full valence occupancy:   36

 Initial occupancy:  23

 NELEC=   46   SYM=1   MS2= 0   THRE=1.0D-08   THRD=3.2D-06   THRG=3.2D-06  HFMA2=F  DIIS_START=2   DIIS_MAX=10   DIIS_INCORE=F

 Level shifts:    0.00 (CLOSED)    0.00 (OPEN)    0.30 (GAP_MIN)

 ITER           ETOT              DE          GRAD        DDIFF     DIIS  NEXP   TIME(IT)  TIME(TOT)  DIAG
   1     -304.64483048    -304.64483048     0.00D+00     0.33D-01     0     0      12.76     24.63    start
   2     -304.72104918      -0.07621870     0.37D-02     0.49D-02     1     0      12.83     37.46    diag
   3     -304.75616233      -0.03511316     0.24D-02     0.16D-02     2     0      13.02     50.48    diag
   4     -304.75808543      -0.00192309     0.41D-03     0.49D-03     3     0      12.72     63.20    diag
   5     -304.75838598      -0.00030056     0.16D-03     0.18D-03     4     0      12.86     76.06    diag
   6     -304.75842115      -0.00003517     0.47D-04     0.56D-04     5     0      12.78     88.84    diag
   7     -304.75842753      -0.00000638     0.18D-04     0.26D-04     6     0      13.18    102.02    diag
   8     -304.75842857      -0.00000105     0.68D-05     0.92D-05     7     0      12.69    114.71    fixocc
   9     -304.75842874      -0.00000017     0.27D-05     0.40D-05     8     0      12.73    127.44    diag
  10     -304.75842876      -0.00000002     0.11D-05     0.15D-05     9     0      12.77    140.21    diag/orth
  11     -304.75842876      -0.00000000     0.30D-06     0.46D-06     9     0      13.07    153.28    diag
  12     -304.75842876      -0.00000000     0.82D-07     0.12D-06     0     0      12.78    166.06    diag

 Final occupancy:  23

 !RHF STATE 1.1 Energy               -304.758428760500
  RHF One-electron energy            -824.777238661059
  RHF Two-electron energy             313.416852368358
  RHF Kinetic energy                  304.202051228321
  RHF Nuclear energy                  206.601957532201
  RHF Virial quotient                  -1.001828973638

 !RHF STATE 1.1 Dipole moment           0.05420693    -0.56353358     0.41150673
 Dipole moment /Debye                   0.13778026    -1.43235949     1.04594578

 Orbital energies:

           1.1          2.1          3.1          4.1          5.1          6.1          7.1          8.1          9.1         10.1
    -20.604511   -20.548206   -11.387377   -11.255732   -11.252000   -11.241751    -1.459840    -1.357577    -1.040903    -1.025727

          11.1         12.1         13.1         14.1         15.1         16.1         17.1         18.1         19.1         20.1
     -0.819180    -0.775889    -0.705523    -0.689101    -0.674504    -0.647250    -0.580945    -0.571335    -0.557896    -0.480685

          21.1         22.1         23.1         24.1         25.1
     -0.456921    -0.419693    -0.419204     0.027395     0.033309


 HOMO     23.1    -0.419204 =     -11.4071eV
 LUMO     24.1     0.027395 =       0.7454eV
 LUMO-HOMO         0.446599 =      12.1526eV

 Orbitals saved in record  2100.2


 **********************************************************************************************************************************
 DATASETS  * FILE   NREC   LENGTH (MB)   RECORD NAMES
              1      19    12265.65       500      610      700      900      950      970     1000      129      960     1100   
                                          VAR    BASINP    GEOM    SYMINP    ZMAT    AOBASIS   BASIS     P2S    ABASIS      S 
                                         1400     1410     1200     1210     1080     1600     1650     1300     1700   
                                           T        V       H0       H01     AOSYM     SMH    MOLCAS    ERIS     OPER   

              2       4        3.24       700     1000      520     2100   
                                         GEOM     BASIS   MCVARS     RHF  

 PROGRAMS   *        TOTAL    HF-SCF       INT
 CPU TIMES  *       271.69    166.06    105.55
 REAL TIME  *       321.00 SEC
 DISK USED  *        48.61 GB
 **********************************************************************************************************************************


 PROGRAM * MP3 (Closed-shell)     Authors: C. Hampel, H.-J. Werner, 1991, M. Deegan, P.J. Knowles, 1992


 Convergence thresholds:  THRVAR = 1.00D-08  THRDEN = 1.00D-06

 Number of core orbitals:           6 (   6 )
 Number of closed-shell orbitals:  17 (  17 )
 Number of external orbitals:     391 ( 391 )

 Molecular orbitals read from record     2100.2  Type=RHF/CANONICAL  

 Number of N-1 electron functions:              17
 Number of N-2 electron functions:             153
 Number of singly external CSFs:              6647
 Number of doubly external CSFs:          22094628
 Total number of CSFs:                    22101276

 Length of J-op  integral file:               0.00 MB
 Length of K-op  integral file:              11.83 MB

 Integral transformation finished. Total CPU:  32.34 sec, npass=  1  Memory used:  46.51 MW

 Reference energy:                   -304.75842876

                        CORR.ENERGY   TOTAL ENERGY   ENERGY CHANGE
 MP2:                   -1.13670496  -305.89513373    -1.13670496

 SCS-MP2 correlation energy:           -1.12278060   (PS=  1.200000  PT=  0.333333)
 SCS-MP2 total energy:               -305.88120936

 MP3(D):                -1.15236838  -305.91079714    -0.01566342



 RESULTS
 =======

  Reference energy                   -304.758428760500
  MP3 singlet pair energy              -0.771465813628
  MP3 triplet pair energy              -0.380902569630
  MP3 correlation energy               -1.152368383259

 !MP3 total energy                   -305.910797143759

 Timing summary (sec):

 STEP                 CPU(USER)    SYS     CPU(TOT)    WALL
 Transformation         33.21      2.95     36.16     35.64
 CCSD iterations       361.53      3.71    365.24     77.49

 Program statistics:

 Available memory in ccsd:               393214821
 Min. memory needed in ccsd:              52759979
 Max. memory used in ccsd:                73243687
 Max. memory used in cckext:              54023567 ( 1 integral passes)



 **********************************************************************************************************************************
 DATASETS  * FILE   NREC   LENGTH (MB)   RECORD NAMES
              1      20    12568.62       500      610      700      900      950      970     1000      129      960     1100   
                                          VAR    BASINP    GEOM    SYMINP    ZMAT    AOBASIS   BASIS     P2S    ABASIS      S 
                                         1400     1410     1200     1210     1080     1600     1650     1300     1700     1380   
                                           T        V       H0       H01     AOSYM     SMH    MOLCAS    ERIS     OPER     JKOP   

              2       4        3.24       700     1000      520     2100   
                                         GEOM     BASIS   MCVARS     RHF  

 PROGRAMS   *        TOTAL       MP3    HF-SCF       INT
 CPU TIMES  *       394.66    122.96    166.06    105.55
 REAL TIME  *       434.21 SEC
 DISK USED  *        48.61 GB
 **********************************************************************************************************************************

 Counterpoise: absolute minimum monomer separation=    -1.000 Bragg radius scale factor=     1.400 Number of monomers= 2

 Counterpoise  MP3  energy

 Running default procedure: HF-SCF000  MP3

 Assignment of unique atoms to monomers:
1-12     1     1     1     1     2     2     2     2     2     2     2     2

 *** Long output written to logfile /Users/sacpjk/current/PAPT/S66/22d5add9/60.molpro/run/1.molpro/1.log ***


 Description                       ENERGY          ENERGR          ENERGC
 Raw                        -305.91079714   -304.75842876   -305.91079714
 Dimer basis, monomer 1      -77.17327599    -76.84894674    -77.17327599
 Dimer basis, monomer 2     -228.73014202   -227.90532471   -228.73014202
 Monomer basis, monomer 1    -77.17278124    -76.84886519    -77.17278124
 Monomer basis, monomer 2   -228.72965847   -227.90521575   -228.72965847
 Counterpoise correction       0.00097831      0.00019051      0.00097831
 Counterpoise corrected     -305.90981883   -304.75823825   -305.90981883


 **********************************************************************************************************************************
 DATASETS  * FILE   NREC   LENGTH (MB)   RECORD NAMES
              1      18       34.80       500      610      700      900      950      970     1000      129      960     1100   
                                          VAR    BASINP    GEOM    SYMINP    ZMAT    AOBASIS   BASIS     P2S    ABASIS      S 
                                         1400     1410     1200     1210     1080     1600     1650     1700   
                                           T        V       H0       H01     AOSYM     SMH    MOLCAS    OPER   

              2      12       17.25       700     1000      520     2100     2101     2102      701     1001     2103      702   
                                         GEOM     BASIS   MCVARS     RHF      RHF      RHF     GEOM     BASIS     RHF     GEOM   
                                         1002     2104   
                                         BASIS     RHF  

 PROGRAMS   *        TOTALCOUNTERPOI    HF-SCF       INT       MP3    HF-SCF       INT       MP3    HF-SCF       INT       MP3
 CPU TIMES  *       844.90     14.96     30.68     21.87      0.55      1.99      1.60     67.02    152.58      0.08     31.44
 REAL TIME  *       927.69 SEC
 DISK USED  *        48.61 GB
 **********************************************************************************************************************************

 Dump information in style XML to xml output                                                                      

 Orbitals will not be exported.

 **********************************************************************************************************************************

 MP3/aug-cc-pVTZ energy=   -305.909818834212

             MP3          HF-SCF             MP3          HF-SCF             MP3          HF-SCF             MP3          HF-SCF
   -228.72965847   -227.90521575    -77.17278124    -76.84886519   -228.73014202   -227.90532471    -77.17327599    -76.84894674
 **********************************************************************************************************************************
 Molpro calculation terminated
