
 Working directory              : /var/folders/2v/xbgp75_9785319ghcgb4zr4r0000gp/T//molpro.Waltej9etI/
 Global scratch directory       : /var/folders/2v/xbgp75_9785319ghcgb4zr4r0000gp/T//molpro.Waltej9etI/
 Wavefunction directory         : /Users/sacpjk/wfu/
 Main file repository           : /var/folders/2v/xbgp75_9785319ghcgb4zr4r0000gp/T//molpro.Waltej9etI/

 id        : peterk

 Nodes                        nprocs
 Cardiff-University-G34YLXT77Y    1
 GA implementation: MPI file
 GA implementation (serial work in mppx): MPI file

 Using customized tuning parameters: mindgm=1; mindgv=20; mindgc=4; mindgr=1; noblas=0; minvec=7
 default implementation of scratch files=df  


 Variables initialized (1032), CPU time= 0.00 sec
 
 symmetry,nosym
 
 
 geometry={
            7
     C         -0.70348642     -0.15745798     -0.00001606
     O          0.11728813      0.96008129      0.00007194
     H         -1.75741170      0.15182813     -0.00862109
     H         -0.54634194     -0.80376173     -0.87808291
     H         -0.55866648     -0.79545365      0.88637925
     H          1.10509166      0.60322056      0.00026094
     F          2.34352676      0.04154336      0.00000794
 }
 basis=cc-pVTZ
 
 charge=-1
 
 hf; hf; papt; mp3
 
 
 
 {put,xml;noorbitals,nobasis}
 Commands initialized (841), CPU time= 0.00 sec, 704 directives.
 Default parameters read. Elapsed time= 0.38 sec

 Checking input...
 Passed
1


                                         ***  PROGRAM SYSTEM MOLPRO  ***
                                       Copyright, TTI GmbH Stuttgart, 2015
                                    Version 2023.1 linked Tue Jun  6 09:54:11 2023


 **********************************************************************************************************************************
 LABEL *                                                                                                                                                                 
  64 bit serial version                                                                  DATE: 09-Jun-23          TIME: 15:37:24  
 **********************************************************************************************************************************

 SHA1:             8ebb0dd001088a5c915591db1a321413035db0b1
 **********************************************************************************************************************************

 Memory per process:       805 MW
 Total memory per node:   1074 MW
 Total GA space:           268 MW

 GA preallocation disabled
 GA check enabled

 Variable memory set to 805.3 MW

 ZSYMEL=NOSYM


 Geometry recognized as XYZ

 SETTING BASIS          =    CC-PVTZ
 SETTING CHARGE         =        -1.00000000                                  


 Recomputing integrals since basis changed


 Using spherical harmonics

 Library entry C      S cc-pVTZ              selected for orbital group  1
 Library entry C      P cc-pVTZ              selected for orbital group  1
 Library entry C      D cc-pVTZ              selected for orbital group  1
 Library entry C      F cc-pVTZ              selected for orbital group  1
 Library entry O      S cc-pVTZ              selected for orbital group  2
 Library entry O      P cc-pVTZ              selected for orbital group  2
 Library entry O      D cc-pVTZ              selected for orbital group  2
 Library entry O      F cc-pVTZ              selected for orbital group  2
 Library entry H      S cc-pVTZ              selected for orbital group  3
 Library entry H      P cc-pVTZ              selected for orbital group  3
 Library entry H      D cc-pVTZ              selected for orbital group  3
 Library entry F      S cc-pVTZ              selected for orbital group  4
 Library entry F      P cc-pVTZ              selected for orbital group  4
 Library entry F      D cc-pVTZ              selected for orbital group  4
 Library entry F      F cc-pVTZ              selected for orbital group  4


 PROGRAM * SEWARD (Integral evaluation for generally contracted gaussian basis sets)     Author: Roland Lindh, 1990

 Geometry written to block  1 of record 700


 Point group  C1  



 ATOMIC COORDINATES

 NR  ATOM    CHARGE       X              Y              Z

   1  C       6.00   -1.329396666   -0.297552458   -0.000030349
   2  O       8.00    0.221642443    1.814290695    0.000135947
   3  H       1.00   -3.321026801    0.286913584   -0.016291499
   4  H       1.00   -1.032436637   -1.518889539   -1.659336215
   5  H       1.00   -1.055726642   -1.503189543    1.675014025
   6  H       1.00    2.088320580    1.139921651    0.000493105
   7  F       9.00    4.428623742    0.078505573    0.000015004

 Bond lengths in Bohr (Angstrom)

 1-2  2.620229733  1-3  2.075681954  1-4  2.081620878  1-5  2.081881293  2-6  1.984757164
     ( 1.386565862)     ( 1.098403587)     ( 1.101546330)     ( 1.101684136)     ( 1.050288261)

 Bond angles

  1-2-6  106.43223859   2-1-3  109.93982776   2-1-4  112.86058657   2-1-5  112.88507547

  3-1-4  107.20821913   3-1-5  107.18738980   4-1-5  106.42857108

 NUCLEAR CHARGE:                   27
 NUMBER OF PRIMITIVE AOS:         209
 NUMBER OF SYMMETRY AOS:          190
 NUMBER OF CONTRACTIONS:          146   (  146A   )
 NUMBER OF INNER CORE ORBITALS:     0   (    0A   )
 NUMBER OF OUTER CORE ORBITALS:     3   (    3A   )
 NUMBER OF VALENCE ORBITALS:       16   (   16A   )


 NUCLEAR REPULSION ENERGY   73.17392355


 Eigenvalues of metric

         1 0.134E-02 0.168E-02 0.195E-02 0.251E-02 0.324E-02 0.463E-02 0.669E-02 0.966E-02


 Contracted 2-electron integrals neglected if value below      1.0D-11
 AO integral compression algorithm  1   Integral accuracy      1.0D-11

     211.550 MB (compressed) written to integral file ( 40.6%)


 NUMBER OF SORTED TWO-ELECTRON INTEGRALS:   57582546.     BUFFER LENGTH:  32768
 NUMBER OF SEGMENTS:   4  SEGMENT LENGTH:   15999503      RECORD LENGTH: 524288

 Memory used in sort:      16.56 MW

 SORT1 READ    65079080. AND WROTE    50051877. INTEGRALS IN    145 RECORDS. CPU TIME:     0.46 SEC, REAL TIME:     0.58 SEC
 SORT2 READ    50051877. AND WROTE    57582546. INTEGRALS IN    807 RECORDS. CPU TIME:     0.45 SEC, REAL TIME:     0.53 SEC

 FILE SIZES:   FILE 1:   242.4 MBYTE,  FILE 4:   608.2 MBYTE,   TOTAL:    850.7 MBYTE

 OPERATOR DM      FOR CENTER  0  COORDINATES:    0.000000    0.000000    0.000000


 **********************************************************************************************************************************
 DATASETS  * FILE   NREC   LENGTH (MB)   RECORD NAMES
              1      19      205.02       500      610      700      900      950      970     1000      129      960     1100   
                                          VAR    BASINP    GEOM    SYMINP    ZMAT    AOBASIS   BASIS     P2S    ABASIS      S 
                                         1400     1410     1200     1210     1080     1600     1650     1300     1700   
                                           T        V       H0       H01     AOSYM     SMH    MOLCAS    ERIS     OPER   

 PROGRAMS   *        TOTAL       INT
 CPU TIMES  *         2.51      2.41
 REAL TIME  *         4.04 SEC
 DISK USED  *       811.73 MB
 **********************************************************************************************************************************


 Program * Restricted Hartree-Fock

 Orbital guess generated from atomic densities. Full valence occupancy:   19

 Initial occupancy:  14

 NELEC=   28   SYM=1   MS2= 0   THRE=1.0D-08   THRD=3.2D-06   THRG=3.2D-06  HFMA2=F  DIIS_START=2   DIIS_MAX=10   DIIS_INCORE=F

 Level shifts:    0.00 (CLOSED)    0.00 (OPEN)    0.30 (GAP_MIN)

 ITER           ETOT              DE          GRAD        DDIFF     DIIS  NEXP   TIME(IT)  TIME(TOT)  DIAG
   1     -214.47327738    -214.47327738     0.00D+00     0.69D-01     0     0       0.26      0.51    start
   2     -214.53782844      -0.06455106     0.81D-02     0.11D-01     1     0       0.26      0.77    diag
   3     -214.56695517      -0.02912673     0.55D-02     0.38D-02     2     0       0.26      1.03    diag
   4     -214.56753868      -0.00058351     0.42D-03     0.70D-03     3     0       0.25      1.28    diag
   5     -214.56757854      -0.00003986     0.11D-03     0.22D-03     4     0       0.26      1.54    diag
   6     -214.56758285      -0.00000431     0.49D-04     0.61D-04     5     0       0.26      1.80    diag
   7     -214.56758325      -0.00000040     0.12D-04     0.20D-04     6     0       0.26      2.06    diag
   8     -214.56758329      -0.00000004     0.38D-05     0.50D-05     7     0       0.26      2.32    fixocc
   9     -214.56758330      -0.00000001     0.12D-05     0.21D-05     8     0       0.26      2.58    diag
  10     -214.56758330      -0.00000000     0.24D-06     0.40D-06     0     0       0.26      2.84    diag/orth

 Final occupancy:  14

 !RHF STATE 1.1 Energy               -214.567583295653
  RHF One-electron energy            -450.026521129022
  RHF Two-electron energy             162.285014279826
  RHF Kinetic energy                  214.544587691862
  RHF Nuclear energy                   73.173923553542
  RHF Virial quotient                  -1.000107183332

 !RHF STATE 1.1 Dipole moment          -2.90907890    -0.82575734    -0.00051504
 Dipole moment /Debye                  -7.39414104    -2.09886579    -0.00130911

 Orbital energies:

           1.1          2.1          3.1          4.1          5.1          6.1          7.1          8.1          9.1         10.1
    -25.871262   -20.300784   -11.082167    -1.155448    -1.104868    -0.716422    -0.470581    -0.415420    -0.385322    -0.307873

          11.1         12.1         13.1         14.1         15.1         16.1
     -0.247752    -0.243844    -0.214621    -0.211856     0.302757     0.366420


 HOMO     14.1    -0.211856 =      -5.7649eV
 LUMO     15.1     0.302757 =       8.2384eV
 LUMO-HOMO         0.514613 =      14.0033eV

 Orbitals saved in record  2100.2


 **********************************************************************************************************************************
 DATASETS  * FILE   NREC   LENGTH (MB)   RECORD NAMES
              1      19      205.02       500      610      700      900      950      970     1000      129      960     1100   
                                          VAR    BASINP    GEOM    SYMINP    ZMAT    AOBASIS   BASIS     P2S    ABASIS      S 
                                         1400     1410     1200     1210     1080     1600     1650     1300     1700   
                                           T        V       H0       H01     AOSYM     SMH    MOLCAS    ERIS     OPER   

              2       4        0.82       700     1000      520     2100   
                                         GEOM     BASIS   MCVARS     RHF  

 PROGRAMS   *        TOTAL    HF-SCF       INT
 CPU TIMES  *         5.35      2.84      2.41
 REAL TIME  *         7.37 SEC
 DISK USED  *       811.73 MB
 **********************************************************************************************************************************


 Program * Restricted Hartree-Fock

 Molecular orbitals read from record     2100.2  Type=RHF/CANONICAL  

 Initial occupancy:  14

 NELEC=   28   SYM=1   MS2= 0   THRE=1.0D-08   THRD=3.2D-06   THRG=3.2D-06  HFMA2=F  DIIS_START=2   DIIS_MAX=10   DIIS_INCORE=F

 Level shifts:    0.00 (CLOSED)    0.00 (OPEN)    0.30 (GAP_MIN)

 ITER           ETOT              DE          GRAD        DDIFF     DIIS  NEXP   TIME(IT)  TIME(TOT)  DIAG
   1     -214.56758330    -214.56758330     0.00D+00     0.68D-01     0     0       0.26      0.26    start
   2     -214.56758330      -0.00000000     0.11D-06     0.17D-06     1     0       0.26      0.52    diag

 Final occupancy:  14

 !RHF STATE 1.1 Energy               -214.567583295692
  RHF One-electron energy            -450.026553918751
  RHF Two-electron energy             162.285047069517
  RHF Kinetic energy                  214.544622590376
  RHF Nuclear energy                   73.173923553542
  RHF Virial quotient                  -1.000107020652

 !RHF STATE 1.1 Dipole moment          -2.90907402    -0.82575366    -0.00051504
 Dipole moment /Debye                  -7.39412864    -2.09885646    -0.00130910

 Orbital energies:

           1.1          2.1          3.1          4.1          5.1          6.1          7.1          8.1          9.1         10.1
    -25.871268   -20.300787   -11.082169    -1.155450    -1.104870    -0.716422    -0.470582    -0.415421    -0.385322    -0.307874

          11.1         12.1         13.1         14.1         15.1         16.1
     -0.247754    -0.243847    -0.214622    -0.211858     0.302758     0.366420


 HOMO     14.1    -0.211858 =      -5.7649eV
 LUMO     15.1     0.302758 =       8.2385eV
 LUMO-HOMO         0.514615 =      14.0034eV

 Orbitals saved in record  2101.2


 **********************************************************************************************************************************
 DATASETS  * FILE   NREC   LENGTH (MB)   RECORD NAMES
              1      19      205.02       500      610      700      900      950      970     1000      129      960     1100   
                                          VAR    BASINP    GEOM    SYMINP    ZMAT    AOBASIS   BASIS     P2S    ABASIS      S 
                                         1400     1410     1200     1210     1080     1600     1650     1300     1700   
                                           T        V       H0       H01     AOSYM     SMH    MOLCAS    ERIS     OPER   

              2       5        1.50       700     1000      520     2100     2101   
                                         GEOM     BASIS   MCVARS     RHF      RHF  

 PROGRAMS   *        TOTAL    HF-SCF    HF-SCF       INT
 CPU TIMES  *         5.88      0.52      2.84      2.41
 REAL TIME  *         8.09 SEC
 DISK USED  *       811.73 MB
 **********************************************************************************************************************************


 PROGRAM * PAPT (Closed-shell)     Authors: C. Hampel, H.-J. Werner, 1991, P.J. Knowles, 2021


 Convergence thresholds:  THRVAR = 1.00D-08  THRDEN = 1.00D-06

 Number of core orbitals:           3 (   3 )
 Number of closed-shell orbitals:  11 (  11 )
 Number of external orbitals:     132 ( 132 )

 Molecular orbitals read from record     2101.2  Type=RHF/CANONICAL  

 Number of N-1 electron functions:              11
 Number of N-2 electron functions:              66
 Number of singly external CSFs:              1452
 Number of doubly external CSFs:           1054878
 Total number of CSFs:                     1056331

 Length of J-op  integral file:               0.00 MB
 Length of K-op  integral file:               1.53 MB

 Integral transformation finished. Total CPU:   0.46 sec, npass=  1  Memory used:   2.81 MW

 Reference energy:                   -214.56758330

                        CORR.ENERGY   TOTAL ENERGY   ENERGY CHANGE
 MP2:                   -0.71255026  -215.28013356    -0.71255026

 SCS-MP2 correlation energy:           -0.70276100   (PS=  1.200000  PT=  0.333333)
 SCS-MP2 total energy:               -215.27034430
 Iteration:   1     0.2705D+00
 Iteration:   2     0.3151D+00
 Iteration:   3     0.2011D+00
 Iteration:   4     0.2091D+00
 Iteration:   5     0.2118D+01
 Iteration:   6     0.1563D+00
 Iteration:   7     0.1784D+00
 Iteration:   8     0.9439D-01
 Iteration:   9     0.4185D-01
 Iteration:  10     0.1221D+00
 Iteration:  11     0.1770D-01
 Iteration:  12     0.7512D-01
 Iteration:  13     0.9547D-02
 Iteration:  14     0.5998D-02
 Iteration:  15     0.6561D-02
 Iteration:  16     0.1401D-02
 Iteration:  17     0.2671D-02
 Iteration:  18     0.7558D-03
 Iteration:  19     0.7528D-03
 Iteration:  20     0.5671D-03
 Iteration:  21     0.1731D-03
 Iteration:  22     0.1953D-02
 Iteration:  23     0.5666D-04
 PAPT operator written to  7000.1
 PAPT orbitals and eigenvalues written to  7000.2

 MP3(D):                -0.72130058  -215.28888388    -0.00875032



 RESULTS
 =======

  Reference energy                   -214.567583295692
  MP3 singlet pair energy              -0.479958505422
  MP3 triplet pair energy              -0.241342078701
  MP3 correlation energy               -0.721300584123

 !MP3 total energy                   -215.288883879816

 Timing summary (sec):

 STEP                 CPU(USER)    SYS     CPU(TOT)    WALL
 Transformation          0.49      0.05      0.54      0.66
 CCSD iterations         9.88      0.20     10.08      4.71

 Program statistics:

 Available memory in ccsd:               805305870
 Min. memory needed in ccsd:               2884166
 Max. memory used in ccsd:                 3801126
 Max. memory used in cckext:               3019439 ( 1 integral passes)



 **********************************************************************************************************************************
 DATASETS  * FILE   NREC   LENGTH (MB)   RECORD NAMES
              1      21      221.56       500      610      700      900      950      970     1000      129      960     1100   
                                          VAR    BASINP    GEOM    SYMINP    ZMAT    AOBASIS   BASIS     P2S    ABASIS      S 
                                         1400     1410     1200     1210     1080     1600     1650     1300     1700     1380   
                                           T        V       H0       H01     AOSYM     SMH    MOLCAS    ERIS     OPER     JKOP   
                                         7000   
                                        PAPT AO    

              2       6        2.08       700     1000      520     2100     2101     7000   
                                         GEOM     BASIS   MCVARS     RHF      RHF     PAPT   

 PROGRAMS   *        TOTAL      PAPT    HF-SCF    HF-SCF       INT
 CPU TIMES  *        10.26      4.38      0.52      2.84      2.41
 REAL TIME  *        13.59 SEC
 DISK USED  *       811.73 MB
 **********************************************************************************************************************************


 PROGRAM * MP3 (Closed-shell)     Authors: C. Hampel, H.-J. Werner, 1991, M. Deegan, P.J. Knowles, 1992


 Convergence thresholds:  THRVAR = 1.00D-08  THRDEN = 1.00D-06

 Number of core orbitals:           3 (   3 )
 Number of closed-shell orbitals:  11 (  11 )
 Number of external orbitals:     132 ( 132 )

 Molecular orbitals read from record     7000.2  Type=PAPT/CANONICAL (state 1.1)

 Number of N-1 electron functions:              11
 Number of N-2 electron functions:              66
 Number of singly external CSFs:              1452
 Number of doubly external CSFs:           1054878
 Total number of CSFs:                     1056331

 Length of J-op  integral file:               0.00 MB
 Length of K-op  integral file:               1.53 MB

 Integral transformation finished. Total CPU:   0.44 sec, npass=  1  Memory used:   2.81 MW
 Orbital energies read from record       7000.2  Type=PAPT/CANONICAL (state 1.1)

 Reference energy:                   -214.56758330

                        CORR.ENERGY   TOTAL ENERGY   ENERGY CHANGE
 MP2:                   -0.72712189  -215.29470518    -0.72712189

 SCS-MP2 correlation energy:           -0.71999201   (PS=  1.200000  PT=  0.333333)
 SCS-MP2 total energy:               -215.28757531

 MP3(D):                -0.72729517  -215.29487846    -0.00017328



 RESULTS
 =======

  Reference energy                   -214.567583295693
  MP3 singlet pair energy              -0.484490016097
  MP3 triplet pair energy              -0.242805151473
  MP3 correlation energy               -0.727295167570

 !MP3 total energy                   -215.294878463262

 Timing summary (sec):

 STEP                 CPU(USER)    SYS     CPU(TOT)    WALL
 Transformation          0.74      0.06      0.80      0.88
 CCSD iterations        11.52      0.06     11.58      1.36

 Program statistics:

 Available memory in ccsd:               805305870
 Min. memory needed in ccsd:               2884166
 Max. memory used in ccsd:                 3801126
 Max. memory used in cckext:               3019439 ( 1 integral passes)



 **********************************************************************************************************************************
 DATASETS  * FILE   NREC   LENGTH (MB)   RECORD NAMES
              1      21      221.56       500      610      700      900      950      970     1000      129      960     1100   
                                          VAR    BASINP    GEOM    SYMINP    ZMAT    AOBASIS   BASIS     P2S    ABASIS      S 
                                         1400     1410     1200     1210     1080     1600     1650     1300     1700     1380   
                                           T        V       H0       H01     AOSYM     SMH    MOLCAS    ERIS     OPER     JKOP   
                                         7000   
                                        PAPT AO    

              2       6        2.08       700     1000      520     2100     2101     7000   
                                         GEOM     BASIS   MCVARS     RHF      RHF     PAPT   

 PROGRAMS   *        TOTAL       MP3      PAPT    HF-SCF    HF-SCF       INT
 CPU TIMES  *        12.16      1.90      4.38      0.52      2.84      2.41
 REAL TIME  *        15.90 SEC
 DISK USED  *       811.73 MB
 **********************************************************************************************************************************

 Dump information in style XML to xml output                                                                      

 Orbitals will not be exported.

 **********************************************************************************************************************************

 MP3/cc-pVTZ energy=   -215.294878463262

             MP3            PAPT          HF-SCF          HF-SCF
   -215.29487846   -215.28888388   -214.56758330   -214.56758330
 **********************************************************************************************************************************
 Molpro calculation terminated
