
 Working directory              : /var/folders/2v/xbgp75_9785319ghcgb4zr4r0000gp/T//molpro.mKotx9fGI3/
 Global scratch directory       : /var/folders/2v/xbgp75_9785319ghcgb4zr4r0000gp/T//molpro.mKotx9fGI3/
 Wavefunction directory         : /Users/sacpjk/wfu/
 Main file repository           : /var/folders/2v/xbgp75_9785319ghcgb4zr4r0000gp/T//molpro.mKotx9fGI3/

 id        : peterk

 Nodes                        nprocs
 Cardiff-University-G34YLXT77Y    1
 GA implementation: MPI file
 GA implementation (serial work in mppx): MPI file

 Using customized tuning parameters: mindgm=1; mindgv=20; mindgc=4; mindgr=1; noblas=0; minvec=7
 default implementation of scratch files=df  


 Variables initialized (1032), CPU time= 0.00 sec
 
 core,small
 angstrom
 
 geometry={
 F;F,F,1.41134168
 }
 basis=cc-pCVDZ
 
 
 
 hf
 
 
 
 {put,xml;noorbitals,nobasis}
 Commands initialized (841), CPU time= 0.01 sec, 704 directives.
 Default parameters read. Elapsed time= 0.53 sec

 Checking input...
 Passed
1


                                         ***  PROGRAM SYSTEM MOLPRO  ***
                                       Copyright, TTI GmbH Stuttgart, 2015
                                    Version 2023.1 linked Tue Jun  6 09:54:11 2023


 **********************************************************************************************************************************
 LABEL *                                                                                                                                                                 
  64 bit serial version                                                                  DATE: 12-Jun-23          TIME: 09:30:23  
 **********************************************************************************************************************************

 SHA1:             8ebb0dd001088a5c915591db1a321413035db0b1
 **********************************************************************************************************************************

 Memory per process:       393 MW
 Total memory per node:    524 MW
 Total GA space:           131 MW

 GA preallocation disabled
 GA check enabled

 Variable memory set to 393.2 MW

 ZUNIT=ANG

 SETTING BASIS          =    CC-PCVDZ


 Recomputing integrals since basis changed


 Using spherical harmonics

 Library entry F      S cc-pCVDZ             selected for orbital group  1
 Library entry F      P cc-pCVDZ             selected for orbital group  1
 Library entry F      D cc-pCVDZ             selected for orbital group  1


 PROGRAM * SEWARD (Integral evaluation for generally contracted gaussian basis sets)     Author: Roland Lindh, 1990

 Geometry written to block  1 of record 700

 Orientation using atomic masses  
 Molecule type: Linear
 Symmetry elements: X,Y,Z
 Rotational constants:      26.7094998     26.7094998      0.0000000 GHz  (calculated with average atomic masses)

 Point group  D2h 



 ATOMIC COORDINATES

 NR  ATOM    CHARGE       X              Y              Z

   1  F       9.00    0.000000000    0.000000000   -1.333524622
   2  F       9.00    0.000000000    0.000000000    1.333524622

 Bond lengths in Bohr (Angstrom)

 1-2  2.667049243
     ( 1.411341680)

 NUCLEAR CHARGE:                   18
 NUMBER OF PRIMITIVE AOS:          62
 NUMBER OF SYMMETRY AOS:           60
 NUMBER OF CONTRACTIONS:           36   (    9Ag  +    4B3u +    4B2u +    1B1g +    9B1u +    4B2g +    4B3g +    1Au  )
 NUMBER OF INNER CORE ORBITALS:     0   (    0Ag  +    0B3u +    0B2u +    0B1g +    0B1u +    0B2g +    0B3g +    0Au  )
 NUMBER OF OUTER CORE ORBITALS:     2   (    1Ag  +    0B3u +    0B2u +    0B1g +    1B1u +    0B2g +    0B3g +    0Au  )
 NUMBER OF VALENCE ORBITALS:        8   (    2Ag  +    1B3u +    1B2u +    0B1g +    2B1u +    1B2g +    1B3g +    0Au  )


 NUCLEAR REPULSION ENERGY   30.37064284

 EXTRA SYMMETRY OF AOS IN SYMMETRY 1:   1 1 1 1 1 1 1 1 2
 EXTRA SYMMETRY OF AOS IN SYMMETRY 5:   1 1 1 1 1 1 1 1 2

 Eigenvalues of metric

         1 0.388E-01 0.863E-01 0.169E+00 0.996E+00 0.100E+01 0.108E+01 0.165E+01 0.198E+01
         2 0.197E+00 0.997E+00 0.103E+01 0.220E+01
         3 0.197E+00 0.997E+00 0.103E+01 0.220E+01
         4 0.100E+01
         5 0.215E-01 0.708E-01 0.142E+00 0.598E+00 0.952E+00 0.997E+00 0.108E+01 0.176E+01
         6 0.161E+00 0.931E+00 0.991E+00 0.149E+01
         7 0.161E+00 0.931E+00 0.991E+00 0.149E+01
         8 0.997E+00


 Contracted 2-electron integrals neglected if value below      1.0D-11
 AO integral compression algorithm  1   Integral accuracy      1.0D-11

     0.524 MB (compressed) written to integral file ( 81.0%)


 NUMBER OF SORTED TWO-ELECTRON INTEGRALS:      34089.     BUFFER LENGTH:  32768
 NUMBER OF SEGMENTS:   1  SEGMENT LENGTH:      34089      RECORD LENGTH: 524288

 Memory used in sort:       0.59 MW

 SORT1 READ       77840. AND WROTE       31449. INTEGRALS IN      1 RECORDS. CPU TIME:     0.00 SEC, REAL TIME:     0.00 SEC
 SORT2 READ       31449. AND WROTE       34089. INTEGRALS IN      2 RECORDS. CPU TIME:     0.01 SEC, REAL TIME:     0.01 SEC

 FILE SIZES:   FILE 1:    30.5 MBYTE,  FILE 4:     4.3 MBYTE,   TOTAL:     34.8 MBYTE

 OPERATOR DM      FOR CENTER  0  COORDINATES:    0.000000    0.000000    0.000000


 **********************************************************************************************************************************
 DATASETS  * FILE   NREC   LENGTH (MB)   RECORD NAMES
              1      19       28.80       500      610      700      900      950      970     1000      129      960     1100   
                                          VAR    BASINP    GEOM    SYMINP    ZMAT    AOBASIS   BASIS     P2S    ABASIS      S 
                                         1400     1410     1200     1210     1080     1600     1650     1300     1700   
                                           T        V       H0       H01     AOSYM     SMH    MOLCAS    ERIS     OPER   

 PROGRAMS   *        TOTAL       INT
 CPU TIMES  *         0.18      0.07
 REAL TIME  *         1.12 SEC
 DISK USED  *        33.51 MB
 **********************************************************************************************************************************


 Program * Restricted Hartree-Fock

 Orbital guess generated from atomic densities. Full valence occupancy:    3   1   1   0   3   1   1   0


 Initial occupancy:   3   1   1   0   2   1   1   0

 NELEC=   18   SYM=1   MS2= 0   THRE=1.0D-08   THRD=3.2D-06   THRG=3.2D-06  HFMA2=F  DIIS_START=2   DIIS_MAX=10   DIIS_INCORE=F

 Level shifts:    0.00 (CLOSED)    0.00 (OPEN)    0.30 (GAP_MIN)

 ITER           ETOT              DE          GRAD        DDIFF     DIIS  NEXP   TIME(IT)  TIME(TOT)  DIAG
   1     -198.66303915    -198.66303915     0.00D+00     0.51D+00     0     0       0.00      0.00    start
   2     -198.68419171      -0.02115256     0.30D-01     0.34D-01     1     0       0.00      0.00    diag
   3     -198.68600063      -0.00180892     0.97D-02     0.99D-02     2     0       0.00      0.00    diag
   4     -198.68609099      -0.00009036     0.15D-02     0.22D-02     3     0       0.00      0.00    diag
   5     -198.68609692      -0.00000593     0.39D-03     0.53D-03     4     0       0.00      0.00    diag
   6     -198.68609702      -0.00000010     0.52D-04     0.63D-04     5     0       0.00      0.00    diag
   7     -198.68609702      -0.00000000     0.77D-05     0.84D-05     6     0       0.00      0.00    diag
   8     -198.68609702      -0.00000000     0.55D-06     0.79D-06     7     0       0.00      0.00    fixocc
   9     -198.68609702      -0.00000000     0.29D-07     0.47D-07     0     0       0.00      0.00    diag

 Final occupancy:   3   1   1   0   2   1   1   0

 !RHF STATE 1.1 Energy               -198.686097020303
  RHF One-electron energy            -338.484861651641
  RHF Two-electron energy             109.428121795123
  RHF Kinetic energy                  198.586932685554
  RHF Nuclear energy                   30.370642836215
  RHF Virial quotient                  -1.000499349748

 !RHF STATE 1.1 Dipole moment           0.00000000     0.00000000     0.00000000
 Dipole moment /Debye                   0.00000000     0.00000000     0.00000000

 Orbital energies:

           1.1          2.1          3.1          4.1          5.1
    -26.431452    -1.768201    -0.744745     1.549275     1.786392

           1.2          2.2          3.2
     -0.806983     1.306470     3.669484

           1.3          2.3          3.3
     -0.806983     1.306470     3.669484

           1.4
      3.875145

           1.5          2.5          3.5          4.5
    -26.431209    -1.499416     0.096672     1.347340

           1.6          2.6          3.6
     -0.662659     1.493430     4.161946

           1.7          2.7          3.7
     -0.662659     1.493430     4.161946

           1.8
      3.927687


 HOMO      1.7    -0.662659 =     -18.0319eV
 LUMO      3.5     0.096672 =       2.6306eV
 LUMO-HOMO         0.759331 =      20.6624eV

 Orbitals saved in record  2100.2


 **********************************************************************************************************************************
 DATASETS  * FILE   NREC   LENGTH (MB)   RECORD NAMES
              1      19       28.80       500      610      700      900      950      970     1000      129      960     1100   
                                          VAR    BASINP    GEOM    SYMINP    ZMAT    AOBASIS   BASIS     P2S    ABASIS      S 
                                         1400     1410     1200     1210     1080     1600     1650     1300     1700   
                                           T        V       H0       H01     AOSYM     SMH    MOLCAS    ERIS     OPER   

              2       4        0.38       700     1000      520     2100   
                                         GEOM     BASIS   MCVARS     RHF  

 PROGRAMS   *        TOTAL    HF-SCF       INT
 CPU TIMES  *         0.18      0.00      0.07
 REAL TIME  *         1.22 SEC
 DISK USED  *        33.51 MB
 **********************************************************************************************************************************

 Dump information in style XML to xml output                                                                      

 Orbitals will not be exported.

 **********************************************************************************************************************************

 HF/cc-pCVDZ energy=   -198.686097020303

          HF-SCF
   -198.68609702
 **********************************************************************************************************************************
 Molpro calculation terminated
