
 Working directory              : /var/folders/2v/xbgp75_9785319ghcgb4zr4r0000gp/T//molpro.ioW0YS4lho/
 Global scratch directory       : /var/folders/2v/xbgp75_9785319ghcgb4zr4r0000gp/T//molpro.ioW0YS4lho/
 Wavefunction directory         : /Users/sacpjk/wfu/
 Main file repository           : /var/folders/2v/xbgp75_9785319ghcgb4zr4r0000gp/T//molpro.ioW0YS4lho/

 id        : peterk

 Nodes                        nprocs
 Cardiff-University-G34YLXT77Y    1
 GA implementation: MPI file
 GA implementation (serial work in mppx): MPI file

 Using customized tuning parameters: mindgm=1; mindgv=20; mindgc=4; mindgr=1; noblas=0; minvec=7
 default implementation of scratch files=df  


 Variables initialized (1032), CPU time= 0.00 sec
 
 symmetry,nosym
 
 
 geometry={
 4
  c          0.000000000000    0.000000000000    0.604994036057
  h          0.000000000000    0.000000000000    1.671580718726
  c          0.000000000000    0.000000000000   -0.607660981067
  h          0.000000000000    0.000000000000   -1.668913773769
 }
 basis=aug-cc-pVTZ
 
 
 
 hf; hf; papt; mp4; counterpoise
 
 
 
 {put,xml;noorbitals,nobasis}
 Commands initialized (841), CPU time= 0.01 sec, 704 directives.
 Default parameters read. Elapsed time= 1.06 sec

 Checking input...
 Passed
1


                                         ***  PROGRAM SYSTEM MOLPRO  ***
                                       Copyright, TTI GmbH Stuttgart, 2015
                                    Version 2023.1 linked Tue Jun  6 09:54:11 2023


 **********************************************************************************************************************************
 LABEL *                                                                                                                                                                 
  64 bit serial version                                                                  DATE: 08-Jun-23          TIME: 16:59:38  
 **********************************************************************************************************************************

 SHA1:             8ebb0dd001088a5c915591db1a321413035db0b1
 **********************************************************************************************************************************

 Memory per process:       805 MW
 Total memory per node:   1074 MW
 Total GA space:           268 MW

 GA preallocation disabled
 GA check enabled

 Variable memory set to 805.3 MW

 ZSYMEL=NOSYM


 Geometry recognized as XYZ

 SETTING BASIS          =    AUG-CC-PVTZ


 Recomputing integrals since basis changed


 Using spherical harmonics

 Library entry C      S aug-cc-pVTZ          selected for orbital group  1
 Library entry C      P aug-cc-pVTZ          selected for orbital group  1
 Library entry C      D aug-cc-pVTZ          selected for orbital group  1
 Library entry C      F aug-cc-pVTZ          selected for orbital group  1
 Library entry H      S aug-cc-pVTZ          selected for orbital group  2
 Library entry H      P aug-cc-pVTZ          selected for orbital group  2
 Library entry H      D aug-cc-pVTZ          selected for orbital group  2


 PROGRAM * SEWARD (Integral evaluation for generally contracted gaussian basis sets)     Author: Roland Lindh, 1990

 Geometry written to block  1 of record 700


 Point group  C1  



 ATOMIC COORDINATES

 NR  ATOM    CHARGE       X              Y              Z

   1  C       6.00    0.000000000    0.000000000    1.143273035
   2  H       1.00    0.000000000    0.000000000    3.158829754
   3  C       6.00    0.000000000    0.000000000   -1.148312831
   4  H       1.00    0.000000000    0.000000000   -3.153789958

 Bond lengths in Bohr (Angstrom)

 1-2  2.015556718  1-3  2.291585866  3-4  2.005477127
     ( 1.066586683)     ( 1.212655017)     ( 1.061252793)

 Bond angles

  1-3-4  180.00000000   2-1-3  179.99999809

 NUCLEAR CHARGE:                   14
 NUMBER OF PRIMITIVE AOS:         188
 NUMBER OF SYMMETRY AOS:          166
 NUMBER OF CONTRACTIONS:          138   (  138A   )
 NUMBER OF INNER CORE ORBITALS:     0   (    0A   )
 NUMBER OF OUTER CORE ORBITALS:     2   (    2A   )
 NUMBER OF VALENCE ORBITALS:       10   (   10A   )


 NUCLEAR REPULSION ENERGY   24.62604688

 EXTRA SYMMETRY OF AOS IN SYMMETRY 1:   1 1 1 1 1 2 3 1 2 3   1 2 3 1 2 3 1 1 4 2   5 3 1 4 2 5 3 1 4 2   5 3 2 3 1 6 4 7 5 2
                                        3 1 6 4 7 5 1 1 1 1   2 3 1 2 3 1 2 3 1 1   4 2 5 3 1 4 2 5 3 1   1 1 1 1 2 3 1 2 3 1
                                        2 3 1 2 3 1 1 4 2 5   3 1 4 2 5 3 1 4 2 5   3 2 3 1 6 4 7 5 2 3   1 6 4 7 5 1 1 1 1 2
                                        3 1 2 3 1 2 3 1 1 4   2 5 3 1 4 2 5 3

 Eigenvalues of metric

         1 0.869E-05 0.140E-04 0.746E-04 0.122E-03 0.325E-03 0.366E-03 0.366E-03 0.612E-03


 Contracted 2-electron integrals neglected if value below      1.0D-12
 AO integral compression algorithm  1   Integral accuracy      1.0D-12

     81.789 MB (compressed) written to integral file ( 17.8%)


 NUMBER OF SORTED TWO-ELECTRON INTEGRALS:   45998436.     BUFFER LENGTH:  32768
 NUMBER OF SEGMENTS:   3  SEGMENT LENGTH:   15998004      RECORD LENGTH: 524288

 Memory used in sort:      16.56 MW

 SORT1 READ    57346098. AND WROTE     9719023. INTEGRALS IN     29 RECORDS. CPU TIME:     0.22 SEC, REAL TIME:     0.27 SEC
 SORT2 READ     9719023. AND WROTE    45998436. INTEGRALS IN    312 RECORDS. CPU TIME:     0.28 SEC, REAL TIME:     0.34 SEC

 FILE SIZES:   FILE 1:   112.5 MBYTE,  FILE 4:   121.7 MBYTE,   TOTAL:    234.2 MBYTE

 OPERATOR DM      FOR CENTER  0  COORDINATES:    0.000000    0.000000    0.000000


 **********************************************************************************************************************************
 DATASETS  * FILE   NREC   LENGTH (MB)   RECORD NAMES
              1      19       88.08       500      610      700      900      950      970     1000      129      960     1100   
                                          VAR    BASINP    GEOM    SYMINP    ZMAT    AOBASIS   BASIS     P2S    ABASIS      S 
                                         1400     1410     1200     1210     1080     1600     1650     1300     1700   
                                           T        V       H0       H01     AOSYM     SMH    MOLCAS    ERIS     OPER   

 PROGRAMS   *        TOTAL       INT
 CPU TIMES  *         1.67      1.56
 REAL TIME  *         7.00 SEC
 DISK USED  *       223.79 MB
 **********************************************************************************************************************************


 Program * Restricted Hartree-Fock

 Orbital guess generated from atomic densities. Full valence occupancy:   12

 Initial occupancy:   7

 NELEC=   14   SYM=1   MS2= 0   THRE=1.0D-08   THRD=3.2D-06   THRG=3.2D-06  HFMA2=F  DIIS_START=2   DIIS_MAX=10   DIIS_INCORE=F

 Level shifts:    0.00 (CLOSED)    0.00 (OPEN)    0.30 (GAP_MIN)

 ITER           ETOT              DE          GRAD        DDIFF     DIIS  NEXP   TIME(IT)  TIME(TOT)  DIAG
   1      -76.83405335     -76.83405335     0.00D+00     0.55D-01     0     0       0.20      0.38    start
   2      -76.84757611      -0.01352276     0.38D-02     0.78D-02     1     0       0.22      0.60    diag
   3      -76.84883453      -0.00125842     0.12D-02     0.12D-02     2     0       0.21      0.81    diag
   4      -76.84896237      -0.00012784     0.25D-03     0.55D-03     3     0       0.22      1.03    diag
   5      -76.84896808      -0.00000571     0.54D-04     0.10D-03     4     0       0.20      1.23    diag
   6      -76.84896837      -0.00000029     0.15D-04     0.19D-04     5     0       0.23      1.46    diag
   7      -76.84896843      -0.00000006     0.71D-05     0.78D-05     6     0       0.22      1.68    diag
   8      -76.84896843      -0.00000000     0.70D-06     0.17D-05     7     0       0.20      1.88    fixocc
   9      -76.84896843      -0.00000000     0.91D-07     0.14D-06     0     0       0.22      2.10    diag

 Final occupancy:   7

 !RHF STATE 1.1 Energy                -76.848968429984
  RHF One-electron energy            -151.377112667234
  RHF Two-electron energy              49.902097355205
  RHF Kinetic energy                   76.626881269293
  RHF Nuclear energy                   24.626046882045
  RHF Virial quotient                  -1.002898293093

 !RHF STATE 1.1 Dipole moment          -0.00000000    -0.00000000     0.00228325
 Dipole moment /Debye                  -0.00000000    -0.00000000     0.00580345

 Orbital energies:

           1.1          2.1          3.1          4.1          5.1          6.1          7.1          8.1          9.1
    -11.247310   -11.243680    -1.027945    -0.768773    -0.680859    -0.408945    -0.408945     0.030979     0.032573


 HOMO      7.1    -0.408945 =     -11.1280eV
 LUMO      8.1     0.030979 =       0.8430eV
 LUMO-HOMO         0.439924 =      11.9709eV

 Orbitals saved in record  2100.2


 **********************************************************************************************************************************
 DATASETS  * FILE   NREC   LENGTH (MB)   RECORD NAMES
              1      19       88.08       500      610      700      900      950      970     1000      129      960     1100   
                                          VAR    BASINP    GEOM    SYMINP    ZMAT    AOBASIS   BASIS     P2S    ABASIS      S 
                                         1400     1410     1200     1210     1080     1600     1650     1300     1700   
                                           T        V       H0       H01     AOSYM     SMH    MOLCAS    ERIS     OPER   

              2       4        0.74       700     1000      520     2100   
                                         GEOM     BASIS   MCVARS     RHF  

 PROGRAMS   *        TOTAL    HF-SCF       INT
 CPU TIMES  *         3.77      2.10      1.56
 REAL TIME  *         9.96 SEC
 DISK USED  *       223.79 MB
 **********************************************************************************************************************************


 Program * Restricted Hartree-Fock

 Molecular orbitals read from record     2100.2  Type=RHF/CANONICAL  

 Initial occupancy:   7

 NELEC=   14   SYM=1   MS2= 0   THRE=1.0D-08   THRD=3.2D-06   THRG=3.2D-06  HFMA2=F  DIIS_START=2   DIIS_MAX=10   DIIS_INCORE=F

 Level shifts:    0.00 (CLOSED)    0.00 (OPEN)    0.30 (GAP_MIN)

 ITER           ETOT              DE          GRAD        DDIFF     DIIS  NEXP   TIME(IT)  TIME(TOT)  DIAG
   1      -76.84896843     -76.84896843     0.00D+00     0.59D-01     0     0       0.21      0.21    start
   2      -76.84896843      -0.00000000     0.31D-07     0.40D-07     1     0       0.21      0.42    diag

 Final occupancy:   7

 !RHF STATE 1.1 Energy                -76.848968429986
  RHF One-electron energy            -151.377112390255
  RHF Two-electron energy              49.902097078224
  RHF Kinetic energy                   76.626881393002
  RHF Nuclear energy                   24.626046882045
  RHF Virial quotient                  -1.002898291474

 !RHF STATE 1.1 Dipole moment          -0.00000000     0.00000000     0.00228274
 Dipole moment /Debye                  -0.00000000     0.00000000     0.00580215

 Orbital energies:

           1.1          2.1          3.1          4.1          5.1          6.1          7.1          8.1          9.1
    -11.247310   -11.243680    -1.027946    -0.768773    -0.680860    -0.408945    -0.408945     0.030979     0.032573


 HOMO      7.1    -0.408945 =     -11.1280eV
 LUMO      8.1     0.030979 =       0.8430eV
 LUMO-HOMO         0.439924 =      11.9709eV

 Orbitals saved in record  2101.2


 **********************************************************************************************************************************
 DATASETS  * FILE   NREC   LENGTH (MB)   RECORD NAMES
              1      19       88.08       500      610      700      900      950      970     1000      129      960     1100   
                                          VAR    BASINP    GEOM    SYMINP    ZMAT    AOBASIS   BASIS     P2S    ABASIS      S 
                                         1400     1410     1200     1210     1080     1600     1650     1300     1700   
                                           T        V       H0       H01     AOSYM     SMH    MOLCAS    ERIS     OPER   

              2       5        1.35       700     1000      520     2100     2101   
                                         GEOM     BASIS   MCVARS     RHF      RHF  

 PROGRAMS   *        TOTAL    HF-SCF    HF-SCF       INT
 CPU TIMES  *         4.21      0.44      2.10      1.56
 REAL TIME  *        11.46 SEC
 DISK USED  *       223.79 MB
 **********************************************************************************************************************************


 PROGRAM * PAPT (Closed-shell)     Authors: C. Hampel, H.-J. Werner, 1991, P.J. Knowles, 2021


 Convergence thresholds:  THRVAR = 1.00D-08  THRDEN = 1.00D-06

 Number of core orbitals:           2 (   2 )
 Number of closed-shell orbitals:   5 (   5 )
 Number of external orbitals:     131 ( 131 )

 Molecular orbitals read from record     2101.2  Type=RHF/CANONICAL  

 Number of N-1 electron functions:               5
 Number of N-2 electron functions:              15
 Number of singly external CSFs:               655
 Number of doubly external CSFs:            214840
 Total number of CSFs:                      215496

 Length of J-op  integral file:               0.00 MB
 Length of K-op  integral file:               1.37 MB

 Integral transformation finished. Total CPU:   0.28 sec, npass=  1  Memory used:   0.88 MW

 Reference energy:                    -76.84896843

                        CORR.ENERGY   TOTAL ENERGY   ENERGY CHANGE
 MP2:                   -0.31507107   -77.16403950    -0.31507107

 SCS-MP2 correlation energy:           -0.31516685   (PS=  1.200000  PT=  0.333333)
 SCS-MP2 total energy:                -77.16413528
 Iteration:   1     0.2682D+00
 Iteration:   2     0.3699D+00
 Iteration:   3     0.9712D-01
 Iteration:   4     0.6424D-01
 Iteration:   5     0.5165D-01
 Iteration:   6     0.1416D-01
 Iteration:   7     0.2060D-01
 Iteration:   8     0.5186D-02
 Iteration:   9     0.1482D-02
 Iteration:  10     0.1475D-01
 Iteration:  11     0.2417D-03
 Iteration:  12     0.4818D-04
 PAPT operator written to  7000.1
 PAPT orbitals and eigenvalues written to  7000.2

 MP3(D):                -0.32387453   -77.17284296    -0.00880346



 RESULTS
 =======

  Reference energy                    -76.848968429986
  MP3 singlet pair energy              -0.224482631875
  MP3 triplet pair energy              -0.099391898484
  MP3 correlation energy               -0.323874530360

 !MP3 total energy                    -77.172842960346

 Timing summary (sec):

 STEP                 CPU(USER)    SYS     CPU(TOT)    WALL
 Transformation          0.30      0.02      0.32      0.52
 CCSD iterations         5.05      0.07      5.12      2.34

 Program statistics:

 Available memory in ccsd:               805306261
 Min. memory needed in ccsd:                843555
 Max. memory used in ccsd:                 1006405
 Max. memory used in cckext:                717384 ( 1 integral passes)



 **********************************************************************************************************************************
 DATASETS  * FILE   NREC   LENGTH (MB)   RECORD NAMES
              1      21       91.72       500      610      700      900      950      970     1000      129      960     1100   
                                          VAR    BASINP    GEOM    SYMINP    ZMAT    AOBASIS   BASIS     P2S    ABASIS      S 
                                         1400     1410     1200     1210     1080     1600     1650     1300     1700     1380   
                                           T        V       H0       H01     AOSYM     SMH    MOLCAS    ERIS     OPER     JKOP   
                                         7000   
                                        PAPT AO    

              2       6        1.88       700     1000      520     2100     2101     7000   
                                         GEOM     BASIS   MCVARS     RHF      RHF     PAPT   

 PROGRAMS   *        TOTAL      PAPT    HF-SCF    HF-SCF       INT
 CPU TIMES  *         5.24      1.03      0.44      2.10      1.56
 REAL TIME  *        14.59 SEC
 DISK USED  *       223.79 MB
 **********************************************************************************************************************************


 PROGRAM * MP4 (Closed-shell)     Authors: C. Hampel, H.-J. Werner, 1991, M. Deegan, P.J. Knowles, 1992


 Convergence thresholds:  THRVAR = 1.00D-08  THRDEN = 1.00D-06

 MP4(T)     terms to be evaluated (factor= 0.000)


 Number of core orbitals:           2 (   2 )
 Number of closed-shell orbitals:   5 (   5 )
 Number of external orbitals:     131 ( 131 )

 Molecular orbitals read from record     7000.2  Type=PAPT/CANONICAL (state 1.1)

 Number of N-1 electron functions:               5
 Number of N-2 electron functions:              15
 Number of singly external CSFs:               655
 Number of doubly external CSFs:            214840
 Total number of CSFs:                      215496

 Length of J-op  integral file:               0.00 MB
 Length of K-op  integral file:               1.37 MB

 Memory could be reduced to 17.65 Mwords without degradation in triples

 Integral transformation finished. Total CPU:   0.68 sec, npass=  1  Memory used:   8.82 MW
 Orbital energies read from record       7000.2  Type=PAPT/CANONICAL (state 1.1)

 Reference energy:                    -76.84896843

                        CORR.ENERGY   TOTAL ENERGY   ENERGY CHANGE
 MP2:                   -0.32777671   -77.17674514    -0.32777671

 SCS-MP2 correlation energy:           -0.32969828   (PS=  1.200000  PT=  0.333333)
 SCS-MP2 total energy:                -77.17866671

 MP3(D):                -0.32776192   -77.17673035     0.00001479
 MP4(DQ):               -0.32224791   -77.17121634     0.00551401
 MP4(SDQ):              -0.32541278   -77.17438121    -0.00316487

 Norm of t1 vector:      0.04609214      S-energy:    -0.00316487      T1 diagnostic:  0.01030651

 Largest off-diagonal element in interal  block of Fock matrix:  0.15D+00
 Largest off-diagonal element in external block of Fock matrix:  0.37D+00


 Total CPU time for triples:      2.95 sec


 RESULTS
 =======

  Reference energy                    -76.848968429986
  MP4(SDQ) singlet pair energy         -0.223499855021
  MP4(SDQ) triplet pair energy         -0.098748055059
  MP4(SDQ) correlation energy          -0.325412784624

  Triples contribution                 -0.019255778389
  Total correlation energy             -0.344668563013

  MP4(SDQ) total energy               -77.174381214610
 !MP4(SDTQ) total energy              -77.193636993000

 Timing summary (sec):

 STEP                 CPU(USER)    SYS     CPU(TOT)    WALL
 Transformation          0.89      0.07      0.96      1.64
 CCSD iterations         5.79      0.01      5.80      1.02
 Triples                 2.95      0.16      3.11      3.84

 Program statistics:

 Available memory in ccsd:               805306261
 Min. memory needed in ccsd:                843555
 Max. memory used in ccsd:                 1006405
 Max. memory used in cckext:                717384 ( 1 integral passes)



 **********************************************************************************************************************************
 DATASETS  * FILE   NREC   LENGTH (MB)   RECORD NAMES
              1      22      134.93       500      610      700      900      950      970     1000      129      960     1100   
                                          VAR    BASINP    GEOM    SYMINP    ZMAT    AOBASIS   BASIS     P2S    ABASIS      S 
                                         1400     1410     1200     1210     1080     1600     1650     1300     1700     1380   
                                           T        V       H0       H01     AOSYM     SMH    MOLCAS    ERIS     OPER     JKOP   
                                         7000     1380(1)
                                        PAPT AO   JKOP   

              2       6        1.88       700     1000      520     2100     2101     7000   
                                         GEOM     BASIS   MCVARS     RHF      RHF     PAPT   

 PROGRAMS   *        TOTAL       MP4      PAPT    HF-SCF    HF-SCF       INT
 CPU TIMES  *         9.53      4.28      1.03      0.44      2.10      1.56
 REAL TIME  *        22.52 SEC
 DISK USED  *       223.79 MB
 **********************************************************************************************************************************

 Counterpoise: absolute minimum monomer separation=    -1.000 Bragg radius scale factor=     1.400 Number of monomers= 1
 Counterpoise skipped because only a single monomer


 **********************************************************************************************************************************
 DATASETS  * FILE   NREC   LENGTH (MB)   RECORD NAMES
              1      22      134.93       500      610      700      900      950      970     1000      129      960     1100   
                                          VAR    BASINP    GEOM    SYMINP    ZMAT    AOBASIS   BASIS     P2S    ABASIS      S 
                                         1400     1410     1200     1210     1080     1600     1650     1300     1700     1380   
                                           T        V       H0       H01     AOSYM     SMH    MOLCAS    ERIS     OPER     JKOP   
                                         7000     1380(1)
                                        PAPT AO   JKOP   

              2       6        1.88       700     1000      520     2100     2101     7000   
                                         GEOM     BASIS   MCVARS     RHF      RHF     PAPT   

 PROGRAMS   *        TOTALCOUNTERPOI       MP4      PAPT    HF-SCF    HF-SCF       INT
 CPU TIMES  *         9.53      0.00      4.28      1.03      0.44      2.10      1.56
 REAL TIME  *        22.63 SEC
 DISK USED  *       223.79 MB
 **********************************************************************************************************************************

 Dump information in style XML to xml output                                                                      

 Orbitals will not be exported.

 **********************************************************************************************************************************

 MP4/aug-cc-pVTZ energy=    -77.193636993000

             MP4            PAPT          HF-SCF          HF-SCF
    -77.19363699    -77.17284296    -76.84896843    -76.84896843
 **********************************************************************************************************************************
 Molpro calculation terminated
