
 Working directory              : /var/folders/2v/xbgp75_9785319ghcgb4zr4r0000gp/T//molpro.LPBWn6viVL/
 Global scratch directory       : /var/folders/2v/xbgp75_9785319ghcgb4zr4r0000gp/T//molpro.LPBWn6viVL/
 Wavefunction directory         : /Users/sacpjk/wfu/
 Main file repository           : /var/folders/2v/xbgp75_9785319ghcgb4zr4r0000gp/T//molpro.LPBWn6viVL/

 id        : peterk

 Nodes                        nprocs
 Cardiff-University-G34YLXT77Y    1
 GA implementation: MPI file
 GA implementation (serial work in mppx): MPI file

 Using customized tuning parameters: mindgm=1; mindgv=20; mindgc=4; mindgr=1; noblas=0; minvec=7
 default implementation of scratch files=df  


 Variables initialized (1032), CPU time= 0.00 sec
 
 symmetry,nosym
 
 
 geometry={
            8
     N         -0.77907197      0.10994832      0.00000000
     N         -0.03149962      0.01698457      1.22272462
     N         -0.03149962      0.01698457     -1.22272462
     H          0.73807619     -0.65953384     -1.13084901
     H          0.38903766      0.93051636     -1.38896889
     H          0.73807619     -0.65953384      1.13084901
     H          0.38903766      0.93051636      1.38896889
     H         -1.41215648     -0.68588250      0.00000000
 }
 basis=cc-pVTZ
 
 
 
 hf; ccsd
 
 
 
 {put,xml;noorbitals,nobasis}
 Commands initialized (841), CPU time= 0.01 sec, 704 directives.
 Default parameters read. Elapsed time= 0.72 sec

 Checking input...
 Passed
1


                                         ***  PROGRAM SYSTEM MOLPRO  ***
                                       Copyright, TTI GmbH Stuttgart, 2015
                                    Version 2023.1 linked Tue Jun  6 09:54:11 2023


 **********************************************************************************************************************************
 LABEL *                                                                                                                                                                 
  64 bit serial version                                                                  DATE: 13-Jun-23          TIME: 04:32:18  
 **********************************************************************************************************************************

 SHA1:             8ebb0dd001088a5c915591db1a321413035db0b1
 **********************************************************************************************************************************

 Memory per process:       393 MW
 Total memory per node:    524 MW
 Total GA space:           131 MW

 GA preallocation disabled
 GA check enabled

 Variable memory set to 393.2 MW

 ZSYMEL=NOSYM


 Geometry recognized as XYZ

 SETTING BASIS          =    CC-PVTZ


 Recomputing integrals since basis changed


 Using spherical harmonics

 Library entry N      S cc-pVTZ              selected for orbital group  1
 Library entry N      P cc-pVTZ              selected for orbital group  1
 Library entry N      D cc-pVTZ              selected for orbital group  1
 Library entry N      F cc-pVTZ              selected for orbital group  1
 Library entry H      S cc-pVTZ              selected for orbital group  2
 Library entry H      P cc-pVTZ              selected for orbital group  2
 Library entry H      D cc-pVTZ              selected for orbital group  2


 PROGRAM * SEWARD (Integral evaluation for generally contracted gaussian basis sets)     Author: Roland Lindh, 1990

 Geometry written to block  1 of record 700


 Point group  C1  



 ATOMIC COORDINATES

 NR  ATOM    CHARGE       X              Y              Z

   1  N       7.00   -1.472232655    0.207772213    0.000000000
   2  N       7.00   -0.059525655    0.032096186    2.310614658
   3  N       7.00   -0.059525655    0.032096186   -2.310614658
   4  H       1.00    1.394761858   -1.246338328   -2.136994917
   5  H       1.00    0.735174630    1.758421075   -2.624770798
   6  H       1.00    1.394761858   -1.246338328    2.136994917
   7  H       1.00    0.735174630    1.758421075    2.624770798
   8  H       1.00   -2.668588992   -1.296130079    0.000000000

 Bond lengths in Bohr (Angstrom)

 1-2  2.713953432  1-3  2.713953432  1-8  1.921715533  2-6  1.944091250  2-7  1.926250307
     ( 1.436162308)     ( 1.436162308)     ( 1.016928066)     ( 1.028768786)     ( 1.019327765)

 3-4  1.944091250  3-5  1.926250307
     ( 1.028768786)     ( 1.019327765)

 Bond angles

  1-2-6  110.84993942   1-2-7  107.19322767   1-3-4  110.84993942   1-3-5  107.19322767

  2-1-3  116.72489227   2-1-8  105.86666820   3-1-8  105.86666820   4-3-5  107.17509527

  6-2-7  107.17509527

 NUCLEAR CHARGE:                   26
 NUMBER OF PRIMITIVE AOS:         226
 NUMBER OF SYMMETRY AOS:          206
 NUMBER OF CONTRACTIONS:          160   (  160A   )
 NUMBER OF INNER CORE ORBITALS:     0   (    0A   )
 NUMBER OF OUTER CORE ORBITALS:     3   (    3A   )
 NUMBER OF VALENCE ORBITALS:       17   (   17A   )


 NUCLEAR REPULSION ENERGY   83.69244272


 Eigenvalues of metric

         1 0.114E-02 0.114E-02 0.191E-02 0.255E-02 0.272E-02 0.342E-02 0.356E-02 0.522E-02


 Contracted 2-electron integrals neglected if value below      1.0D-11
 AO integral compression algorithm  1   Integral accuracy      1.0D-11

     353.894 MB (compressed) written to integral file ( 47.7%)


 NUMBER OF SORTED TWO-ELECTRON INTEGRALS:   82953640.     BUFFER LENGTH:  32768
 NUMBER OF SEGMENTS:   6  SEGMENT LENGTH:   15999503      RECORD LENGTH: 524288

 Memory used in sort:      16.56 MW

 SORT1 READ    92777261. AND WROTE    79990162. INTEGRALS IN    232 RECORDS. CPU TIME:     0.57 SEC, REAL TIME:     0.75 SEC
 SORT2 READ    79990162. AND WROTE    82953640. INTEGRALS IN   1350 RECORDS. CPU TIME:     0.53 SEC, REAL TIME:     0.67 SEC

 FILE SIZES:   FILE 1:   385.0 MBYTE,  FILE 4:   973.1 MBYTE,   TOTAL:   1358.1 MBYTE

 OPERATOR DM      FOR CENTER  0  COORDINATES:    0.000000    0.000000    0.000000


 **********************************************************************************************************************************
 DATASETS  * FILE   NREC   LENGTH (MB)   RECORD NAMES
              1      19      335.59       500      610      700      900      950      970     1000      129      960     1100   
                                          VAR    BASINP    GEOM    SYMINP    ZMAT    AOBASIS   BASIS     P2S    ABASIS      S 
                                         1400     1410     1200     1210     1080     1600     1650     1300     1700   
                                           T        V       H0       H01     AOSYM     SMH    MOLCAS    ERIS     OPER   

 PROGRAMS   *        TOTAL       INT
 CPU TIMES  *         3.01      2.92
 REAL TIME  *         6.01 SEC
 DISK USED  *         1.27 GB
 **********************************************************************************************************************************


 Program * Restricted Hartree-Fock

 Orbital guess generated from atomic densities. Full valence occupancy:   20

 Initial occupancy:  13

 NELEC=   26   SYM=1   MS2= 0   THRE=1.0D-08   THRD=3.2D-06   THRG=3.2D-06  HFMA2=F  DIIS_START=2   DIIS_MAX=10   DIIS_INCORE=F

 Level shifts:    0.00 (CLOSED)    0.00 (OPEN)    0.30 (GAP_MIN)

 ITER           ETOT              DE          GRAD        DDIFF     DIIS  NEXP   TIME(IT)  TIME(TOT)  DIAG
   1     -166.20010230    -166.20010230     0.00D+00     0.59D-01     0     0       0.36      0.69    start
   2     -166.23743408      -0.03733178     0.45D-02     0.57D-02     1     0       0.35      1.04    diag
   3     -166.24067089      -0.00323681     0.14D-02     0.14D-02     2     0       0.36      1.40    diag
   4     -166.24115012      -0.00047923     0.47D-03     0.52D-03     3     0       0.36      1.76    diag
   5     -166.24119574      -0.00004561     0.14D-03     0.15D-03     4     0       0.36      2.12    diag
   6     -166.24119921      -0.00000347     0.28D-04     0.45D-04     5     0       0.36      2.48    diag
   7     -166.24119957      -0.00000036     0.99D-05     0.14D-04     6     0       0.36      2.84    diag
   8     -166.24119963      -0.00000006     0.34D-05     0.72D-05     7     0       0.36      3.20    fixocc
   9     -166.24119964      -0.00000000     0.78D-06     0.19D-05     8     0       0.36      3.56    diag
  10     -166.24119964      -0.00000000     0.13D-06     0.23D-06     0     0       0.36      3.92    diag/orth

 Final occupancy:  13

 !RHF STATE 1.1 Energy               -166.241199637023
  RHF One-electron energy            -391.807223852053
  RHF Two-electron energy             141.873581499808
  RHF Kinetic energy                  165.876215039628
  RHF Nuclear energy                   83.692442715223
  RHF Virial quotient                  -1.002200343173

 !RHF STATE 1.1 Dipole moment           0.96622153    -0.16568375    -0.00000000
 Dipole moment /Debye                   2.45589018    -0.42112608    -0.00000000

 Orbital energies:

           1.1          2.1          3.1          4.1          5.1          6.1          7.1          8.1          9.1         10.1
    -15.603194   -15.574935   -15.574904    -1.306332    -1.136451    -0.958285    -0.706288    -0.655065    -0.628249    -0.622655

          11.1         12.1         13.1         14.1         15.1
     -0.457106    -0.407846    -0.398721     0.132295     0.175037


 HOMO     13.1    -0.398721 =     -10.8498eV
 LUMO     14.1     0.132295 =       3.5999eV
 LUMO-HOMO         0.531016 =      14.4497eV

 Orbitals saved in record  2100.2


 **********************************************************************************************************************************
 DATASETS  * FILE   NREC   LENGTH (MB)   RECORD NAMES
              1      19      335.59       500      610      700      900      950      970     1000      129      960     1100   
                                          VAR    BASINP    GEOM    SYMINP    ZMAT    AOBASIS   BASIS     P2S    ABASIS      S 
                                         1400     1410     1200     1210     1080     1600     1650     1300     1700   
                                           T        V       H0       H01     AOSYM     SMH    MOLCAS    ERIS     OPER   

              2       4        0.91       700     1000      520     2100   
                                         GEOM     BASIS   MCVARS     RHF  

 PROGRAMS   *        TOTAL    HF-SCF       INT
 CPU TIMES  *         6.93      3.92      2.92
 REAL TIME  *        10.88 SEC
 DISK USED  *         1.27 GB
 **********************************************************************************************************************************


 PROGRAM * CCSD (Closed-shell coupled cluster)     Authors: C. Hampel, H.-J. Werner, 1991, M. Deegan, P.J. Knowles, 1992


 Convergence thresholds:  THRVAR = 1.00D-08  THRDEN = 1.00D-06

 Number of core orbitals:           3 (   3 )
 Number of closed-shell orbitals:  10 (  10 )
 Number of external orbitals:     147 ( 147 )

 Molecular orbitals read from record     2100.2  Type=RHF/CANONICAL  

 Number of N-1 electron functions:              10
 Number of N-2 electron functions:              55
 Number of singly external CSFs:              1470
 Number of doubly external CSFs:           1081185
 Total number of CSFs:                     1082656

 Length of J-op  integral file:               0.00 MB
 Length of K-op  integral file:               1.82 MB
 Length of 3-ext integral record:             0.00 MB

 Integral transformation finished. Total CPU:   1.31 sec, npass=  1  Memory used:  25.58 MW

 Reference energy:                   -166.24119964

 MP2 singlet pair energy:              -0.41664570
 MP2 triplet pair energy:              -0.23430756
 MP2 correlation energy:               -0.65095326
 MP2 total energy:                   -166.89215290

 SCS-MP2 correlation energy:           -0.64576621   (PS=  1.200000  PT=  0.333333)
 SCS-MP2 total energy:               -166.88696585

 ITER.      SQ.NORM     CORR.ENERGY   TOTAL ENERGY   ENERGY CHANGE        DEN1      VAR(S)    VAR(P)  DIIS     TIME  TIME/IT
   1      1.18579324    -0.67090520  -166.91210484    -0.01995194    -0.00425575  0.20D-02  0.29D-02  1  1     9.91     1.80
   2      1.19757344    -0.67265591  -166.91385555    -0.00175071    -0.01408848  0.40D-04  0.36D-03  2  2    11.54     1.84
   3      1.20185993    -0.67277809  -166.91397773    -0.00012218    -0.00278917  0.24D-04  0.19D-04  3  3    13.18     1.85
   4      1.20312074    -0.67281041  -166.91401005    -0.00003232    -0.00059689  0.22D-05  0.24D-05  4  4    14.79     1.85
   5      1.20346019    -0.67281750  -166.91401714    -0.00000709    -0.00010257  0.83D-06  0.20D-06  5  5    16.40     1.84
   6      1.20357693    -0.67281153  -166.91401116     0.00000598    -0.00002229  0.12D-06  0.29D-07  6  6    18.01     1.84
   7      1.20360790    -0.67281068  -166.91401032     0.00000085    -0.00000156  0.13D-07  0.56D-08  6  2    19.62     1.83
   8      1.20361884    -0.67281014  -166.91400978     0.00000054    -0.00000059  0.17D-08  0.60D-09  6  1    21.25     1.83

 Norm of t1 vector:      0.06009211      S-energy:    -0.00000043      T1 diagnostic:  0.00950140
                                                                       D1 diagnostic:  0.02621379
                                                                       D2 diagnostic:  0.14877238 (internal)


 RESULTS
 =======

  Reference energy                   -166.241199637022
  CCSD singlet pair energy             -0.462524293071
  CCSD triplet pair energy             -0.210285420730
  CCSD correlation energy              -0.672810139776

 !CCSD total energy                  -166.914009776799

 Timing summary (sec):

 STEP                 CPU(USER)    SYS     CPU(TOT)    WALL
 Transformation          1.34      0.14      1.48      1.64
 CCSD iterations        19.94      0.81     20.75     14.80

 Program statistics:

 Available memory in ccsd:               393215587
 Min. memory needed in ccsd:               3016044
 Max. memory used in ccsd:                 3950009
 Max. memory used in cckext:               3048515 ( 8 integral passes)



 **********************************************************************************************************************************
 DATASETS  * FILE   NREC   LENGTH (MB)   RECORD NAMES
              1      20      474.13       500      610      700      900      950      970     1000      129      960     1100   
                                          VAR    BASINP    GEOM    SYMINP    ZMAT    AOBASIS   BASIS     P2S    ABASIS      S 
                                         1400     1410     1200     1210     1080     1600     1650     1300     1700     1380   
                                           T        V       H0       H01     AOSYM     SMH    MOLCAS    ERIS     OPER     JKOP   

              2       4        0.91       700     1000      520     2100   
                                         GEOM     BASIS   MCVARS     RHF  

 PROGRAMS   *        TOTAL      CCSD    HF-SCF       INT
 CPU TIMES  *        21.20     14.27      3.92      2.92
 REAL TIME  *        27.48 SEC
 DISK USED  *         1.27 GB
 **********************************************************************************************************************************

 Dump information in style XML to xml output                                                                      

 Orbitals will not be exported.

 **********************************************************************************************************************************

 CCSD/cc-pVTZ energy=   -166.914009776799

            CCSD          HF-SCF
   -166.91400978   -166.24119964
 **********************************************************************************************************************************
 Molpro calculation terminated
