
 Working directory              : /tmp/peterk/molpro.7SlIATrENH/
 Global scratch directory       : /tmp/peterk/molpro.7SlIATrENH/
 Wavefunction directory         : /home/peterk/wfu/
 Main file repository           : /tmp/peterk/molpro.7SlIATrENH/

 id        : peterk

 Nodes     nprocs
 marat        1
 GA implementation: MPI file
 GA implementation (serial work in mppx): MPI file

 Using customized tuning parameters: mindgm=1; mindgv=20; mindgc=4; mindgr=1; noblas=0; minvec=7
 default implementation of scratch files=df  


 Variables initialized (1032), CPU time= 0.00 sec
 
 symmetry,nosym
 
 
 geometry={
           18
     SI         0.67139927      0.96171872      1.80521348
     SI        -0.67139927     -0.96171872      1.80521348
     SI         0.00000000     -2.31395795      0.00000000
     SI         0.67139927     -0.96171872     -1.80521348
     SI        -0.67139927      0.96171872     -1.80521348
     SI         0.00000000      2.31395795      0.00000000
     H          2.08573887      0.54782614      1.59489390
     H          0.59761219      1.71115483      3.08849794
     H         -0.59761219     -1.71115483      3.08849794
     H         -2.08573887     -0.54782614      1.59489390
     H         -1.12581429     -3.18741508     -0.42917386
     H          1.12581429     -3.18741508      0.42917386
     H          2.08573887     -0.54782614     -1.59489390
     H          0.59761219     -1.71115483     -3.08849794
     H         -2.08573887      0.54782614     -1.59489390
     H         -0.59761219      1.71115483     -3.08849794
     H         -1.12581429      3.18741508      0.42917386
     H          1.12581429      3.18741508     -0.42917386
 }
 basis=cc-pVDZ
 
 
 
 hf; ccsd(t)
 
 
 
 {put,xml;noorbitals,nobasis}
 Commands initialized (841), CPU time= 0.01 sec, 708 directives.
 Default parameters read. Elapsed time= 0.05 sec

 Checking input...
 Passed
1


                                         ***  PROGRAM SYSTEM MOLPRO  ***
                                       Copyright, TTI GmbH Stuttgart, 2015
                                    Version 2023.1 linked Sat Jun 10 08:01:27 2023


 **********************************************************************************************************************************
 LABEL *                                                                                                                                                                 
  (16 PROC) 64 bit serial version                                                        DATE: 13-Jun-23          TIME: 11:29:40  
 **********************************************************************************************************************************

 SHA1:             8376d659ba1296ca7ee514c57770fe2c96af278c
 **********************************************************************************************************************************

 Memory per process:      1074 MW
 Total memory per node:   1074 MW

 GA preallocation disabled
 GA check disabled

 Variable memory set to 1073.7 MW

 ZSYMEL=NOSYM


 Geometry recognized as XYZ

 SETTING BASIS          =    CC-PVDZ


 Recomputing integrals since basis changed


 Using spherical harmonics

 Library entry SI     S cc-pVDZ              selected for orbital group  1
 Library entry SI     P cc-pVDZ              selected for orbital group  1
 Library entry SI     D cc-pVDZ              selected for orbital group  1
 Library entry H      S cc-pVDZ              selected for orbital group  2
 Library entry H      P cc-pVDZ              selected for orbital group  2


 PROGRAM * SEWARD (Integral evaluation for generally contracted gaussian basis sets)     Author: Roland Lindh, 1990

 Geometry written to block  1 of record 700


 Point group  C1  



 ATOMIC COORDINATES

 NR  ATOM    CHARGE       X              Y              Z

   1  SI     14.00    1.268760741    1.817384990    3.411359074
   2  SI     14.00   -1.268760741   -1.817384990    3.411359074
   3  SI     14.00    0.000000000   -4.372746789    0.000000000
   4  SI     14.00    1.268760741   -1.817384990   -3.411359074
   5  SI     14.00   -1.268760741    1.817384990   -3.411359074
   6  SI     14.00    0.000000000    4.372746789    0.000000000
   7  H       1.00    3.941475232    1.035241369    3.013912669
   8  H       1.00    1.129323368    3.233613986    5.836415243
   9  H       1.00   -1.129323368   -3.233613986    5.836415243
  10  H       1.00   -3.941475232   -1.035241369    3.013912669
  11  H       1.00   -2.127480675   -6.023341547   -0.811021055
  12  H       1.00    2.127480675   -6.023341547    0.811021055
  13  H       1.00    3.941475232   -1.035241369   -3.013912669
  14  H       1.00    1.129323368   -3.233613986   -5.836415243
  15  H       1.00   -3.941475232    1.035241369   -3.013912669
  16  H       1.00   -1.129323368    3.233613986   -5.836415243
  17  H       1.00   -2.127480675    6.023341547    0.811021055
  18  H       1.00    2.127480675    6.023341547   -0.811021055

 Bond lengths in Bohr (Angstrom)

 1-2  4.432896127  1-6  4.447133737  1-7  2.813025958  1-8  2.811768976  2-3  4.447133737
     ( 2.345787609)     ( 2.353321827)     ( 1.488589231)     ( 1.487924064)     ( 2.353321827)

  2- 9  2.811768976   2-10  2.813025958   3- 4  4.447133737   3-11  2.812186379   3-12  2.812186379
       ( 1.487924064)       ( 1.488589231)       ( 2.353321827)       ( 1.488144944)       ( 1.488144944)

  4- 5  4.432896127   4-13  2.813025958   4-14  2.811768976   5- 6  4.447133737   5-15  2.813025958
       ( 2.345787609)       ( 1.488589231)       ( 1.487924064)       ( 2.353321827)       ( 1.488589231)

  5-16  2.811768976   6-17  2.812186379   6-18  2.812186379
       ( 1.487924064)       ( 1.488144944)       ( 1.488144944)

 Bond angles

  1- 2- 3  107.92906079   1- 2- 9  112.61930491   1- 2-10  108.41482557   1- 6- 5  109.85553033

  1- 6-17  109.38243490   1- 6-18  110.03864338   2- 1- 6  107.92906079   2- 1- 7  108.41482557

  2- 1- 8  112.61930491   2- 3- 4  109.85553033   2- 3-11  110.03864338   2- 3-12  109.38243490

  3- 2- 9  110.97890823   3- 2-10  108.81137139   3- 4- 5  107.92906079   3- 4-13  108.81137139

  3- 4-14  110.97890823   4- 3-11  109.38243490   4- 3-12  110.03864338   4- 5- 6  107.92906079

  4- 5-15  108.41482557   4- 5-16  112.61930491   5- 4-13  108.41482557   5- 4-14  112.61930491

  5- 6-17  110.03864338   5- 6-18  109.38243490   6- 1- 7  108.81137139   6- 1- 8  110.97890823

  6- 5-15  108.81137139   6- 5-16  110.97890823   7- 1- 8  108.00004762   9- 2-10  108.00004762

 11- 3-12  108.11917112  13- 4-14  108.00004762  15- 5-16  108.00004762  17- 6-18  108.11917112

 NUCLEAR CHARGE:                   96
 NUMBER OF PRIMITIVE AOS:         336
 NUMBER OF SYMMETRY AOS:          330
 NUMBER OF CONTRACTIONS:          168   (  168A   )
 NUMBER OF INNER CORE ORBITALS:     6   (    6A   )
 NUMBER OF OUTER CORE ORBITALS:    24   (   24A   )
 NUMBER OF VALENCE ORBITALS:       36   (   36A   )


 NUCLEAR REPULSION ENERGY  681.30113274


 Eigenvalues of metric

         1 0.189E-02 0.331E-02 0.395E-02 0.631E-02 0.737E-02 0.941E-02 0.951E-02 0.136E-01


 Contracted 2-electron integrals neglected if value below      1.0D-11
 AO integral compression algorithm  1   Integral accuracy      1.0D-11

     342.098 MB (compressed) written to integral file ( 41.2%)


 NUMBER OF SORTED TWO-ELECTRON INTEGRALS:  100770306.     BUFFER LENGTH:  32768
 NUMBER OF SEGMENTS:   7  SEGMENT LENGTH:   15999503      RECORD LENGTH: 524288

 Memory used in sort:      16.56 MW

 SORT1 READ   103847452. AND WROTE    89127263. INTEGRALS IN    258 RECORDS. CPU TIME:     0.94 SEC, REAL TIME:     1.60 SEC
 SORT2 READ    89127263. AND WROTE   100770306. INTEGRALS IN   1305 RECORDS. CPU TIME:     0.89 SEC, REAL TIME:     1.23 SEC

 FILE SIZES:   FILE 1:   373.5 MBYTE,  FILE 4:  1082.2 MBYTE,   TOTAL:   1455.7 MBYTE

 OPERATOR DM      FOR CENTER  0  COORDINATES:    0.000000    0.000000    0.000000


 **********************************************************************************************************************************
 DATASETS  * FILE   NREC   LENGTH (MB)   RECORD NAMES
              1      19      322.98       500      610      700      900      950      970     1000      129      960     1100   
                                          VAR    BASINP    GEOM    SYMINP    ZMAT    AOBASIS   BASIS     P2S    ABASIS      S 
                                         1400     1410     1200     1210     1080     1600     1650     1300     1700   
                                           T        V       H0       H01     AOSYM     SMH    MOLCAS    ERIS     OPER   

 PROGRAMS   *        TOTAL       INT
 CPU TIMES  *         8.58      8.48
 REAL TIME  *        10.69 SEC
 DISK USED  *         1.36 GB
 **********************************************************************************************************************************


 Program * Restricted Hartree-Fock

 Orbital guess generated from atomic densities. Full valence occupancy:   66

 Initial occupancy:  48

 NELEC=   96   SYM=1   MS2= 0   THRE=1.0D-08   THRD=3.2D-06   THRG=3.2D-06  HFMA2=F  DIIS_START=2   DIIS_MAX=10   DIIS_INCORE=F

 Level shifts:    0.00 (CLOSED)    0.00 (OPEN)    0.30 (GAP_MIN)

 ITER           ETOT              DE          GRAD        DDIFF     DIIS  NEXP   TIME(IT)  TIME(TOT)  DIAG
   1    -1740.50681109   -1740.50681109     0.00D+00     0.11D+00     0     0       0.60      1.15    start
   2    -1740.57073116      -0.06392007     0.20D-02     0.61D-02     1     0       0.60      1.75    diag
   3    -1740.57888585      -0.00815468     0.63D-03     0.22D-02     2     0       0.61      2.36    diag
   4    -1740.57927261      -0.00038676     0.16D-03     0.62D-03     3     0       0.59      2.95    diag
   5    -1740.57930456      -0.00003195     0.41D-04     0.19D-03     4     0       0.59      3.54    diag
   6    -1740.57930571      -0.00000115     0.70D-05     0.48D-04     5     0       0.61      4.15    diag
   7    -1740.57930575      -0.00000004     0.13D-05     0.95D-05     6     0       0.59      4.74    diag
   8    -1740.57930575      -0.00000000     0.22D-06     0.12D-05     7     0       0.61      5.35    fixocc
   9    -1740.57930575      -0.00000000     0.51D-07     0.21D-06     0     0       0.59      5.94    diag

 Final occupancy:  48

 !RHF STATE 1.1 Energy              -1740.579305751731
  RHF One-electron energy           -3773.183074467911
  RHF Two-electron energy            1351.302635973282
  RHF Kinetic energy                 1740.873846306581
  RHF Nuclear energy                  681.301132742899
  RHF Virial quotient                  -0.999830808789

 !RHF STATE 1.1 Dipole moment           0.00000000    -0.00000000    -0.00000000
 Dipole moment /Debye                   0.00000000    -0.00000000    -0.00000000

 Orbital energies:

           1.1          2.1          3.1          4.1          5.1          6.1          7.1          8.1          9.1         10.1
    -68.777227   -68.777227   -68.777226   -68.777226   -68.777138   -68.777138    -6.129322    -6.129321    -6.129243    -6.129188

          11.1         12.1         13.1         14.1         15.1         16.1         17.1         18.1         19.1         20.1
     -6.129037    -6.129011    -4.235136    -4.235083    -4.235025    -4.234981    -4.234967    -4.234948    -4.234856    -4.234849

          21.1         22.1         23.1         24.1         25.1         26.1         27.1         28.1         29.1         30.1
     -4.234846    -4.234824    -4.234635    -4.234624    -4.234474    -4.234450    -4.234396    -4.234353    -4.234265    -4.234209

          31.1         32.1         33.1         34.1         35.1         36.1         37.1         38.1         39.1         40.1
     -0.799289    -0.745979    -0.745644    -0.667983    -0.662547    -0.621923    -0.515749    -0.508797    -0.497740    -0.487286

          41.1         42.1         43.1         44.1         45.1         46.1         47.1         48.1         49.1         50.1
     -0.473962    -0.470540    -0.455021    -0.433471    -0.416030    -0.382014    -0.371451    -0.370241     0.098472     0.099457


 HOMO     48.1    -0.370241 =     -10.0748eV
 LUMO     49.1     0.098472 =       2.6796eV
 LUMO-HOMO         0.468713 =      12.7543eV

 Orbitals saved in record  2100.2


 **********************************************************************************************************************************
 DATASETS  * FILE   NREC   LENGTH (MB)   RECORD NAMES
              1      19      322.98       500      610      700      900      950      970     1000      129      960     1100   
                                          VAR    BASINP    GEOM    SYMINP    ZMAT    AOBASIS   BASIS     P2S    ABASIS      S 
                                         1400     1410     1200     1210     1080     1600     1650     1300     1700   
                                           T        V       H0       H01     AOSYM     SMH    MOLCAS    ERIS     OPER   

              2       4        1.12       700     1000      520     2100   
                                         GEOM     BASIS   MCVARS     RHF  

 PROGRAMS   *        TOTAL    HF-SCF       INT
 CPU TIMES  *        14.53      5.95      8.48
 REAL TIME  *        16.97 SEC
 DISK USED  *         1.36 GB
 **********************************************************************************************************************************


 PROGRAM * CCSD (Closed-shell coupled cluster)     Authors: C. Hampel, H.-J. Werner, 1991, M. Deegan, P.J. Knowles, 1992


 Convergence thresholds:  THRVAR = 1.00D-08  THRDEN = 1.00D-06

 CCSD(T)     terms to be evaluated (factor= 1.000)


 Number of core orbitals:          30 (  30 )
 Number of closed-shell orbitals:  18 (  18 )
 Number of external orbitals:     120 ( 120 )

 Molecular orbitals read from record     2100.2  Type=RHF/CANONICAL  

 Number of N-1 electron functions:              18
 Number of N-2 electron functions:             171
 Number of singly external CSFs:              2160
 Number of doubly external CSFs:           2333880
 Total number of CSFs:                     2336041

 Length of J-op  integral file:               0.00 MB
 Length of K-op  integral file:               2.00 MB
 Length of 3-ext integral record:             0.00 MB

 Memory could be reduced to 41.35 Mwords without degradation in triples

 Integral transformation finished. Total CPU:   4.63 sec, npass=  1  Memory used:  53.78 MW

 Reference energy:                  -1740.57930575

 MP2 singlet pair energy:              -0.44085987
 MP2 triplet pair energy:              -0.16068735
 MP2 correlation energy:               -0.60154722
 MP2 total energy:                  -1741.18085297

 SCS-MP2 correlation energy:           -0.62901508   (PS=  1.200000  PT=  0.333333)
 SCS-MP2 total energy:              -1741.20832084

 ITER.      SQ.NORM     CORR.ENERGY   TOTAL ENERGY   ENERGY CHANGE        DEN1      VAR(S)    VAR(P)  DIIS     TIME  TIME/IT
   1      1.38974031    -0.71080234 -1741.29010809    -0.10925511    -0.07827391  0.42D-02  0.82D-02  1  1    33.57    13.95
   2      1.44427341    -0.71987347 -1741.29917922    -0.00907114    -0.03584977  0.13D-03  0.47D-03  2  2    47.09    13.87
   3      1.45454817    -0.71997488 -1741.29928063    -0.00010141    -0.00331288  0.71D-04  0.31D-04  3  3    61.65    14.17
   4      1.45828361    -0.72001887 -1741.29932462    -0.00004399    -0.00077147  0.79D-05  0.29D-05  4  4    75.81    14.23
   5      1.45945729    -0.72000326 -1741.29930901     0.00001561    -0.00019012  0.42D-06  0.41D-06  5  5    90.32    14.33
   6      1.45968508    -0.71998299 -1741.29928874     0.00002027    -0.00003514  0.48D-07  0.39D-07  6  6   104.66    14.38
   7      1.45973034    -0.71998169 -1741.29928744     0.00000130    -0.00000261  0.41D-08  0.46D-08  6  1   118.80    14.37
   8      1.45973682    -0.71998171 -1741.29928746    -0.00000003     0.00000008  0.68D-09  0.46D-09  6  2   132.44    14.31
   9      1.45973735    -0.71998181 -1741.29928756    -0.00000010     0.00000056  0.14D-09  0.75D-10  6  3   146.22    14.28

 Norm of t1 vector:      0.12296490      S-energy:     0.00000016      T1 diagnostic:  0.01449155
                                                                       D1 diagnostic:  0.03408998
                                                                       D2 diagnostic:  0.16503002 (internal)


 Total CPU time for triples:    139.36 sec


 RESULTS
 =======

  Reference energy                  -1740.579305751728
  CCSD singlet pair energy             -0.551782965693
  CCSD triplet pair energy             -0.168199007213
  CCSD correlation energy              -0.719981812098

  Triples (T) contribution             -0.023678065496
  Total correlation energy             -0.743659877594

  CCSD total energy                 -1741.299287563826
  CCSD[T] energy                    -1741.323631186448
  CCSD-T energy                     -1741.322687040176
 !CCSD(T) total energy              -1741.322965629322

 Timing summary (sec):

 STEP                 CPU(USER)    SYS     CPU(TOT)    WALL
 Transformation          4.81      0.47      5.28      5.28
 CCSD iterations       141.58      2.05    143.63    128.69
 Triples               139.36      3.43    142.79    142.79

 Program statistics:

 Available memory in ccsd:              1073740480
 Min. memory needed in ccsd:               6134740
 Max. memory used in ccsd:                 8091268
 Max. memory used in cckext:              10022512 ( 9 integral passes)



 **********************************************************************************************************************************
 DATASETS  * FILE   NREC   LENGTH (MB)   RECORD NAMES
              1      20      498.40       500      610      700      900      950      970     1000      129      960     1100   
                                          VAR    BASINP    GEOM    SYMINP    ZMAT    AOBASIS   BASIS     P2S    ABASIS      S 
                                         1400     1410     1200     1210     1080     1600     1650     1300     1700     1380   
                                           T        V       H0       H01     AOSYM     SMH    MOLCAS    ERIS     OPER     JKOP   

              2       4        1.12       700     1000      520     2100   
                                         GEOM     BASIS   MCVARS     RHF  

 PROGRAMS   *        TOTAL   CCSD(T)    HF-SCF       INT
 CPU TIMES  *       285.36    270.83      5.95      8.48
 REAL TIME  *       293.80 SEC
 DISK USED  *         1.36 GB
 **********************************************************************************************************************************

 Dump information in style XML to xml output                                                                      

 Orbitals will not be exported.

 **********************************************************************************************************************************

 CCSD(T)/cc-pVDZ energy=  -1741.322965629322

         CCSD(T)          HF-SCF
  -1741.32296563  -1740.57930575
 **********************************************************************************************************************************
 Molpro calculation terminated
