
 Working directory              : /tmp/peterk/molpro.IbRK1HYbtH/
 Global scratch directory       : /tmp/peterk/molpro.IbRK1HYbtH/
 Wavefunction directory         : /home/peterk/wfu/
 Main file repository           : /tmp/peterk/molpro.IbRK1HYbtH/

 id        : peterk

 Nodes     nprocs
 marat        1
 GA implementation: MPI file
 GA implementation (serial work in mppx): MPI file

 Using customized tuning parameters: mindgm=1; mindgv=20; mindgc=4; mindgr=1; noblas=0; minvec=7
 default implementation of scratch files=df  


 Variables initialized (1032), CPU time= 0.00 sec
 
 core,small
 angstrom
 
 geometry={
 H;H,H,0.74184515
 }
 basis=cc-pCVTZ
 
 
 
 hf; ccsd(t)
 
 
 
 {put,xml;noorbitals,nobasis}
 Commands initialized (841), CPU time= 0.01 sec, 708 directives.
 Default parameters read. Elapsed time= 0.05 sec

 Checking input...
 Passed
1


                                         ***  PROGRAM SYSTEM MOLPRO  ***
                                       Copyright, TTI GmbH Stuttgart, 2015
                                    Version 2023.1 linked Sat Jun 10 08:01:27 2023


 **********************************************************************************************************************************
 LABEL *                                                                                                                                                                 
  (16 PROC) 64 bit serial version                                                        DATE: 12-Jun-23          TIME: 10:32:35  
 **********************************************************************************************************************************

 SHA1:             8376d659ba1296ca7ee514c57770fe2c96af278c
 **********************************************************************************************************************************

 Memory per process:      1074 MW
 Total memory per node:   1074 MW

 GA preallocation disabled
 GA check disabled

 Variable memory set to 1073.7 MW

 ZUNIT=ANG

 SETTING BASIS          =    CC-PCVTZ


 Recomputing integrals since basis changed


 Using spherical harmonics

 Library entry H      S cc-pVTZ              selected for orbital group  1
 Library entry H      P cc-pVTZ              selected for orbital group  1
 Library entry H      D cc-pVTZ              selected for orbital group  1


 PROGRAM * SEWARD (Integral evaluation for generally contracted gaussian basis sets)     Author: Roland Lindh, 1990

 Geometry written to block  1 of record 700

 Orientation using atomic masses  
 Molecule type: Linear
 Symmetry elements: X,Y,Z
 Rotational constants:    1822.1577851   1822.1577851      0.0000000 GHz  (calculated with average atomic masses)

 Point group  D2h 



 ATOMIC COORDINATES

 NR  ATOM    CHARGE       X              Y              Z

   1  H       1.00    0.000000000    0.000000000   -0.700942080
   2  H       1.00    0.000000000    0.000000000    0.700942080

 Bond lengths in Bohr (Angstrom)

 1-2  1.401884160
     ( 0.741845150)

 NUCLEAR CHARGE:                    2
 NUMBER OF PRIMITIVE AOS:          34
 NUMBER OF SYMMETRY AOS:           32
 NUMBER OF CONTRACTIONS:           28   (    7Ag  +    3B3u +    3B2u +    1B1g +    7B1u +    3B2g +    3B3g +    1Au  )
 NUMBER OF INNER CORE ORBITALS:     0   (    0Ag  +    0B3u +    0B2u +    0B1g +    0B1u +    0B2g +    0B3g +    0Au  )
 NUMBER OF OUTER CORE ORBITALS:     0   (    0Ag  +    0B3u +    0B2u +    0B1g +    0B1u +    0B2g +    0B3g +    0Au  )
 NUMBER OF VALENCE ORBITALS:        2   (    1Ag  +    0B3u +    0B2u +    0B1g +    1B1u +    0B2g +    0B3g +    0Au  )


 NUCLEAR REPULSION ENERGY    0.71332570

 EXTRA SYMMETRY OF AOS IN SYMMETRY 1:   1 1 1 1 1 1 2
 EXTRA SYMMETRY OF AOS IN SYMMETRY 5:   1 1 1 1 1 1 2

 Eigenvalues of metric

         1 0.744E-02 0.134E+00 0.466E+00 0.961E+00 0.135E+01 0.179E+01 0.518E+01
         2 0.449E+00 0.118E+01 0.269E+01
         3 0.449E+00 0.118E+01 0.269E+01
         4 0.135E+01
         5 0.177E-02 0.706E-02 0.430E-01 0.227E+00 0.646E+00 0.113E+01 0.204E+01
         6 0.102E+00 0.230E+00 0.135E+01
         7 0.102E+00 0.230E+00 0.135E+01
         8 0.646E+00


 Contracted 2-electron integrals neglected if value below      1.0D-11
 AO integral compression algorithm  1   Integral accuracy      1.0D-11

     0.262 MB (compressed) written to integral file (100.0%)


 NUMBER OF SORTED TWO-ELECTRON INTEGRALS:      13015.     BUFFER LENGTH:  32768
 NUMBER OF SEGMENTS:   1  SEGMENT LENGTH:      13015      RECORD LENGTH: 524288

 Memory used in sort:       0.57 MW

 SORT1 READ       27440. AND WROTE       11779. INTEGRALS IN      1 RECORDS. CPU TIME:     0.00 SEC, REAL TIME:     0.00 SEC
 SORT2 READ       11779. AND WROTE       13015. INTEGRALS IN      1 RECORDS. CPU TIME:     0.01 SEC, REAL TIME:     0.00 SEC

 FILE SIZES:   FILE 1:    30.3 MBYTE,  FILE 4:     4.3 MBYTE,   TOTAL:     34.5 MBYTE

 OPERATOR DM      FOR CENTER  0  COORDINATES:    0.000000    0.000000    0.000000


 **********************************************************************************************************************************
 DATASETS  * FILE   NREC   LENGTH (MB)   RECORD NAMES
              1      19       28.69       500      610      700      900      950      970     1000      129      960     1100   
                                          VAR    BASINP    GEOM    SYMINP    ZMAT    AOBASIS   BASIS     P2S    ABASIS      S 
                                         1400     1410     1200     1210     1080     1600     1650     1300     1700   
                                           T        V       H0       H01     AOSYM     SMH    MOLCAS    ERIS     OPER   

 PROGRAMS   *        TOTAL       INT
 CPU TIMES  *         0.46      0.36
 REAL TIME  *         1.18 SEC
 DISK USED  *        33.23 MB
 **********************************************************************************************************************************


 Program * Restricted Hartree-Fock

 Orbital guess generated from atomic densities. Full valence occupancy:    1   0   0   0   1   0   0   0


 Initial occupancy:   1   0   0   0   0   0   0   0

 NELEC=    2   SYM=1   MS2= 0   THRE=1.0D-08   THRD=3.2D-06   THRG=3.2D-06  HFMA2=F  DIIS_START=2   DIIS_MAX=10   DIIS_INCORE=F

 Level shifts:    0.00 (CLOSED)    0.00 (OPEN)    0.30 (GAP_MIN)

 ITER           ETOT              DE          GRAD        DDIFF     DIIS  NEXP   TIME(IT)  TIME(TOT)  DIAG
   1       -1.13165482      -1.13165482     0.00D+00     0.26D+00     0     0       0.00      0.00    start
   2       -1.13290790      -0.00125308     0.10D-01     0.18D-01     1     0       0.00      0.00    diag
   3       -1.13295044      -0.00004253     0.17D-02     0.23D-02     2     0       0.00      0.00    diag
   4       -1.13295085      -0.00000041     0.18D-03     0.32D-03     3     0       0.00      0.00    diag
   5       -1.13295085      -0.00000000     0.63D-05     0.72D-05     4     0       0.00      0.00    diag
   6       -1.13295085      -0.00000000     0.33D-06     0.80D-06     5     0       0.00      0.00    diag
   7       -1.13295085      -0.00000000     0.23D-07     0.30D-07     0     0       0.00      0.00    diag

 Final occupancy:   1   0   0   0   0   0   0   0

 !RHF STATE 1.1 Energy                 -1.132950845401
  RHF One-electron energy              -2.504310599116
  RHF Two-electron energy               0.658034053732
  RHF Kinetic energy                    1.122101194734
  RHF Nuclear energy                    0.713325699983
  RHF Virial quotient                  -1.009669048316

 !RHF STATE 1.1 Dipole moment           0.00000000     0.00000000     0.00000000
 Dipole moment /Debye                   0.00000000     0.00000000     0.00000000

 Orbital energies:

           1.1          2.1          3.1
     -0.594121     0.305173     1.096135

           1.2          2.2
      0.692510     3.411671

           1.3          2.3
      0.692510     3.411671

           1.4
      3.175213

           1.5          2.5
      0.166998     0.643161

           1.6          2.6
      1.119821     3.894375

           1.7          2.7
      1.119821     3.894375

           1.8
      4.083377


 HOMO      1.1    -0.594121 =     -16.1669eV
 LUMO      1.5     0.166998 =       4.5443eV
 LUMO-HOMO         0.761119 =      20.7111eV

 Orbitals saved in record  2100.2


 **********************************************************************************************************************************
 DATASETS  * FILE   NREC   LENGTH (MB)   RECORD NAMES
              1      19       28.69       500      610      700      900      950      970     1000      129      960     1100   
                                          VAR    BASINP    GEOM    SYMINP    ZMAT    AOBASIS   BASIS     P2S    ABASIS      S 
                                         1400     1410     1200     1210     1080     1600     1650     1300     1700   
                                           T        V       H0       H01     AOSYM     SMH    MOLCAS    ERIS     OPER   

              2       4        0.38       700     1000      520     2100   
                                         GEOM     BASIS   MCVARS     RHF  

 PROGRAMS   *        TOTAL    HF-SCF       INT
 CPU TIMES  *         0.46      0.00      0.36
 REAL TIME  *         1.18 SEC
 DISK USED  *        33.23 MB
 **********************************************************************************************************************************


 PROGRAM * CCSD (Closed-shell coupled cluster)     Authors: C. Hampel, H.-J. Werner, 1991, M. Deegan, P.J. Knowles, 1992


 CORETYPE=SMALL

 Convergence thresholds:  THRVAR = 1.00D-08  THRDEN = 1.00D-06

 CCSD(T)     terms to be evaluated (factor= 1.000)


 Number of closed-shell orbitals:   1 (   1   0   0   0   0   0   0   0 )
 Number of external orbitals:      27 (   6   3   3   1   7   3   3   1 )

 Molecular orbitals read from record     2100.2  Type=RHF/CANONICAL  

 Number of N-1 electron functions:               1
 Number of N-2 electron functions:               1
 Number of singly external CSFs:                 6
 Number of doubly external CSFs:                75
 Total number of CSFs:                          82

 Length of J-op  integral file:               0.00 MB
 Length of K-op  integral file:               0.07 MB
 Length of 3-ext integral record:             0.00 MB

 Integral transformation finished. Total CPU:   0.00 sec, npass=  1  Memory used:   0.07 MW

 Reference energy:                     -1.13295085

 MP2 singlet pair energy:              -0.03168283
 MP2 triplet pair energy:               0.00000000
 MP2 correlation energy:               -0.03168283
 MP2 total energy:                     -1.16463368

 SCS-MP2 correlation energy:           -0.03801940   (PS=  1.200000  PT=  0.333333)
 SCS-MP2 total energy:                 -1.17097024

 ITER.      SQ.NORM     CORR.ENERGY   TOTAL ENERGY   ENERGY CHANGE        DEN1      VAR(S)    VAR(P)  DIIS     TIME  TIME/IT
   1      1.01472982    -0.03851763    -1.17146848    -0.00683480    -0.00490039  0.41D-04  0.51D-03  1  1     0.74     0.00
   2      1.01785469    -0.03937736    -1.17232820    -0.00085973    -0.00259628  0.76D-06  0.12D-04  2  2     0.74     0.00
   3      1.01821945    -0.03938113    -1.17233197    -0.00000377    -0.00018742  0.12D-06  0.43D-06  3  3     0.74     0.00
   4      1.01826816    -0.03938634    -1.17233719    -0.00000522    -0.00001654  0.32D-08  0.98D-08  4  4     0.74     0.00
   5      1.01827277    -0.03938536    -1.17233620     0.00000099    -0.00000206  0.24D-09  0.98D-10  5  5     0.74     0.00
   6      1.01827266    -0.03938545    -1.17233629    -0.00000009     0.00000009  0.12D-10  0.32D-11  6  6     0.74     0.00

 Norm of t1 vector:      0.01125175      S-energy:    -0.00000003      T1 diagnostic:  0.00562588
                                                                       D1 diagnostic:  0.00795619
                                                                       D2 diagnostic:  0.13472183 (internal)

 Doubles amplitudes (print threshold =  0.500E-01):

         I         J         SYM. A    SYM. B    A         B      T(IJ, AB)

         1         1         5         5         2         2     -0.05641693


 RESULTS
 =======

  Reference energy                     -1.132950845401
  CCSD singlet pair energy             -0.039385413591
  CCSD triplet pair energy              0.000000000000
  CCSD correlation energy              -0.039385447891

  Triples (T) contribution              0.000000000000
  Total correlation energy             -0.039385447891

  CCSD total energy                    -1.172336293292
 !CCSD(T) total energy                 -1.172336293292

 Timing summary (sec):

 STEP                 CPU(USER)    SYS     CPU(TOT)    WALL
 CCSD iterations         0.74      0.01      0.75      0.00

 Program statistics:

 Available memory in ccsd:              1073741819
 Min. memory needed in ccsd:                  2078
 Max. memory used in ccsd:                    2078
 Max. memory used in cckext:                 34198 ( 6 integral passes)



 **********************************************************************************************************************************
 DATASETS  * FILE   NREC   LENGTH (MB)   RECORD NAMES
              1      20       28.70       500      610      700      900      950      970     1000      129      960     1100   
                                          VAR    BASINP    GEOM    SYMINP    ZMAT    AOBASIS   BASIS     P2S    ABASIS      S 
                                         1400     1410     1200     1210     1080     1600     1650     1300     1700     1380   
                                           T        V       H0       H01     AOSYM     SMH    MOLCAS    ERIS     OPER     JKOP   

              2       4        0.38       700     1000      520     2100   
                                         GEOM     BASIS   MCVARS     RHF  

 PROGRAMS   *        TOTAL   CCSD(T)    HF-SCF       INT
 CPU TIMES  *         0.49      0.03      0.00      0.36
 REAL TIME  *         1.22 SEC
 DISK USED  *        33.23 MB
 **********************************************************************************************************************************

 Dump information in style XML to xml output                                                                      

 Orbitals will not be exported.

 **********************************************************************************************************************************

 CCSD(T)/cc-pCVTZ energy=     -1.172336293292

         CCSD(T)          HF-SCF
     -1.17233629     -1.13295085
 **********************************************************************************************************************************
 Molpro calculation terminated
