
 Working directory              : /var/folders/2v/xbgp75_9785319ghcgb4zr4r0000gp/T//molpro.4y9NN0QkK1/
 Global scratch directory       : /var/folders/2v/xbgp75_9785319ghcgb4zr4r0000gp/T//molpro.4y9NN0QkK1/
 Wavefunction directory         : /Users/sacpjk/wfu/
 Main file repository           : /var/folders/2v/xbgp75_9785319ghcgb4zr4r0000gp/T//molpro.4y9NN0QkK1/

 id        : peterk

 Nodes                        nprocs
 Cardiff-University-G34YLXT77Y    1
 GA implementation: MPI file
 GA implementation (serial work in mppx): MPI file

 Using customized tuning parameters: mindgm=1; mindgv=20; mindgc=4; mindgr=1; noblas=0; minvec=7
 default implementation of scratch files=df  


 Variables initialized (1032), CPU time= 0.00 sec
 
 symmetry,nosym
 
 
 geometry={
            7
     C         -0.85580427      0.09223767     -0.00003875
     N          1.74448806      0.23322588      0.00000625
     H         -1.08289010     -0.40956837      0.93304716
     H         -1.07613780     -0.48801836     -0.88815338
     H         -1.17646452      1.12616804     -0.04579179
     H          0.53269809      0.23025985      0.00099225
     H          1.91411054     -0.78430471     -0.00006175
 }
 basis=cc-pVDZ
 
 
 spin=2
 uhf
 
 
 
 {put,xml;noorbitals,nobasis}
 Commands initialized (841), CPU time= 0.01 sec, 704 directives.
 Default parameters read. Elapsed time= 0.32 sec

 Checking input...
 Passed
1


                                         ***  PROGRAM SYSTEM MOLPRO  ***
                                       Copyright, TTI GmbH Stuttgart, 2015
                                    Version 2023.1 linked Tue Jun  6 09:54:11 2023


 **********************************************************************************************************************************
 LABEL *                                                                                                                                                                 
  64 bit serial version                                                                  DATE: 09-Jun-23          TIME: 09:28:12  
 **********************************************************************************************************************************

 SHA1:             8ebb0dd001088a5c915591db1a321413035db0b1
 **********************************************************************************************************************************

 Memory per process:       805 MW
 Total memory per node:   1074 MW
 Total GA space:           268 MW

 GA preallocation disabled
 GA check enabled

 Variable memory set to 805.3 MW

 ZSYMEL=NOSYM


 Geometry recognized as XYZ

 SETTING BASIS          =    CC-PVDZ
 SETTING SPIN           =         2.00000000                                  


 Recomputing integrals since basis changed


 Using spherical harmonics

 Library entry C      S cc-pVDZ              selected for orbital group  1
 Library entry C      P cc-pVDZ              selected for orbital group  1
 Library entry C      D cc-pVDZ              selected for orbital group  1
 Library entry N      S cc-pVDZ              selected for orbital group  2
 Library entry N      P cc-pVDZ              selected for orbital group  2
 Library entry N      D cc-pVDZ              selected for orbital group  2
 Library entry H      S cc-pVDZ              selected for orbital group  3
 Library entry H      P cc-pVDZ              selected for orbital group  3


 PROGRAM * SEWARD (Integral evaluation for generally contracted gaussian basis sets)     Author: Roland Lindh, 1990

 Geometry written to block  1 of record 700


 Point group  C1  



 ATOMIC COORDINATES

 NR  ATOM    CHARGE       X              Y              Z

   1  C       6.00   -1.617235687    0.174303935   -0.000073227
   2  N       7.00    3.296604661    0.440733038    0.000011811
   3  H       1.00   -2.046365712   -0.773972049    1.763203594
   4  H       1.00   -2.033605714   -0.922221044   -1.678366645
   5  H       1.00   -2.223195738    2.128149166   -0.086533942
   6  H       1.00    1.006653497    0.435128054    0.001875081
   7  H       1.00    3.617144693   -1.482121100   -0.000116691

 Bond lengths in Bohr (Angstrom)

 1-3  2.047565644  1-4  2.047535061  1-5  2.047479970  1-6  2.636821470  2-6  2.289958781
     ( 1.083525077)     ( 1.083508893)     ( 1.083479740)     ( 1.395345831)     ( 1.211794001)

 2-7  1.949388101
     ( 1.031571758)

 Bond angles

  1-6-2  174.46276518   3-1-4  114.53341870   3-1-5  114.60012625   3-1-6  104.69815491

  4-1-5  114.59791796   4-1-6  104.82888262   5-1-6  101.54522016   6-2-7   99.32394821

 NUCLEAR CHARGE:                   18
 NUMBER OF PRIMITIVE AOS:          89
 NUMBER OF SYMMETRY AOS:           87
 NUMBER OF CONTRACTIONS:           53   (   53A   )
 NUMBER OF INNER CORE ORBITALS:     0   (    0A   )
 NUMBER OF OUTER CORE ORBITALS:     2   (    2A   )
 NUMBER OF VALENCE ORBITALS:       13   (   13A   )


 NUCLEAR REPULSION ENERGY   33.45954255

 Eigenvalues of metric

         1 0.767E-02 0.155E-01 0.304E-01 0.364E-01 0.365E-01 0.450E-01 0.463E-01 0.537E-01


 Contracted 2-electron integrals neglected if value below      1.0D-11
 AO integral compression algorithm  1   Integral accuracy      1.0D-11

     5.243 MB (compressed) written to integral file ( 53.2%)


 NUMBER OF SORTED TWO-ELECTRON INTEGRALS:    1024596.     BUFFER LENGTH:  32768
 NUMBER OF SEGMENTS:   1  SEGMENT LENGTH:    1024596      RECORD LENGTH: 524288

 Memory used in sort:       1.58 MW

 SORT1 READ     1206456. AND WROTE     1009307. INTEGRALS IN      3 RECORDS. CPU TIME:     0.00 SEC, REAL TIME:     0.01 SEC
 SORT2 READ     1009307. AND WROTE     1024596. INTEGRALS IN     20 RECORDS. CPU TIME:     0.03 SEC, REAL TIME:     0.03 SEC

 FILE SIZES:   FILE 1:    35.4 MBYTE,  FILE 4:    12.6 MBYTE,   TOTAL:     48.1 MBYTE

 OPERATOR DM      FOR CENTER  0  COORDINATES:    0.000000    0.000000    0.000000


 **********************************************************************************************************************************
 DATASETS  * FILE   NREC   LENGTH (MB)   RECORD NAMES
              1      19       32.86       500      610      700      900      950      970     1000      129      960     1100   
                                          VAR    BASINP    GEOM    SYMINP    ZMAT    AOBASIS   BASIS     P2S    ABASIS      S 
                                         1400     1410     1200     1210     1080     1600     1650     1300     1700   
                                           T        V       H0       H01     AOSYM     SMH    MOLCAS    ERIS     OPER   

 PROGRAMS   *        TOTAL       INT
 CPU TIMES  *         0.25      0.17
 REAL TIME  *         0.88 SEC
 DISK USED  *        46.28 MB
 **********************************************************************************************************************************


 Program * Unrestricted Hartree-Fock

 Orbital guess generated from atomic densities. Full valence occupancy:   15

 Initial alpha occupancy:  10
 Initial beta  occupancy:   8

 Elapsed time for starting guess:      0.00 sec

 NELEC=   18   SYM=1   MS2=2   THRE=1.0D-08   THRD=3.2D-06   THRG=3.2D-06  HFMA2=F  DIIS_START=2   DIIS_MAX=10   DIIS_INCORE=F

 Initial level shifts:    0.20 (ALPHA)    0.20 (BETA)

 ITER         ETOT            DE          GRAD         DDIFF    DIIS  NEXP   TIME(IT)  TIME(TOT)  DIAG
   1    -95.05615369   -95.05615369     0.00D+00     0.00D+00     0     0       0.01      0.01    start
   2    -95.09183488    -0.03568118     0.85D-02     0.14D+00     1     0       0.01      0.02    diag
   3    -95.09900142    -0.00716654     0.37D-02     0.12D-01     2     0       0.00      0.02    diag
   4    -95.10129822    -0.00229681     0.17D-02     0.49D-02     3     0       0.01      0.03    diag
   5    -95.10186169    -0.00056347     0.80D-03     0.20D-02     4     0       0.01      0.04    diag
   6    -95.10199153    -0.00012984     0.32D-03     0.95D-03     5     0       0.00      0.04    diag
   7    -95.10203039    -0.00003886     0.17D-03     0.39D-03     6     0       0.01      0.05    diag
   8    -95.10204413    -0.00001374     0.91D-04     0.19D-03     7     0       0.00      0.05    diag
   9    -95.10204872    -0.00000459     0.51D-04     0.12D-03     8     0       0.01      0.06    diag
  10    -95.10205048    -0.00000175     0.30D-04     0.83D-04     8     0       0.01      0.07    diag/ort
  11    -95.10205105    -0.00000057     0.17D-04     0.62D-04     8     0       0.00      0.07    diag
  12    -95.10205115    -0.00000010     0.78D-05     0.42D-04     8     0       0.01      0.08    diag
  13    -95.10205116    -0.00000002     0.33D-05     0.17D-04     9     0       0.01      0.09    diag
  14    -95.10205117    -0.00000000     0.15D-05     0.72D-05     9     0       0.00      0.09    diag
  15    -95.10205117    -0.00000000     0.52D-06     0.22D-05     9     0       0.01      0.10    diag

 Final alpha occupancy:  10
 Final beta  occupancy:   8

 !UHF STATE 1.1 Energy                -95.102051167254
  UHF One-electron energy            -194.143198436993
  UHF Two-electron energy              65.581604724298
  UHF Kinetic energy                   95.028502218012
  UHF Nuclear energy                   33.459542545441
  UHF Virial quotient                  -1.000773967257

 !UHF STATE 1.1 Dipole moment          -0.43845976    -0.57802019     0.00015032
 Dipole moment /Debye                  -1.11445355    -1.46918077     0.00038208

 EXPECTATION VALUE OF S**2:             2.05484634

 Orbital energies for positive spin:

           1.1          2.1          3.1          4.1          5.1          6.1          7.1          8.1          9.1         10.1
    -15.605247   -11.247344    -1.164155    -0.962961    -0.642646    -0.578791    -0.577581    -0.535398    -0.513532    -0.386539

          11.1         12.1
      0.178768     0.228247

 Orbital energies for negative spin:

           1.1          2.1          3.1          4.1          5.1          6.1          7.1          8.1          9.1         10.1
    -15.554307   -11.227418    -0.982845    -0.889947    -0.569980    -0.564853    -0.551428    -0.425022     0.106073     0.157719


 HOMO     10.1    -0.386539 =     -10.5183eV
 LUMO     -9.1     0.106073 =       2.8864eV
 LUMO-HOMO         0.492611 =      13.4046eV

 Orbitals saved in record  2200.2

 Occupation number threshold for pseudo-canonical orbitals: 1.9990 (occupied), 0.0010 (virtual)

 Number of pseudo-canonical occupied orbitals per symmetry:    5
 Number of active natural orbitals per symmetry:               8

 Natural orbitals saved to record    2200.2 (Orbital set 3)

 Orbital spaces for UNO-CAS (Min. occupation: 0.020  Max. occupation: 1.980):

 Closed:        7
 Active:        4


 **********************************************************************************************************************************
 DATASETS  * FILE   NREC   LENGTH (MB)   RECORD NAMES
              1      19       32.86       500      610      700      900      950      970     1000      129      960     1100   
                                          VAR    BASINP    GEOM    SYMINP    ZMAT    AOBASIS   BASIS     P2S    ABASIS      S 
                                         1400     1410     1200     1210     1080     1600     1650     1300     1700   
                                           T        V       H0       H01     AOSYM     SMH    MOLCAS    ERIS     OPER   

              2       4        0.59       700     1000      520     2200   
                                         GEOM     BASIS   MCVARS     UHF  

              4       3        0.54      2900     3000     3100   

 PROGRAMS   *        TOTAL   UHF-SCF       INT
 CPU TIMES  *         0.35      0.10      0.17
 REAL TIME  *         1.30 SEC
 DISK USED  *        46.28 MB
 **********************************************************************************************************************************

 Dump information in style XML to xml output                                                                      

 Orbitals will not be exported.

 **********************************************************************************************************************************

 UHF/cc-pVDZ energy=    -95.102051167254

         UHF-SCF
    -95.10205117
 **********************************************************************************************************************************
 Molpro calculation terminated
