
 Working directory              : /var/folders/2v/xbgp75_9785319ghcgb4zr4r0000gp/T//molpro.NB39Zf8vIv/
 Global scratch directory       : /var/folders/2v/xbgp75_9785319ghcgb4zr4r0000gp/T//molpro.NB39Zf8vIv/
 Wavefunction directory         : /Users/sacpjk/wfu/
 Main file repository           : /var/folders/2v/xbgp75_9785319ghcgb4zr4r0000gp/T//molpro.NB39Zf8vIv/

 id        : peterk

 Nodes                        nprocs
 Cardiff-University-G34YLXT77Y    1
 GA implementation: MPI file
 GA implementation (serial work in mppx): MPI file

 Using customized tuning parameters: mindgm=1; mindgv=20; mindgc=4; mindgr=1; noblas=0; minvec=7
 default implementation of scratch files=df  


 Variables initialized (1032), CPU time= 0.00 sec
 
 symmetry,nosym
 
 
 geometry={
            7
     C         -0.70348642     -0.15745798     -0.00001606
     O          0.11728813      0.96008129      0.00007194
     H         -1.75741170      0.15182813     -0.00862109
     H         -0.54634194     -0.80376173     -0.87808291
     H         -0.55866648     -0.79545365      0.88637925
     H          1.10509166      0.60322056      0.00026094
     F          2.34352676      0.04154336      0.00000794
 }
 basis=cc-pVTZ
 
 charge=-1
 
 hf; ccsd
 
 
 
 {put,xml;noorbitals,nobasis}
 Commands initialized (841), CPU time= 0.01 sec, 704 directives.
 Default parameters read. Elapsed time= 0.34 sec

 Checking input...
 Passed
1


                                         ***  PROGRAM SYSTEM MOLPRO  ***
                                       Copyright, TTI GmbH Stuttgart, 2015
                                    Version 2023.1 linked Tue Jun  6 09:54:11 2023


 **********************************************************************************************************************************
 LABEL *                                                                                                                                                                 
  64 bit serial version                                                                  DATE: 09-Jun-23          TIME: 15:35:19  
 **********************************************************************************************************************************

 SHA1:             8ebb0dd001088a5c915591db1a321413035db0b1
 **********************************************************************************************************************************

 Memory per process:       805 MW
 Total memory per node:   1074 MW
 Total GA space:           268 MW

 GA preallocation disabled
 GA check enabled

 Variable memory set to 805.3 MW

 ZSYMEL=NOSYM


 Geometry recognized as XYZ

 SETTING BASIS          =    CC-PVTZ
 SETTING CHARGE         =        -1.00000000                                  


 Recomputing integrals since basis changed


 Using spherical harmonics

 Library entry C      S cc-pVTZ              selected for orbital group  1
 Library entry C      P cc-pVTZ              selected for orbital group  1
 Library entry C      D cc-pVTZ              selected for orbital group  1
 Library entry C      F cc-pVTZ              selected for orbital group  1
 Library entry O      S cc-pVTZ              selected for orbital group  2
 Library entry O      P cc-pVTZ              selected for orbital group  2
 Library entry O      D cc-pVTZ              selected for orbital group  2
 Library entry O      F cc-pVTZ              selected for orbital group  2
 Library entry H      S cc-pVTZ              selected for orbital group  3
 Library entry H      P cc-pVTZ              selected for orbital group  3
 Library entry H      D cc-pVTZ              selected for orbital group  3
 Library entry F      S cc-pVTZ              selected for orbital group  4
 Library entry F      P cc-pVTZ              selected for orbital group  4
 Library entry F      D cc-pVTZ              selected for orbital group  4
 Library entry F      F cc-pVTZ              selected for orbital group  4


 PROGRAM * SEWARD (Integral evaluation for generally contracted gaussian basis sets)     Author: Roland Lindh, 1990

 Geometry written to block  1 of record 700


 Point group  C1  



 ATOMIC COORDINATES

 NR  ATOM    CHARGE       X              Y              Z

   1  C       6.00   -1.329396666   -0.297552458   -0.000030349
   2  O       8.00    0.221642443    1.814290695    0.000135947
   3  H       1.00   -3.321026801    0.286913584   -0.016291499
   4  H       1.00   -1.032436637   -1.518889539   -1.659336215
   5  H       1.00   -1.055726642   -1.503189543    1.675014025
   6  H       1.00    2.088320580    1.139921651    0.000493105
   7  F       9.00    4.428623742    0.078505573    0.000015004

 Bond lengths in Bohr (Angstrom)

 1-2  2.620229733  1-3  2.075681954  1-4  2.081620878  1-5  2.081881293  2-6  1.984757164
     ( 1.386565862)     ( 1.098403587)     ( 1.101546330)     ( 1.101684136)     ( 1.050288261)

 Bond angles

  1-2-6  106.43223859   2-1-3  109.93982776   2-1-4  112.86058657   2-1-5  112.88507547

  3-1-4  107.20821913   3-1-5  107.18738980   4-1-5  106.42857108

 NUCLEAR CHARGE:                   27
 NUMBER OF PRIMITIVE AOS:         209
 NUMBER OF SYMMETRY AOS:          190
 NUMBER OF CONTRACTIONS:          146   (  146A   )
 NUMBER OF INNER CORE ORBITALS:     0   (    0A   )
 NUMBER OF OUTER CORE ORBITALS:     3   (    3A   )
 NUMBER OF VALENCE ORBITALS:       16   (   16A   )


 NUCLEAR REPULSION ENERGY   73.17392355


 Eigenvalues of metric

         1 0.134E-02 0.168E-02 0.195E-02 0.251E-02 0.324E-02 0.463E-02 0.669E-02 0.966E-02


 Contracted 2-electron integrals neglected if value below      1.0D-11
 AO integral compression algorithm  1   Integral accuracy      1.0D-11

     211.550 MB (compressed) written to integral file ( 40.6%)


 NUMBER OF SORTED TWO-ELECTRON INTEGRALS:   57582546.     BUFFER LENGTH:  32768
 NUMBER OF SEGMENTS:   4  SEGMENT LENGTH:   15999503      RECORD LENGTH: 524288

 Memory used in sort:      16.56 MW

 SORT1 READ    65079080. AND WROTE    50051877. INTEGRALS IN    145 RECORDS. CPU TIME:     0.47 SEC, REAL TIME:     0.62 SEC
 SORT2 READ    50051877. AND WROTE    57582546. INTEGRALS IN    807 RECORDS. CPU TIME:     0.48 SEC, REAL TIME:     0.59 SEC

 FILE SIZES:   FILE 1:   242.4 MBYTE,  FILE 4:   608.2 MBYTE,   TOTAL:    850.7 MBYTE

 OPERATOR DM      FOR CENTER  0  COORDINATES:    0.000000    0.000000    0.000000


 **********************************************************************************************************************************
 DATASETS  * FILE   NREC   LENGTH (MB)   RECORD NAMES
              1      19      205.02       500      610      700      900      950      970     1000      129      960     1100   
                                          VAR    BASINP    GEOM    SYMINP    ZMAT    AOBASIS   BASIS     P2S    ABASIS      S 
                                         1400     1410     1200     1210     1080     1600     1650     1300     1700   
                                           T        V       H0       H01     AOSYM     SMH    MOLCAS    ERIS     OPER   

 PROGRAMS   *        TOTAL       INT
 CPU TIMES  *         2.57      2.47
 REAL TIME  *         4.05 SEC
 DISK USED  *       811.73 MB
 **********************************************************************************************************************************


 Program * Restricted Hartree-Fock

 Orbital guess generated from atomic densities. Full valence occupancy:   19

 Initial occupancy:  14

 NELEC=   28   SYM=1   MS2= 0   THRE=1.0D-08   THRD=3.2D-06   THRG=3.2D-06  HFMA2=F  DIIS_START=2   DIIS_MAX=10   DIIS_INCORE=F

 Level shifts:    0.00 (CLOSED)    0.00 (OPEN)    0.30 (GAP_MIN)

 ITER           ETOT              DE          GRAD        DDIFF     DIIS  NEXP   TIME(IT)  TIME(TOT)  DIAG
   1     -214.47327738    -214.47327738     0.00D+00     0.69D-01     0     0       0.28      0.54    start
   2     -214.53782844      -0.06455106     0.81D-02     0.11D-01     1     0       0.27      0.81    diag
   3     -214.56695517      -0.02912673     0.55D-02     0.38D-02     2     0       0.27      1.08    diag
   4     -214.56753868      -0.00058351     0.42D-03     0.70D-03     3     0       0.27      1.35    diag
   5     -214.56757854      -0.00003986     0.11D-03     0.22D-03     4     0       0.27      1.62    diag
   6     -214.56758285      -0.00000431     0.49D-04     0.61D-04     5     0       0.28      1.90    diag
   7     -214.56758325      -0.00000040     0.12D-04     0.20D-04     6     0       0.27      2.17    diag
   8     -214.56758329      -0.00000004     0.38D-05     0.50D-05     7     0       0.27      2.44    fixocc
   9     -214.56758330      -0.00000001     0.12D-05     0.21D-05     8     0       0.28      2.72    diag
  10     -214.56758330      -0.00000000     0.24D-06     0.40D-06     0     0       0.27      2.99    diag/orth

 Final occupancy:  14

 !RHF STATE 1.1 Energy               -214.567583295653
  RHF One-electron energy            -450.026521129022
  RHF Two-electron energy             162.285014279826
  RHF Kinetic energy                  214.544587691862
  RHF Nuclear energy                   73.173923553542
  RHF Virial quotient                  -1.000107183332

 !RHF STATE 1.1 Dipole moment          -2.90907890    -0.82575734    -0.00051504
 Dipole moment /Debye                  -7.39414104    -2.09886579    -0.00130911

 Orbital energies:

           1.1          2.1          3.1          4.1          5.1          6.1          7.1          8.1          9.1         10.1
    -25.871262   -20.300784   -11.082167    -1.155448    -1.104868    -0.716422    -0.470581    -0.415420    -0.385322    -0.307873

          11.1         12.1         13.1         14.1         15.1         16.1
     -0.247752    -0.243844    -0.214621    -0.211856     0.302757     0.366420


 HOMO     14.1    -0.211856 =      -5.7649eV
 LUMO     15.1     0.302757 =       8.2384eV
 LUMO-HOMO         0.514613 =      14.0033eV

 Orbitals saved in record  2100.2


 **********************************************************************************************************************************
 DATASETS  * FILE   NREC   LENGTH (MB)   RECORD NAMES
              1      19      205.02       500      610      700      900      950      970     1000      129      960     1100   
                                          VAR    BASINP    GEOM    SYMINP    ZMAT    AOBASIS   BASIS     P2S    ABASIS      S 
                                         1400     1410     1200     1210     1080     1600     1650     1300     1700   
                                           T        V       H0       H01     AOSYM     SMH    MOLCAS    ERIS     OPER   

              2       4        0.82       700     1000      520     2100   
                                         GEOM     BASIS   MCVARS     RHF  

 PROGRAMS   *        TOTAL    HF-SCF       INT
 CPU TIMES  *         5.56      2.99      2.47
 REAL TIME  *         7.80 SEC
 DISK USED  *       811.73 MB
 **********************************************************************************************************************************


 PROGRAM * CCSD (Closed-shell coupled cluster)     Authors: C. Hampel, H.-J. Werner, 1991, M. Deegan, P.J. Knowles, 1992


 Convergence thresholds:  THRVAR = 1.00D-08  THRDEN = 1.00D-06

 Number of core orbitals:           3 (   3 )
 Number of closed-shell orbitals:  11 (  11 )
 Number of external orbitals:     132 ( 132 )

 Molecular orbitals read from record     2100.2  Type=RHF/CANONICAL  

 Number of N-1 electron functions:              11
 Number of N-2 electron functions:              66
 Number of singly external CSFs:              1452
 Number of doubly external CSFs:           1054878
 Total number of CSFs:                     1056331

 Length of J-op  integral file:               0.00 MB
 Length of K-op  integral file:               1.53 MB
 Length of 3-ext integral record:             0.00 MB

 Integral transformation finished. Total CPU:   1.44 sec, npass=  1  Memory used:  21.61 MW

 Reference energy:                   -214.56758330

 MP2 singlet pair energy:              -0.44895511
 MP2 triplet pair energy:              -0.26359479
 MP2 correlation energy:               -0.71254990
 MP2 total energy:                   -215.28013320

 SCS-MP2 correlation energy:           -0.70276067   (PS=  1.200000  PT=  0.333333)
 SCS-MP2 total energy:               -215.27034397

 ITER.      SQ.NORM     CORR.ENERGY   TOTAL ENERGY   ENERGY CHANGE        DEN1      VAR(S)    VAR(P)  DIIS     TIME  TIME/IT
   1      1.16889897    -0.72627718  -215.29386048    -0.01372728     0.00218157  0.26D-02  0.27D-02  1  1     9.10     2.16
   2      1.17924691    -0.72697822  -215.29456152    -0.00070104    -0.01359422  0.25D-04  0.35D-03  2  2    10.84     2.11
   3      1.18295992    -0.72712901  -215.29471231    -0.00015079    -0.00236621  0.42D-04  0.16D-04  3  3    12.81     2.14
   4      1.18409436    -0.72708461  -215.29466790     0.00004440    -0.00060002  0.23D-05  0.25D-05  4  4    14.66     2.13
   5      1.18446582    -0.72708177  -215.29466507     0.00000284    -0.00012383  0.95D-06  0.19D-06  5  5    16.48     2.11
   6      1.18456702    -0.72707578  -215.29465908     0.00000599    -0.00001576  0.16D-06  0.44D-07  6  6    18.16     2.07
   7      1.18460235    -0.72707390  -215.29465719     0.00000189    -0.00000102  0.27D-07  0.12D-07  6  1    19.77     2.05
   8      1.18461872    -0.72707285  -215.29465615     0.00000105    -0.00000435  0.46D-08  0.16D-08  6  2    21.30     2.03
   9      1.18462134    -0.72707285  -215.29465614     0.00000000     0.00000146  0.65D-09  0.29D-09  6  3    22.68     1.97
  10      1.18462319    -0.72707270  -215.29465600     0.00000015    -0.00000049  0.12D-09  0.47D-10  6  4    24.02     1.91

 Norm of t1 vector:      0.06647641      S-energy:     0.00000015      T1 diagnostic:  0.01002170
                                                                       D1 diagnostic:  0.02455106
                                                                       D2 diagnostic:  0.13776653 (internal)


 RESULTS
 =======

  Reference energy                   -214.567583295653
  CCSD singlet pair energy             -0.490704899543
  CCSD triplet pair energy             -0.236367955402
  CCSD correlation energy              -0.727072701781

 !CCSD total energy                  -215.294655997434

 Timing summary (sec):

 STEP                 CPU(USER)    SYS     CPU(TOT)    WALL
 Transformation          1.48      0.15      1.63      1.97
 CCSD iterations        22.57      0.99     23.56     19.63

 Program statistics:

 Available memory in ccsd:               805305870
 Min. memory needed in ccsd:               2884166
 Max. memory used in ccsd:                 3801126
 Max. memory used in cckext:               3021045 (10 integral passes)



 **********************************************************************************************************************************
 DATASETS  * FILE   NREC   LENGTH (MB)   RECORD NAMES
              1      20      318.72       500      610      700      900      950      970     1000      129      960     1100   
                                          VAR    BASINP    GEOM    SYMINP    ZMAT    AOBASIS   BASIS     P2S    ABASIS      S 
                                         1400     1410     1200     1210     1080     1600     1650     1300     1700     1380   
                                           T        V       H0       H01     AOSYM     SMH    MOLCAS    ERIS     OPER     JKOP   

              2       4        0.82       700     1000      520     2100   
                                         GEOM     BASIS   MCVARS     RHF  

 PROGRAMS   *        TOTAL      CCSD    HF-SCF       INT
 CPU TIMES  *        23.94     18.37      2.99      2.47
 REAL TIME  *        29.65 SEC
 DISK USED  *       811.73 MB
 **********************************************************************************************************************************

 Dump information in style XML to xml output                                                                      

 Orbitals will not be exported.

 **********************************************************************************************************************************

 CCSD/cc-pVTZ energy=   -215.294655997434

            CCSD          HF-SCF
   -215.29465600   -214.56758330
 **********************************************************************************************************************************
 Molpro calculation terminated
