
 Working directory              : /var/folders/2v/xbgp75_9785319ghcgb4zr4r0000gp/T//molpro.mvjiZXJRln/
 Global scratch directory       : /var/folders/2v/xbgp75_9785319ghcgb4zr4r0000gp/T//molpro.mvjiZXJRln/
 Wavefunction directory         : /Users/sacpjk/wfu/
 Main file repository           : /var/folders/2v/xbgp75_9785319ghcgb4zr4r0000gp/T//molpro.mvjiZXJRln/

 id        : peterk

 Nodes                        nprocs
 Cardiff-University-G34YLXT77Y    1
 GA implementation: MPI file
 GA implementation (serial work in mppx): MPI file

 Using customized tuning parameters: mindgm=1; mindgv=20; mindgc=4; mindgr=1; noblas=0; minvec=7
 default implementation of scratch files=df  


 Variables initialized (1032), CPU time= 0.00 sec
 
 symmetry,nosym
 
 
 geometry={
 7
  n         -0.422152864772    0.814215618551   -0.022027612580
  h         -0.051533312762    1.321992124167    0.771104778348
  h         -0.051410025047    1.278554185326   -0.841286446839
  c          0.055599070940   -0.571817828704    0.015433592038
  h         -0.336285765616   -1.105843105439   -0.846758136943
  h          1.142310227153   -0.678552996670    0.018468087001
  h         -0.336527329738   -1.058547997337    0.905065738975
 }
 basis=aug-cc-pVTZ
 
 
 
 hf; hf; papt; mp3; counterpoise
 
 
 
 {put,xml;noorbitals,nobasis}
 Commands initialized (841), CPU time= 0.01 sec, 704 directives.
 Default parameters read. Elapsed time= 0.53 sec

 Checking input...
 Passed
1


                                         ***  PROGRAM SYSTEM MOLPRO  ***
                                       Copyright, TTI GmbH Stuttgart, 2015
                                    Version 2023.1 linked Tue Jun  6 09:54:11 2023


 **********************************************************************************************************************************
 LABEL *                                                                                                                                                                 
  64 bit serial version                                                                  DATE: 08-Jun-23          TIME: 16:21:09  
 **********************************************************************************************************************************

 SHA1:             8ebb0dd001088a5c915591db1a321413035db0b1
 **********************************************************************************************************************************

 Memory per process:       805 MW
 Total memory per node:   1074 MW
 Total GA space:           268 MW

 GA preallocation disabled
 GA check enabled

 Variable memory set to 805.3 MW

 ZSYMEL=NOSYM


 Geometry recognized as XYZ

 SETTING BASIS          =    AUG-CC-PVTZ


 Recomputing integrals since basis changed


 Using spherical harmonics

 Library entry N      S aug-cc-pVTZ          selected for orbital group  1
 Library entry N      P aug-cc-pVTZ          selected for orbital group  1
 Library entry N      D aug-cc-pVTZ          selected for orbital group  1
 Library entry N      F aug-cc-pVTZ          selected for orbital group  1
 Library entry H      S aug-cc-pVTZ          selected for orbital group  2
 Library entry H      P aug-cc-pVTZ          selected for orbital group  2
 Library entry H      D aug-cc-pVTZ          selected for orbital group  2
 Library entry C      S aug-cc-pVTZ          selected for orbital group  3
 Library entry C      P aug-cc-pVTZ          selected for orbital group  3
 Library entry C      D aug-cc-pVTZ          selected for orbital group  3
 Library entry C      F aug-cc-pVTZ          selected for orbital group  3


 PROGRAM * SEWARD (Integral evaluation for generally contracted gaussian basis sets)     Author: Roland Lindh, 1990

 Geometry written to block  1 of record 700


 Point group  C1  



 ATOMIC COORDINATES

 NR  ATOM    CHARGE       X              Y              Z

   1  N       7.00   -0.797753297    1.538644525   -0.041626155
   2  H       1.00   -0.097383847    2.498203054    1.457176844
   3  H       1.00   -0.097150867    2.416117246   -1.589800977
   4  C       6.00    0.105067017   -1.080579089    0.029165262
   5  H       1.00   -0.635487997   -2.089740606   -1.600140973
   6  H       1.00    2.158653479   -1.282279325    0.034899626
   7  H       1.00   -0.635944487   -2.000365805    1.710326371

 Bond lengths in Bohr (Angstrom)

 1-2  1.912506305  1-3  1.912497691  1-4  2.771358564  4-5  2.054621012  4-6  2.063476005
     ( 1.012054752)     ( 1.012050194)     ( 1.466539795)     ( 1.087258616)     ( 1.091944477)

 4-7  2.054606611
     ( 1.087250996)

 Bond angles

  1-4-5  109.05828429   1-4-6  114.62388021   1-4-7  109.05680438   2-1-3  105.66707886

  2-1-4  109.56459379   3-1-4  109.57028934   5-4-6  108.23406658   5-4-7  107.39674284

  6-4-7  108.23392760

 NUCLEAR CHARGE:                   18
 NUMBER OF PRIMITIVE AOS:         269
 NUMBER OF SYMMETRY AOS:          241
 NUMBER OF CONTRACTIONS:          207   (  207A   )
 NUMBER OF INNER CORE ORBITALS:     0   (    0A   )
 NUMBER OF OUTER CORE ORBITALS:     2   (    2A   )
 NUMBER OF VALENCE ORBITALS:       13   (   13A   )


 NUCLEAR REPULSION ENERGY   42.05202863

 Eigenvalues of metric

         1 0.389E-04 0.622E-04 0.643E-04 0.137E-03 0.159E-03 0.250E-03 0.393E-03 0.656E-03


 Contracted 2-electron integrals neglected if value below      1.0D-12
 AO integral compression algorithm  1   Integral accuracy      1.0D-12

     1322.254 MB (compressed) written to integral file ( 61.8%)


 NUMBER OF SORTED TWO-ELECTRON INTEGRALS:  231738156.     BUFFER LENGTH:  32768
 NUMBER OF SEGMENTS:  15  SEGMENT LENGTH:   15999503      RECORD LENGTH: 524288

 Memory used in sort:      16.56 MW

 SORT1 READ   267401021. AND WROTE   230448181. INTEGRALS IN    665 RECORDS. CPU TIME:     1.87 SEC, REAL TIME:     3.06 SEC
 SORT2 READ   230448181. AND WROTE   231738156. INTEGRALS IN   5044 RECORDS. CPU TIME:     1.49 SEC, REAL TIME:     3.93 SEC

 FILE SIZES:   FILE 1:  1353.9 MBYTE,  FILE 4:  2789.3 MBYTE,   TOTAL:   4143.2 MBYTE

 OPERATOR DM      FOR CENTER  0  COORDINATES:    0.000000    0.000000    0.000000


 **********************************************************************************************************************************
 DATASETS  * FILE   NREC   LENGTH (MB)   RECORD NAMES
              1      19     1149.72       500      610      700      900      950      970     1000      129      960     1100   
                                          VAR    BASINP    GEOM    SYMINP    ZMAT    AOBASIS   BASIS     P2S    ABASIS      S 
                                         1400     1410     1200     1210     1080     1600     1650     1300     1700   
                                           T        V       H0       H01     AOSYM     SMH    MOLCAS    ERIS     OPER   

 PROGRAMS   *        TOTAL       INT
 CPU TIMES  *         8.27      8.17
 REAL TIME  *        16.08 SEC
 DISK USED  *         3.86 GB
 **********************************************************************************************************************************


 Program * Restricted Hartree-Fock

 Orbital guess generated from atomic densities. Full valence occupancy:   15

 Initial occupancy:   9

 NELEC=   18   SYM=1   MS2= 0   THRE=1.0D-08   THRD=3.2D-06   THRG=3.2D-06  HFMA2=F  DIIS_START=2   DIIS_MAX=10   DIIS_INCORE=F

 Level shifts:    0.00 (CLOSED)    0.00 (OPEN)    0.30 (GAP_MIN)

 ITER           ETOT              DE          GRAD        DDIFF     DIIS  NEXP   TIME(IT)  TIME(TOT)  DIAG
   1      -95.22550290     -95.22550290     0.00D+00     0.41D-01     0     0       1.09      2.04    start
   2      -95.25115079      -0.02564789     0.37D-02     0.43D-02     1     0       1.14      3.18    diag
   3      -95.25492168      -0.00377089     0.16D-02     0.12D-02     2     0       1.12      4.30    diag
   4      -95.25544272      -0.00052104     0.46D-03     0.42D-03     3     0       1.18      5.48    diag
   5      -95.25546916      -0.00002644     0.90D-04     0.80D-04     4     0       1.06      6.54    diag
   6      -95.25547088      -0.00000173     0.22D-04     0.25D-04     5     0       1.10      7.64    diag
   7      -95.25547101      -0.00000013     0.60D-05     0.66D-05     6     0       1.10      8.74    diag
   8      -95.25547102      -0.00000002     0.16D-05     0.28D-05     7     0       1.07      9.81    fixocc
   9      -95.25547102      -0.00000000     0.42D-06     0.79D-06     8     0       1.11     10.92    diag
  10      -95.25547102      -0.00000000     0.89D-07     0.92D-07     0     0       1.14     12.06    diag/orth

 Final occupancy:   9

 !RHF STATE 1.1 Energy                -95.255471024560
  RHF One-electron energy            -211.457118926793
  RHF Two-electron energy              74.149619267522
  RHF Kinetic energy                   95.124465430400
  RHF Nuclear energy                   42.052028634711
  RHF Virial quotient                  -1.001377201896

 !RHF STATE 1.1 Dipole moment           0.56982233     0.00321406    -0.00002579
 Dipole moment /Debye                   1.44834390     0.00816932    -0.00006555

 Orbital energies:

           1.1          2.1          3.1          4.1          5.1          6.1          7.1          8.1          9.1         10.1
    -15.539977   -11.240326    -1.170056    -0.896653    -0.661411    -0.603968    -0.555606    -0.517433    -0.393511     0.029458

          11.1
      0.042830


 HOMO      9.1    -0.393511 =     -10.7080eV
 LUMO     10.1     0.029458 =       0.8016eV
 LUMO-HOMO         0.422968 =      11.5096eV

 Orbitals saved in record  2100.2


 **********************************************************************************************************************************
 DATASETS  * FILE   NREC   LENGTH (MB)   RECORD NAMES
              1      19     1149.72       500      610      700      900      950      970     1000      129      960     1100   
                                          VAR    BASINP    GEOM    SYMINP    ZMAT    AOBASIS   BASIS     P2S    ABASIS      S 
                                         1400     1410     1200     1210     1080     1600     1650     1300     1700   
                                           T        V       H0       H01     AOSYM     SMH    MOLCAS    ERIS     OPER   

              2       4        1.16       700     1000      520     2100   
                                         GEOM     BASIS   MCVARS     RHF  

 PROGRAMS   *        TOTAL    HF-SCF       INT
 CPU TIMES  *        20.33     12.06      8.17
 REAL TIME  *        33.28 SEC
 DISK USED  *         3.86 GB
 **********************************************************************************************************************************


 Program * Restricted Hartree-Fock

 Molecular orbitals read from record     2100.2  Type=RHF/CANONICAL  

 Initial occupancy:   9

 NELEC=   18   SYM=1   MS2= 0   THRE=1.0D-08   THRD=3.2D-06   THRG=3.2D-06  HFMA2=F  DIIS_START=2   DIIS_MAX=10   DIIS_INCORE=F

 Level shifts:    0.00 (CLOSED)    0.00 (OPEN)    0.30 (GAP_MIN)

 ITER           ETOT              DE          GRAD        DDIFF     DIIS  NEXP   TIME(IT)  TIME(TOT)  DIAG
   1      -95.25547102     -95.25547102     0.00D+00     0.42D-01     0     0       1.10      1.10    start
   2      -95.25547102      -0.00000000     0.42D-07     0.45D-07     1     0       1.05      2.15    diag

 Final occupancy:   9

 !RHF STATE 1.1 Energy                -95.255471024570
  RHF One-electron energy            -211.457121679625
  RHF Two-electron energy              74.149622020345
  RHF Kinetic energy                   95.124465811212
  RHF Nuclear energy                   42.052028634711
  RHF Virial quotient                  -1.001377197887

 !RHF STATE 1.1 Dipole moment           0.56982406     0.00321353    -0.00002578
 Dipole moment /Debye                   1.44834830     0.00816798    -0.00006551

 Orbital energies:

           1.1          2.1          3.1          4.1          5.1          6.1          7.1          8.1          9.1         10.1
    -15.539977   -11.240325    -1.170056    -0.896653    -0.661411    -0.603968    -0.555605    -0.517433    -0.393511     0.029458

          11.1
      0.042830


 HOMO      9.1    -0.393511 =     -10.7080eV
 LUMO     10.1     0.029458 =       0.8016eV
 LUMO-HOMO         0.422969 =      11.5096eV

 Orbitals saved in record  2101.2


 **********************************************************************************************************************************
 DATASETS  * FILE   NREC   LENGTH (MB)   RECORD NAMES
              1      19     1149.72       500      610      700      900      950      970     1000      129      960     1100   
                                          VAR    BASINP    GEOM    SYMINP    ZMAT    AOBASIS   BASIS     P2S    ABASIS      S 
                                         1400     1410     1200     1210     1080     1600     1650     1300     1700   
                                           T        V       H0       H01     AOSYM     SMH    MOLCAS    ERIS     OPER   

              2       5        2.41       700     1000      520     2100     2101   
                                         GEOM     BASIS   MCVARS     RHF      RHF  

 PROGRAMS   *        TOTAL    HF-SCF    HF-SCF       INT
 CPU TIMES  *        22.49      2.16     12.06      8.17
 REAL TIME  *        36.86 SEC
 DISK USED  *         3.86 GB
 **********************************************************************************************************************************


 PROGRAM * PAPT (Closed-shell)     Authors: C. Hampel, H.-J. Werner, 1991, P.J. Knowles, 2021


 Convergence thresholds:  THRVAR = 1.00D-08  THRDEN = 1.00D-06

 Number of core orbitals:           2 (   2 )
 Number of closed-shell orbitals:   7 (   7 )
 Number of external orbitals:     198 ( 198 )

 Molecular orbitals read from record     2101.2  Type=RHF/CANONICAL  

 Number of N-1 electron functions:               7
 Number of N-2 electron functions:              28
 Number of singly external CSFs:              1386
 Number of doubly external CSFs:            961191
 Total number of CSFs:                      962578

 Length of J-op  integral file:               0.00 MB
 Length of K-op  integral file:               3.00 MB

 Integral transformation finished. Total CPU:   1.61 sec, npass=  1  Memory used:   2.95 MW

 Reference energy:                    -95.25547102

                        CORR.ENERGY   TOTAL ENERGY   ENERGY CHANGE
 MP2:                   -0.41168467   -95.66715570    -0.41168467

 SCS-MP2 correlation energy:           -0.41613749   (PS=  1.200000  PT=  0.333333)
 SCS-MP2 total energy:                -95.67160852
 Iteration:   1     0.1816D+00
 Iteration:   2     0.2230D+00
 Iteration:   3     0.3920D-01
 Iteration:   4     0.3339D-01
 Iteration:   5     0.2473D-01
 Iteration:   6     0.7865D-02
 Iteration:   7     0.1304D+01
 Iteration:   8     0.2744D-02
 Iteration:   9     0.2758D-02
 Iteration:  10     0.2485D-02
 Iteration:  11     0.1087D-02
 Iteration:  12     0.8940D-01
 Iteration:  13     0.3864D-03
 Iteration:  14     0.3787D-03
 Iteration:  15     0.4100D-03
 Iteration:  16     0.1003D-03
 Iteration:  17     0.1184D-03
 Iteration:  18     0.5979D-04
 PAPT operator written to  7000.1
 PAPT orbitals and eigenvalues written to  7000.2

 MP3(D):                -0.43292275   -95.68839378    -0.02123808



 RESULTS
 =======

  Reference energy                    -95.255471024570
  MP3 singlet pair energy              -0.304336038199
  MP3 triplet pair energy              -0.128586714868
  MP3 correlation energy               -0.432922753067

 !MP3 total energy                    -95.688393777637

 Timing summary (sec):

 STEP                 CPU(USER)    SYS     CPU(TOT)    WALL
 Transformation          1.65      0.22      1.87      3.13
 CCSD iterations        26.61      0.44     27.05      8.36

 Program statistics:

 Available memory in ccsd:               805306163
 Min. memory needed in ccsd:               3040312
 Max. memory used in ccsd:                 3839467
 Max. memory used in cckext:               2734686 ( 1 integral passes)



 **********************************************************************************************************************************
 DATASETS  * FILE   NREC   LENGTH (MB)   RECORD NAMES
              1      21     1164.30       500      610      700      900      950      970     1000      129      960     1100   
                                          VAR    BASINP    GEOM    SYMINP    ZMAT    AOBASIS   BASIS     P2S    ABASIS      S 
                                         1400     1410     1200     1210     1080     1600     1650     1300     1700     1380   
                                           T        V       H0       H01     AOSYM     SMH    MOLCAS    ERIS     OPER     JKOP   
                                         7000   
                                        PAPT AO    

              2       6        3.49       700     1000      520     2100     2101     7000   
                                         GEOM     BASIS   MCVARS     RHF      RHF     PAPT   

 PROGRAMS   *        TOTAL      PAPT    HF-SCF    HF-SCF       INT
 CPU TIMES  *        28.16      5.66      2.16     12.06      8.17
 REAL TIME  *        48.60 SEC
 DISK USED  *         3.86 GB
 **********************************************************************************************************************************


 PROGRAM * MP3 (Closed-shell)     Authors: C. Hampel, H.-J. Werner, 1991, M. Deegan, P.J. Knowles, 1992


 Convergence thresholds:  THRVAR = 1.00D-08  THRDEN = 1.00D-06

 Number of core orbitals:           2 (   2 )
 Number of closed-shell orbitals:   7 (   7 )
 Number of external orbitals:     198 ( 198 )

 Molecular orbitals read from record     7000.2  Type=PAPT/CANONICAL (state 1.1)

 Number of N-1 electron functions:               7
 Number of N-2 electron functions:              28
 Number of singly external CSFs:              1386
 Number of doubly external CSFs:            961191
 Total number of CSFs:                      962578

 Length of J-op  integral file:               0.00 MB
 Length of K-op  integral file:               3.00 MB

 Integral transformation finished. Total CPU:   1.63 sec, npass=  1  Memory used:   2.95 MW
 Orbital energies read from record       7000.2  Type=PAPT/CANONICAL (state 1.1)

 Reference energy:                    -95.25547102

                        CORR.ENERGY   TOTAL ENERGY   ENERGY CHANGE
 MP2:                   -0.43768502   -95.69315604    -0.43768502

 SCS-MP2 correlation energy:           -0.44420576   (PS=  1.200000  PT=  0.333333)
 SCS-MP2 total energy:                -95.69967678

 MP3(D):                -0.43789150   -95.69336252    -0.00020648



 RESULTS
 =======

  Reference energy                    -95.255471024570
  MP3 singlet pair energy              -0.309828897365
  MP3 triplet pair energy              -0.128062599180
  MP3 correlation energy               -0.437891496545

 !MP3 total energy                    -95.693362521115

 Timing summary (sec):

 STEP                 CPU(USER)    SYS     CPU(TOT)    WALL
 Transformation          2.86      0.37      3.23      4.24
 CCSD iterations        30.97      0.22     31.19      3.57

 Program statistics:

 Available memory in ccsd:               805306163
 Min. memory needed in ccsd:               3040312
 Max. memory used in ccsd:                 3839467
 Max. memory used in cckext:               2734686 ( 1 integral passes)



 **********************************************************************************************************************************
 DATASETS  * FILE   NREC   LENGTH (MB)   RECORD NAMES
              1      21     1164.30       500      610      700      900      950      970     1000      129      960     1100   
                                          VAR    BASINP    GEOM    SYMINP    ZMAT    AOBASIS   BASIS     P2S    ABASIS      S 
                                         1400     1410     1200     1210     1080     1600     1650     1300     1700     1380   
                                           T        V       H0       H01     AOSYM     SMH    MOLCAS    ERIS     OPER     JKOP   
                                         7000   
                                        PAPT AO    

              2       6        3.49       700     1000      520     2100     2101     7000   
                                         GEOM     BASIS   MCVARS     RHF      RHF     PAPT   

 PROGRAMS   *        TOTAL       MP3      PAPT    HF-SCF    HF-SCF       INT
 CPU TIMES  *        33.74      5.57      5.66      2.16     12.06      8.17
 REAL TIME  *        56.88 SEC
 DISK USED  *         3.86 GB
 **********************************************************************************************************************************

 Counterpoise: absolute minimum monomer separation=    -1.000 Bragg radius scale factor=     1.400 Number of monomers= 1
 Counterpoise skipped because only a single monomer


 **********************************************************************************************************************************
 DATASETS  * FILE   NREC   LENGTH (MB)   RECORD NAMES
              1      21     1164.30       500      610      700      900      950      970     1000      129      960     1100   
                                          VAR    BASINP    GEOM    SYMINP    ZMAT    AOBASIS   BASIS     P2S    ABASIS      S 
                                         1400     1410     1200     1210     1080     1600     1650     1300     1700     1380   
                                           T        V       H0       H01     AOSYM     SMH    MOLCAS    ERIS     OPER     JKOP   
                                         7000   
                                        PAPT AO    

              2       6        3.49       700     1000      520     2100     2101     7000   
                                         GEOM     BASIS   MCVARS     RHF      RHF     PAPT   

 PROGRAMS   *        TOTALCOUNTERPOI       MP3      PAPT    HF-SCF    HF-SCF       INT
 CPU TIMES  *        33.74      0.00      5.57      5.66      2.16     12.06      8.17
 REAL TIME  *        56.98 SEC
 DISK USED  *         3.86 GB
 **********************************************************************************************************************************

 Dump information in style XML to xml output                                                                      

 Orbitals will not be exported.

 **********************************************************************************************************************************

 MP3/aug-cc-pVTZ energy=    -95.693362521115

             MP3            PAPT          HF-SCF          HF-SCF
    -95.69336252    -95.68839378    -95.25547102    -95.25547102
 **********************************************************************************************************************************
 Molpro calculation terminated
