
 Working directory              : /tmp/peterk/molpro.sPC0zo7TGu/
 Global scratch directory       : /tmp/peterk/molpro.sPC0zo7TGu/
 Wavefunction directory         : /home/peterk/wfu/
 Main file repository           : /tmp/peterk/molpro.sPC0zo7TGu/

 id        : peterk

 Nodes     nprocs
 marat        1
 GA implementation: MPI file
 GA implementation (serial work in mppx): MPI file

 Using customized tuning parameters: mindgm=1; mindgv=20; mindgc=4; mindgr=1; noblas=0; minvec=7
 default implementation of scratch files=df  


 Variables initialized (1032), CPU time= 0.00 sec
 
 core,small
 angstrom
 
 geometry={
 O1;C,O1,1.16039505;O2,C,1.16039505,O1,180
 }
 basis=cc-pCVTZ
 
 
 
 hf
 
 
 
 {put,xml;noorbitals,nobasis}
 Commands initialized (841), CPU time= 0.01 sec, 708 directives.
 Default parameters read. Elapsed time= 0.05 sec

 Checking input...
 Passed
1


                                         ***  PROGRAM SYSTEM MOLPRO  ***
                                       Copyright, TTI GmbH Stuttgart, 2015
                                    Version 2023.1 linked Sat Jun 10 08:01:27 2023


 **********************************************************************************************************************************
 LABEL *                                                                                                                                                                 
  (16 PROC) 64 bit serial version                                                        DATE: 12-Jun-23          TIME: 10:21:55  
 **********************************************************************************************************************************

 SHA1:             8376d659ba1296ca7ee514c57770fe2c96af278c
 **********************************************************************************************************************************

 Memory per process:      1074 MW
 Total memory per node:   1074 MW

 GA preallocation disabled
 GA check disabled

 Variable memory set to 1073.7 MW

 ZUNIT=ANG

 SETTING BASIS          =    CC-PCVTZ


 Recomputing integrals since basis changed


 Using spherical harmonics

 Library entry O      S cc-pCVTZ             selected for orbital group  1
 Library entry O      P cc-pCVTZ             selected for orbital group  1
 Library entry O      D cc-pCVTZ             selected for orbital group  1
 Library entry O      F cc-pCVTZ             selected for orbital group  1
 Library entry C      S cc-pCVTZ             selected for orbital group  2
 Library entry C      P cc-pCVTZ             selected for orbital group  2
 Library entry C      D cc-pCVTZ             selected for orbital group  2
 Library entry C      F cc-pCVTZ             selected for orbital group  2


 PROGRAM * SEWARD (Integral evaluation for generally contracted gaussian basis sets)     Author: Roland Lindh, 1990

 Geometry written to block  1 of record 700

 Orientation using atomic masses  
 Molecule type: Linear
 Symmetry elements: X,Y,Z
 Rotational constants:      11.7292910     11.7292910      0.0000000 GHz  (calculated with average atomic masses)

 Point group  D2h 



 ATOMIC COORDINATES

 NR  ATOM    CHARGE       X              Y              Z

   1  O1      8.00    0.000000000    0.000000000   -2.192828841
   2  O2      8.00    0.000000000    0.000000000    2.192828841
   3  C       6.00    0.000000000    0.000000000    0.000000000

 Bond lengths in Bohr (Angstrom)

 1-3  2.192828841  2-3  2.192828841
     ( 1.160395050)     ( 1.160395050)

 Bond angles

  1-3-2  180.00000000

 NUCLEAR CHARGE:                   22
 NUMBER OF PRIMITIVE AOS:         183
 NUMBER OF SYMMETRY AOS:          165
 NUMBER OF CONTRACTIONS:          129   (   31Ag  +   17B3u +   17B2u +    7B1g +   26B1u +   13B2g +   13B3g +    5Au  )
 NUMBER OF INNER CORE ORBITALS:     0   (    0Ag  +    0B3u +    0B2u +    0B1g +    0B1u +    0B2g +    0B3g +    0Au  )
 NUMBER OF OUTER CORE ORBITALS:     3   (    2Ag  +    0B3u +    0B2u +    0B1g +    1B1u +    0B2g +    0B3g +    0Au  )
 NUMBER OF VALENCE ORBITALS:       12   (    3Ag  +    2B3u +    2B2u +    0B1g +    3B1u +    1B2g +    1B3g +    0Au  )


 NUCLEAR REPULSION ENERGY   58.37208888

 EXTRA SYMMETRY OF AOS IN SYMMETRY 1:   1 1 1 1 1 1 1 1 1 1   1 1 2 1 2 1 2 1 2 1   1 1 1 1 1 1 2 1 2 1   2
 EXTRA SYMMETRY OF AOS IN SYMMETRY 2:   1 1 1 1 1 1 1 1 1 2   1 1 1 1 1 1 2
 EXTRA SYMMETRY OF AOS IN SYMMETRY 3:   1 1 1 1 1 1 1 1 1 2   1 1 1 1 1 1 2
 EXTRA SYMMETRY OF AOS IN SYMMETRY 5:   1 1 1 1 1 1 1 1 1 1   1 1 2 1 2 1 2 1 2 1   1 1 1 1 1 2
 EXTRA SYMMETRY OF AOS IN SYMMETRY 6:   1 1 1 1 1 1 1 1 1 2   1 1 1
 EXTRA SYMMETRY OF AOS IN SYMMETRY 7:   1 1 1 1 1 1 1 1 1 2   1 1 1

 Eigenvalues of metric

         1 0.110E-02 0.321E-02 0.102E-01 0.127E-01 0.156E-01 0.185E-01 0.415E-01 0.762E-01
         2 0.135E-01 0.260E-01 0.691E-01 0.106E+00 0.343E+00 0.406E+00 0.424E+00 0.546E+00
         3 0.135E-01 0.260E-01 0.691E-01 0.106E+00 0.343E+00 0.406E+00 0.424E+00 0.546E+00
         4 0.330E+00 0.509E+00 0.858E+00 0.988E+00 0.101E+01 0.136E+01 0.195E+01
         5 0.104E-02 0.285E-02 0.109E-01 0.131E-01 0.364E-01 0.527E-01 0.847E-01 0.158E+00
         6 0.219E-01 0.656E-01 0.259E+00 0.349E+00 0.459E+00 0.583E+00 0.995E+00 0.995E+00
         7 0.219E-01 0.656E-01 0.259E+00 0.349E+00 0.459E+00 0.583E+00 0.995E+00 0.995E+00
         8 0.317E+00 0.593E+00 0.977E+00 0.126E+01 0.185E+01


 Contracted 2-electron integrals neglected if value below      1.0D-11
 AO integral compression algorithm  1   Integral accuracy      1.0D-11

     24.379 MB (compressed) written to integral file ( 44.1%)


 NUMBER OF SORTED TWO-ELECTRON INTEGRALS:    4685368.     BUFFER LENGTH:  32768
 NUMBER OF SEGMENTS:   1  SEGMENT LENGTH:    4685368      RECORD LENGTH: 524288

 Memory used in sort:       5.24 MW

 SORT1 READ     6965812. AND WROTE     3673950. INTEGRALS IN     11 RECORDS. CPU TIME:     0.13 SEC, REAL TIME:     0.17 SEC
 SORT2 READ     3673950. AND WROTE     4685368. INTEGRALS IN     93 RECORDS. CPU TIME:     0.16 SEC, REAL TIME:     0.18 SEC

 FILE SIZES:   FILE 1:    54.8 MBYTE,  FILE 4:    46.2 MBYTE,   TOTAL:    101.0 MBYTE

 OPERATOR DM      FOR CENTER  0  COORDINATES:    0.000000    0.000000    0.000000


 **********************************************************************************************************************************
 DATASETS  * FILE   NREC   LENGTH (MB)   RECORD NAMES
              1      19       45.11       500      610      700      900      950      970     1000      129      960     1100   
                                          VAR    BASINP    GEOM    SYMINP    ZMAT    AOBASIS   BASIS     P2S    ABASIS      S 
                                         1400     1410     1200     1210     1080     1600     1650     1300     1700   
                                           T        V       H0       H01     AOSYM     SMH    MOLCAS    ERIS     OPER   

 PROGRAMS   *        TOTAL       INT
 CPU TIMES  *         1.29      1.19
 REAL TIME  *         2.02 SEC
 DISK USED  *        96.68 MB
 **********************************************************************************************************************************


 Program * Restricted Hartree-Fock

 Orbital guess generated from atomic densities. Full valence occupancy:    5   2   2   0   4   1   1   0


 Initial occupancy:   4   1   1   0   3   1   1   0

 NELEC=   22   SYM=1   MS2= 0   THRE=1.0D-08   THRD=3.2D-06   THRG=3.2D-06  HFMA2=F  DIIS_START=2   DIIS_MAX=10   DIIS_INCORE=F

 Level shifts:    0.00 (CLOSED)    0.00 (OPEN)    0.30 (GAP_MIN)

 ITER           ETOT              DE          GRAD        DDIFF     DIIS  NEXP   TIME(IT)  TIME(TOT)  DIAG
   1     -187.63751458    -187.63751458     0.00D+00     0.16D+00     0     0       0.00      0.01    start
   2     -187.67596044      -0.03844586     0.21D-01     0.28D-01     1     0       0.01      0.02    diag
   3     -187.70808891      -0.03212847     0.15D-01     0.11D-01     2     0       0.01      0.03    diag
   4     -187.70836375      -0.00027484     0.12D-02     0.15D-02     3     0       0.02      0.05    diag
   5     -187.70839450      -0.00003075     0.36D-03     0.54D-03     4     0       0.01      0.06    diag
   6     -187.70839676      -0.00000225     0.89D-04     0.16D-03     5     0       0.01      0.07    diag
   7     -187.70839681      -0.00000006     0.11D-04     0.20D-04     6     0       0.01      0.08    diag
   8     -187.70839682      -0.00000000     0.20D-05     0.40D-05     7     0       0.01      0.09    fixocc
   9     -187.70839682      -0.00000000     0.27D-06     0.51D-06     8     0       0.01      0.10    diag
  10     -187.70839682      -0.00000000     0.26D-07     0.40D-07     0     0       0.01      0.11    diag/orth

 Final occupancy:   4   1   1   0   3   1   1   0

 !RHF STATE 1.1 Energy               -187.708396815195
  RHF One-electron energy            -372.536381282404
  RHF Two-electron energy             126.455895586285
  RHF Kinetic energy                  187.441774925698
  RHF Nuclear energy                   58.372088880924
  RHF Virial quotient                  -1.001422425122

 !RHF STATE 1.1 Dipole moment           0.00000000     0.00000000     0.00000000
 Dipole moment /Debye                   0.00000000     0.00000000     0.00000000

 Orbital energies:

           1.1          2.1          3.1          4.1          5.1          6.1
    -20.648110   -11.457631    -1.529350    -0.798811     0.172666     0.548521

           1.2          2.2          3.2
     -0.713724     0.206903     0.393776

           1.3          2.3          3.3
     -0.713724     0.206903     0.393776

           1.4          2.4
      0.756510     1.925218

           1.5          2.5          3.5          4.5          5.5
    -20.648156    -1.476166    -0.741480     0.338582     0.645153

           1.6          2.6          3.6
     -0.542571     0.715834     1.220855

           1.7          2.7          3.7
     -0.542571     0.715834     1.220855

           1.8          2.8
      1.638245     3.221030


 HOMO      1.7    -0.542571 =     -14.7641eV
 LUMO      5.1     0.172666 =       4.6985eV
 LUMO-HOMO         0.715237 =      19.4626eV

 Orbitals saved in record  2100.2


 **********************************************************************************************************************************
 DATASETS  * FILE   NREC   LENGTH (MB)   RECORD NAMES
              1      19       45.11       500      610      700      900      950      970     1000      129      960     1100   
                                          VAR    BASINP    GEOM    SYMINP    ZMAT    AOBASIS   BASIS     P2S    ABASIS      S 
                                         1400     1410     1200     1210     1080     1600     1650     1300     1700   
                                           T        V       H0       H01     AOSYM     SMH    MOLCAS    ERIS     OPER   

              2       4        0.45       700     1000      520     2100   
                                         GEOM     BASIS   MCVARS     RHF  

 PROGRAMS   *        TOTAL    HF-SCF       INT
 CPU TIMES  *         1.40      0.11      1.19
 REAL TIME  *         2.14 SEC
 DISK USED  *        96.68 MB
 **********************************************************************************************************************************

 Dump information in style XML to xml output                                                                      

 Orbitals will not be exported.

 **********************************************************************************************************************************

 HF/cc-pCVTZ energy=   -187.708396815195

          HF-SCF
   -187.70839682
 **********************************************************************************************************************************
 Molpro calculation terminated
