
 Working directory              : /var/folders/2v/xbgp75_9785319ghcgb4zr4r0000gp/T//molpro.FEtEObTFGa/
 Global scratch directory       : /var/folders/2v/xbgp75_9785319ghcgb4zr4r0000gp/T//molpro.FEtEObTFGa/
 Wavefunction directory         : /Users/sacpjk/wfu/
 Main file repository           : /var/folders/2v/xbgp75_9785319ghcgb4zr4r0000gp/T//molpro.FEtEObTFGa/

 id        : peterk

 Nodes                        nprocs
 Cardiff-University-G34YLXT77Y    1
 GA implementation: MPI file
 GA implementation (serial work in mppx): MPI file

 Using customized tuning parameters: mindgm=1; mindgv=20; mindgc=4; mindgr=1; noblas=0; minvec=7
 default implementation of scratch files=df  


 Variables initialized (1032), CPU time= 0.00 sec
 
 symmetry,nosym
 
 
 geometry={
           10
     C          0.93577667      0.39537143      0.00000000
     C          0.85196601     -0.96841085      0.00000000
     O         -1.50506259     -1.24340628      0.00000000
     N         -1.72883338     -0.04590722      0.00000000
     C         -1.16713640      1.02284528      0.00000000
     H          1.15273844      0.92694986      0.92000024
     H          1.15273844      0.92694986     -0.92000024
     H          0.87762775     -1.53660420      0.92009471
     H          0.87762775     -1.53660420     -0.92009471
     H         -1.44744268      2.05881632      0.00000000
 }
 basis=cc-pVDZ
 
 
 
 hf; ccsd(t)
 
 
 
 {put,xml;noorbitals,nobasis}
 Commands initialized (841), CPU time= 0.01 sec, 704 directives.
 Default parameters read. Elapsed time= 1.05 sec

 Checking input...
 Passed
1


                                         ***  PROGRAM SYSTEM MOLPRO  ***
                                       Copyright, TTI GmbH Stuttgart, 2015
                                    Version 2023.1 linked Tue Jun  6 09:54:11 2023


 **********************************************************************************************************************************
 LABEL *                                                                                                                                                                 
  64 bit serial version                                                                  DATE: 11-Jun-23          TIME: 23:25:24  
 **********************************************************************************************************************************

 SHA1:             8ebb0dd001088a5c915591db1a321413035db0b1
 **********************************************************************************************************************************

 Memory per process:       393 MW
 Total memory per node:    524 MW
 Total GA space:           131 MW

 GA preallocation disabled
 GA check enabled

 Variable memory set to 393.2 MW

 ZSYMEL=NOSYM


 Geometry recognized as XYZ

 SETTING BASIS          =    CC-PVDZ


 Recomputing integrals since basis changed


 Using spherical harmonics

 Library entry C      S cc-pVDZ              selected for orbital group  1
 Library entry C      P cc-pVDZ              selected for orbital group  1
 Library entry C      D cc-pVDZ              selected for orbital group  1
 Library entry O      S cc-pVDZ              selected for orbital group  2
 Library entry O      P cc-pVDZ              selected for orbital group  2
 Library entry O      D cc-pVDZ              selected for orbital group  2
 Library entry N      S cc-pVDZ              selected for orbital group  3
 Library entry N      P cc-pVDZ              selected for orbital group  3
 Library entry N      D cc-pVDZ              selected for orbital group  3
 Library entry H      S cc-pVDZ              selected for orbital group  5
 Library entry H      P cc-pVDZ              selected for orbital group  5


 PROGRAM * SEWARD (Integral evaluation for generally contracted gaussian basis sets)     Author: Roland Lindh, 1990

 Geometry written to block  1 of record 700


 Point group  C1  



 ATOMIC COORDINATES

 NR  ATOM    CHARGE       X              Y              Z

   1  C       6.00    1.768361620    0.747143720    0.000000000
   2  C       6.00    1.609982426   -1.830031283    0.000000000
   3  O       8.00   -2.844156096   -2.349697331    0.000000000
   4  N       7.00   -3.267021603   -0.086752073    0.000000000
   5  C       6.00   -2.205568146    1.932897447    0.000000000
   6  H       1.00    2.178359945    1.751681367    1.738548488
   7  H       1.00    2.178359945    1.751681367   -1.738548488
   8  H       1.00    1.658476087   -2.903761100    1.738727011
   9  H       1.00    1.658476087   -2.903761100   -1.738727011
  10  H       1.00   -2.735270246    3.890598986    0.000000000

 Bond lengths in Bohr (Angstrom)

 1-2  2.582036980  1-6  2.049328025  1-7  2.049328025  2-8  2.044118141  2-9  2.044118141
     ( 1.366355127)     ( 1.084457689)     ( 1.084457689)     ( 1.081700736)     ( 1.081700736)

  3- 4  2.302115653   4- 5  2.281593221   5-10  2.028097539
       ( 1.218227140)       ( 1.207367137)       ( 1.073222999)

 Bond angles

  1-2-8  121.52250959   1-2-9  121.52250959   2-1-6  120.10112852   2-1-7  120.10112852

  3- 4- 5  141.69072663   4- 5-10  137.13504101   6- 1- 7  116.06542625   8- 2- 9  116.55399035

 NUCLEAR CHARGE:                   38
 NUMBER OF PRIMITIVE AOS:         170
 NUMBER OF SYMMETRY AOS:          165
 NUMBER OF CONTRACTIONS:           95   (   95A   )
 NUMBER OF INNER CORE ORBITALS:     0   (    0A   )
 NUMBER OF OUTER CORE ORBITALS:     5   (    5A   )
 NUMBER OF VALENCE ORBITALS:       25   (   25A   )


 NUCLEAR REPULSION ENERGY  161.14848520


 Eigenvalues of metric

         1 0.291E-02 0.507E-02 0.851E-02 0.129E-01 0.162E-01 0.179E-01 0.271E-01 0.274E-01


 Contracted 2-electron integrals neglected if value below      1.0D-11
 AO integral compression algorithm  1   Integral accuracy      1.0D-11

     38.797 MB (compressed) written to integral file ( 41.8%)


 NUMBER OF SORTED TWO-ELECTRON INTEGRALS:   10399080.     BUFFER LENGTH:  32768
 NUMBER OF SEGMENTS:   1  SEGMENT LENGTH:   10399080      RECORD LENGTH: 524288

 Memory used in sort:      10.96 MW

 SORT1 READ    11627443. AND WROTE     8292795. INTEGRALS IN     24 RECORDS. CPU TIME:     0.08 SEC, REAL TIME:     0.10 SEC
 SORT2 READ     8292795. AND WROTE    10399080. INTEGRALS IN    148 RECORDS. CPU TIME:     0.11 SEC, REAL TIME:     0.14 SEC

 FILE SIZES:   FILE 1:    69.3 MBYTE,  FILE 4:   100.7 MBYTE,   TOTAL:    170.0 MBYTE

 OPERATOR DM      FOR CENTER  0  COORDINATES:    0.000000    0.000000    0.000000


 **********************************************************************************************************************************
 DATASETS  * FILE   NREC   LENGTH (MB)   RECORD NAMES
              1      19       61.87       500      610      700      900      950      970     1000      129      960     1100   
                                          VAR    BASINP    GEOM    SYMINP    ZMAT    AOBASIS   BASIS     P2S    ABASIS      S 
                                         1400     1410     1200     1210     1080     1600     1650     1300     1700   
                                           T        V       H0       H01     AOSYM     SMH    MOLCAS    ERIS     OPER   

 PROGRAMS   *        TOTAL       INT
 CPU TIMES  *         0.90      0.79
 REAL TIME  *         4.91 SEC
 DISK USED  *       162.63 MB
 **********************************************************************************************************************************


 Program * Restricted Hartree-Fock

 Orbital guess generated from atomic densities. Full valence occupancy:   30

 Initial occupancy:  19

 NELEC=   38   SYM=1   MS2= 0   THRE=1.0D-08   THRD=3.2D-06   THRG=3.2D-06  HFMA2=F  DIIS_START=2   DIIS_MAX=10   DIIS_INCORE=F

 Level shifts:    0.00 (CLOSED)    0.00 (OPEN)    0.30 (GAP_MIN)

 ITER           ETOT              DE          GRAD        DDIFF     DIIS  NEXP   TIME(IT)  TIME(TOT)  DIAG
   1     -245.54510296    -245.54510296     0.00D+00     0.12D+00     0     0       0.05      0.09    start
   2     -245.59501572      -0.04991276     0.73D-02     0.16D-01     1     0       0.04      0.13    diag
   3     -245.62887304      -0.03385732     0.53D-02     0.70D-02     2     0       0.05      0.18    diag
   4     -245.63062082      -0.00174778     0.91D-03     0.18D-02     3     0       0.05      0.23    diag
   5     -245.63087103      -0.00025020     0.28D-03     0.67D-03     4     0       0.05      0.28    diag
   6     -245.63095768      -0.00008665     0.19D-03     0.33D-03     5     0       0.05      0.33    diag
   7     -245.63100033      -0.00004265     0.81D-04     0.25D-03     6     0       0.05      0.38    diag
   8     -245.63102830      -0.00002797     0.54D-04     0.24D-03     7     0       0.05      0.43    fixocc
   9     -245.63104111      -0.00001281     0.28D-04     0.22D-03     8     0       0.05      0.48    diag
  10     -245.63104316      -0.00000205     0.13D-04     0.82D-04     9     0       0.05      0.53    diag/orth
  11     -245.63104351      -0.00000035     0.51D-05     0.44D-04     9     0       0.05      0.58    diag
  12     -245.63104353      -0.00000001     0.16D-05     0.68D-05     9     0       0.05      0.63    diag
  13     -245.63104353      -0.00000000     0.46D-06     0.13D-05     9     0       0.04      0.67    diag
  14     -245.63104353      -0.00000000     0.25D-06     0.56D-06     0     0       0.05      0.72    diag

 Final occupancy:  19

 !RHF STATE 1.1 Energy               -245.631043526212
  RHF One-electron energy            -653.035587016995
  RHF Two-electron energy             246.256058294555
  RHF Kinetic energy                  245.294610599848
  RHF Nuclear energy                  161.148485196228
  RHF Virial quotient                  -1.001371546344

 !RHF STATE 1.1 Dipole moment           0.42694293     1.17391432     0.00000000
 Dipole moment /Debye                   1.08518068     2.98379258     0.00000000

 Orbital energies:

           1.1          2.1          3.1          4.1          5.1          6.1          7.1          8.1          9.1         10.1
    -20.580756   -15.707032   -11.317957   -11.258249   -11.240995    -1.485851    -1.173457    -1.036998    -0.809410    -0.788273

          11.1         12.1         13.1         14.1         15.1         16.1         17.1         18.1         19.1         20.1
     -0.704034    -0.655044    -0.647424    -0.625904    -0.586016    -0.514698    -0.406767    -0.381618    -0.341270     0.085353

          21.1
      0.175755


 HOMO     19.1    -0.341270 =      -9.2864eV
 LUMO     20.1     0.085353 =       2.3226eV
 LUMO-HOMO         0.426623 =      11.6090eV

 Orbitals saved in record  2100.2


 **********************************************************************************************************************************
 DATASETS  * FILE   NREC   LENGTH (MB)   RECORD NAMES
              1      19       61.87       500      610      700      900      950      970     1000      129      960     1100   
                                          VAR    BASINP    GEOM    SYMINP    ZMAT    AOBASIS   BASIS     P2S    ABASIS      S 
                                         1400     1410     1200     1210     1080     1600     1650     1300     1700   
                                           T        V       H0       H01     AOSYM     SMH    MOLCAS    ERIS     OPER   

              2       4        0.67       700     1000      520     2100   
                                         GEOM     BASIS   MCVARS     RHF  

 PROGRAMS   *        TOTAL    HF-SCF       INT
 CPU TIMES  *         1.62      0.72      0.79
 REAL TIME  *         7.21 SEC
 DISK USED  *       162.63 MB
 **********************************************************************************************************************************


 PROGRAM * CCSD (Closed-shell coupled cluster)     Authors: C. Hampel, H.-J. Werner, 1991, M. Deegan, P.J. Knowles, 1992


 Convergence thresholds:  THRVAR = 1.00D-08  THRDEN = 1.00D-06

 CCSD(T)     terms to be evaluated (factor= 1.000)


 Number of core orbitals:           5 (   5 )
 Number of closed-shell orbitals:  14 (  14 )
 Number of external orbitals:      76 (  76 )

 Molecular orbitals read from record     2100.2  Type=RHF/CANONICAL  

 Number of N-1 electron functions:              14
 Number of N-2 electron functions:             105
 Number of singly external CSFs:              1064
 Number of doubly external CSFs:            566580
 Total number of CSFs:                      567645

 Length of J-op  integral file:               0.00 MB
 Length of K-op  integral file:               0.68 MB
 Length of 3-ext integral record:             0.00 MB

 Memory could be reduced to 8.81 Mwords without degradation in triples

 Integral transformation finished. Total CPU:   0.44 sec, npass=  1  Memory used:   8.27 MW

 Reference energy:                   -245.63104353

 MP2 singlet pair energy:              -0.48811054
 MP2 triplet pair energy:              -0.32097199
 MP2 correlation energy:               -0.80908253
 MP2 total energy:                   -246.44012605

 SCS-MP2 correlation energy:           -0.78544855   (PS=  1.200000  PT=  0.333333)
 SCS-MP2 total energy:               -246.41649208

 ITER.      SQ.NORM     CORR.ENERGY   TOTAL ENERGY   ENERGY CHANGE        DEN1      VAR(S)    VAR(P)  DIIS     TIME  TIME/IT
   1      1.29076045    -0.82238344  -246.45342697    -0.01330092     0.02514347  0.14D-01  0.12D-01  1  1     3.20     1.16
   2      1.31855981    -0.82151596  -246.45255948     0.00086749    -0.02816299  0.50D-03  0.17D-02  2  2     4.36     1.25
   3      1.33740085    -0.82331102  -246.45435454    -0.00179506    -0.00684417  0.63D-03  0.19D-03  3  3     5.40     1.23
   4      1.34637167    -0.82298590  -246.45402943     0.00032512    -0.00246852  0.92D-04  0.45D-04  4  4     6.43     1.22
   5      1.35366987    -0.82304331  -246.45408684    -0.00005741    -0.00130586  0.14D-04  0.44D-05  5  5     7.49     1.22
   6      1.35561173    -0.82296554  -246.45400907     0.00007777    -0.00018398  0.24D-05  0.84D-06  6  6     8.47     1.20
   7      1.35620755    -0.82294926  -246.45399279     0.00001628    -0.00003933  0.82D-06  0.17D-06  6  4     9.69     1.25
   8      1.35642202    -0.82294472  -246.45398824     0.00000454     0.00000373  0.12D-06  0.50D-07  6  2    10.73     1.24
   9      1.35650065    -0.82294611  -246.45398964    -0.00000140    -0.00000334  0.23D-07  0.96D-08  6  1    11.90     1.25
  10      1.35653861    -0.82294375  -246.45398728     0.00000236    -0.00000835  0.59D-08  0.21D-08  6  3    12.98     1.26
  11      1.35652337    -0.82294618  -246.45398970    -0.00000243     0.00000596  0.79D-09  0.56D-09  6  6    14.03     1.25
  12      1.35652639    -0.82294603  -246.45398955     0.00000015    -0.00000058  0.10D-09  0.54D-10  6  5    15.00     1.24
  13      1.35652526    -0.82294625  -246.45398977    -0.00000022     0.00000049  0.18D-10  0.13D-10  6  4    16.02     1.24

 Norm of t1 vector:      0.17787098      S-energy:     0.00000001      T1 diagnostic:  0.02376901
                                                                       D1 diagnostic:  0.10107756
                                                                       D2 diagnostic:  0.21777966 (external, symmetry=1)

 Singles amplitudes (print threshold =  0.500E-01):

         I         SYM. A    A   T(IA)

        12         1         1     -0.05728068
        14         1         1      0.07532425

 Doubles amplitudes (print threshold =  0.500E-01):

         I         J         SYM. A    SYM. B    A         B      T(IJ, AB)

        12        12         1         1         1         1     -0.07260231
        13        13         1         1         2         2     -0.08230698
        14        14         1         1         1         1     -0.09401216


 Total CPU time for triples:      8.48 sec


 RESULTS
 =======

  Reference energy                   -245.631043526212
  CCSD singlet pair energy             -0.550886658024
  CCSD triplet pair energy             -0.272059601222
  CCSD correlation energy              -0.822946247570

  Triples (T) contribution             -0.039897656182
  Total correlation energy             -0.862843903751

  CCSD total energy                  -246.453989773782
  CCSD[T] energy                     -246.497944000108
  CCSD-T energy                      -246.493061367405
 !CCSD(T) total energy               -246.493887429963

 Timing summary (sec):

 STEP                 CPU(USER)    SYS     CPU(TOT)    WALL
 Transformation          0.46      0.06      0.52      0.82
 CCSD iterations        15.60      0.68     16.28     16.82
 Triples                 8.48      0.50      8.98      9.98

 Program statistics:

 Available memory in ccsd:               393215197
 Min. memory needed in ccsd:               1571457
 Max. memory used in ccsd:                 2052651
 Max. memory used in cckext:               2023364 (13 integral passes)



 **********************************************************************************************************************************
 DATASETS  * FILE   NREC   LENGTH (MB)   RECORD NAMES
              1      20       96.65       500      610      700      900      950      970     1000      129      960     1100   
                                          VAR    BASINP    GEOM    SYMINP    ZMAT    AOBASIS   BASIS     P2S    ABASIS      S 
                                         1400     1410     1200     1210     1080     1600     1650     1300     1700     1380   
                                           T        V       H0       H01     AOSYM     SMH    MOLCAS    ERIS     OPER     JKOP   

              2       4        0.67       700     1000      520     2100   
                                         GEOM     BASIS   MCVARS     RHF  

 PROGRAMS   *        TOTAL   CCSD(T)    HF-SCF       INT
 CPU TIMES  *        24.43     22.81      0.72      0.79
 REAL TIME  *        35.33 SEC
 DISK USED  *       191.67 MB
 **********************************************************************************************************************************

 Dump information in style XML to xml output                                                                      

 Orbitals will not be exported.

 **********************************************************************************************************************************

 CCSD(T)/cc-pVDZ energy=   -246.493887429963

         CCSD(T)          HF-SCF
   -246.49388743   -245.63104353
 **********************************************************************************************************************************
 Molpro calculation terminated
