
 Working directory              : /var/folders/2v/xbgp75_9785319ghcgb4zr4r0000gp/T//molpro.g6MrXPFEPs/
 Global scratch directory       : /var/folders/2v/xbgp75_9785319ghcgb4zr4r0000gp/T//molpro.g6MrXPFEPs/
 Wavefunction directory         : /Users/sacpjk/wfu/
 Main file repository           : /var/folders/2v/xbgp75_9785319ghcgb4zr4r0000gp/T//molpro.g6MrXPFEPs/

 id        : peterk

 Nodes                        nprocs
 Cardiff-University-G34YLXT77Y    1
 GA implementation: MPI file
 GA implementation (serial work in mppx): MPI file

 Using customized tuning parameters: mindgm=1; mindgv=20; mindgc=4; mindgr=1; noblas=0; minvec=7
 default implementation of scratch files=df  


 Variables initialized (1032), CPU time= 0.00 sec
 
 core,small
 angstrom
 
 geometry={
 H;N,H,1.05238269;O,N,1.20847128,H,108.08480747
 }
 basis=cc-pCV5Z
 
 
 
 hf
 
 
 
 {put,xml;noorbitals,nobasis}
 Commands initialized (841), CPU time= 0.01 sec, 704 directives.
 Default parameters read. Elapsed time= 3.73 sec

 Checking input...
 Passed
1


                                         ***  PROGRAM SYSTEM MOLPRO  ***
                                       Copyright, TTI GmbH Stuttgart, 2015
                                    Version 2023.1 linked Tue Jun  6 09:54:11 2023


 **********************************************************************************************************************************
 LABEL *                                                                                                                                                                 
  64 bit serial version                                                                  DATE: 12-Jun-23          TIME: 11:04:16  
 **********************************************************************************************************************************

 SHA1:             8ebb0dd001088a5c915591db1a321413035db0b1
 **********************************************************************************************************************************

 Memory per process:       393 MW
 Total memory per node:    524 MW
 Total GA space:           131 MW

 GA preallocation disabled
 GA check enabled

 Variable memory set to 393.2 MW

 ZUNIT=ANG

 SETTING BASIS          =    CC-PCV5Z


 Recomputing integrals since basis changed


 Using spherical harmonics

 Library entry H      S cc-pV5Z              selected for orbital group  1
 Library entry H      P cc-pV5Z              selected for orbital group  1
 Library entry H      D cc-pV5Z              selected for orbital group  1
 Library entry H      F cc-pV5Z              selected for orbital group  1
 Library entry H      G cc-pV5Z              selected for orbital group  1
 Library entry N      S cc-pCV5Z             selected for orbital group  2
 Library entry N      P cc-pCV5Z             selected for orbital group  2
 Library entry N      D cc-pCV5Z             selected for orbital group  2
 Library entry N      F cc-pCV5Z             selected for orbital group  2
 Library entry N      G cc-pCV5Z             selected for orbital group  2
 Library entry N      H cc-pCV5Z             selected for orbital group  2
 Library entry O      S cc-pCV5Z             selected for orbital group  3
 Library entry O      P cc-pCV5Z             selected for orbital group  3
 Library entry O      D cc-pCV5Z             selected for orbital group  3
 Library entry O      F cc-pCV5Z             selected for orbital group  3
 Library entry O      G cc-pCV5Z             selected for orbital group  3
 Library entry O      H cc-pCV5Z             selected for orbital group  3


 PROGRAM * SEWARD (Integral evaluation for generally contracted gaussian basis sets)     Author: Roland Lindh, 1990

 Geometry written to block  1 of record 700

 Orientation using atomic masses  
 Molecule type: Asymmetric top
 Symmetry elements: X
 Rotational constants:      39.4752865     42.4383239    565.3877201 GHz  (calculated with average atomic masses)

 Point group  Cs  



 ATOMIC COORDINATES

 NR  ATOM    CHARGE       X              Y              Z

   1  H       1.00    0.000000000    1.668937369   -1.926645665
   2  N       7.00    0.000000000   -0.161179941   -1.148405194
   3  O       8.00    0.000000000    0.035964495    1.126749145

 Bond lengths in Bohr (Angstrom)

 1-2  1.988715062  2-3  2.283679749
     ( 1.052382690)     ( 1.208471280)

 Bond angles

  1-2-3  108.08480747

 NUCLEAR CHARGE:                   16
 NUMBER OF PRIMITIVE AOS:         497
 NUMBER OF SYMMETRY AOS:          382
 NUMBER OF CONTRACTIONS:          345   (  215A'  +  130A"  )
 NUMBER OF INNER CORE ORBITALS:     0   (    0A'  +    0A"  )
 NUMBER OF OUTER CORE ORBITALS:     2   (    2A'  +    0A"  )
 NUMBER OF VALENCE ORBITALS:        9   (    7A'  +    2A"  )


 NUCLEAR REPULSION ENERGY   30.35206907


 Eigenvalues of metric

         1 0.289E-05 0.341E-05 0.538E-04 0.769E-04 0.250E-03 0.289E-03 0.345E-03 0.436E-03
         2 0.428E-03 0.504E-03 0.168E-02 0.201E-02 0.871E-02 0.137E-01 0.303E-01 0.325E-01


 Contracted 2-electron integrals neglected if value below      1.0D-12
 AO integral compression algorithm  1   Integral accuracy      1.0D-12

 GLOBAL ERROR fehler on processor   0                                         
