
 Working directory              : /var/folders/2v/xbgp75_9785319ghcgb4zr4r0000gp/T//molpro.0NYPeRZ7Te/
 Global scratch directory       : /var/folders/2v/xbgp75_9785319ghcgb4zr4r0000gp/T//molpro.0NYPeRZ7Te/
 Wavefunction directory         : /Users/sacpjk/wfu/
 Main file repository           : /var/folders/2v/xbgp75_9785319ghcgb4zr4r0000gp/T//molpro.0NYPeRZ7Te/

 id        : peterk

 Nodes                        nprocs
 Cardiff-University-G34YLXT77Y    1
 GA implementation: MPI file
 GA implementation (serial work in mppx): MPI file

 Using customized tuning parameters: mindgm=1; mindgv=20; mindgc=4; mindgr=1; noblas=0; minvec=7
 default implementation of scratch files=df  


 Variables initialized (1032), CPU time= 0.01 sec
 
 symmetry,nosym
 
 
 geometry={
            3
     N          0.42281633     -0.96904807      0.00000000
     N          0.42281633      0.15376339      0.00000000
     H         -0.84563265      0.81528469      0.00000000
 }
 basis=cc-pVDZ
 
 
 spin=1
 uhf
 
 
 
 {put,xml;noorbitals,nobasis}
 Commands initialized (841), CPU time= 0.00 sec, 704 directives.
 Default parameters read. Elapsed time= 0.29 sec

 Checking input...
 Passed
1


                                         ***  PROGRAM SYSTEM MOLPRO  ***
                                       Copyright, TTI GmbH Stuttgart, 2015
                                    Version 2023.1 linked Tue Jun  6 09:54:11 2023


 **********************************************************************************************************************************
 LABEL *                                                                                                                                                                 
  64 bit serial version                                                                  DATE: 09-Jun-23          TIME: 09:28:00  
 **********************************************************************************************************************************

 SHA1:             8ebb0dd001088a5c915591db1a321413035db0b1
 **********************************************************************************************************************************

 Memory per process:       805 MW
 Total memory per node:   1074 MW
 Total GA space:           268 MW

 GA preallocation disabled
 GA check enabled

 Variable memory set to 805.3 MW

 ZSYMEL=NOSYM


 Geometry recognized as XYZ

 SETTING BASIS          =    CC-PVDZ
 SETTING SPIN           =         1.00000000                                  


 Recomputing integrals since basis changed


 Using spherical harmonics

 Library entry N      S cc-pVDZ              selected for orbital group  1
 Library entry N      P cc-pVDZ              selected for orbital group  1
 Library entry N      D cc-pVDZ              selected for orbital group  1
 Library entry H      S cc-pVDZ              selected for orbital group  2
 Library entry H      P cc-pVDZ              selected for orbital group  2


 PROGRAM * SEWARD (Integral evaluation for generally contracted gaussian basis sets)     Author: Roland Lindh, 1990

 Geometry written to block  1 of record 700


 Point group  C1  



 ATOMIC COORDINATES

 NR  ATOM    CHARGE       X              Y              Z

   1  N       7.00    0.799007065   -1.831235454    0.000000000
   2  N       7.00    0.799007065    0.290570695    0.000000000
   3  H       1.00   -1.598014111    1.540664778    0.000000000

 Bond lengths in Bohr (Angstrom)

 1-2  2.121806149
     ( 1.122811460)

 NUCLEAR CHARGE:                   15
 NUMBER OF PRIMITIVE AOS:          61
 NUMBER OF SYMMETRY AOS:           59
 NUMBER OF CONTRACTIONS:           33   (   33A   )
 NUMBER OF INNER CORE ORBITALS:     0   (    0A   )
 NUMBER OF OUTER CORE ORBITALS:     2   (    2A   )
 NUMBER OF VALENCE ORBITALS:        9   (    9A   )


 NUCLEAR REPULSION ENERGY   27.37486678

 EXTRA SYMMETRY OF AOS IN SYMMETRY 1:   1 1 1 1 1 2 1 1 2 1   1 2 1 2 1 1 1 1 1 2   1 1 2 1 1 2 1 2 1 1   1 1 2

 Eigenvalues of metric

         1 0.494E-02 0.308E-01 0.631E-01 0.776E-01 0.947E-01 0.126E+00 0.126E+00 0.140E+00


 Contracted 2-electron integrals neglected if value below      1.0D-11
 AO integral compression algorithm  1   Integral accuracy      1.0D-11

     0.524 MB (compressed) written to integral file ( 39.2%)


 NUMBER OF SORTED TWO-ELECTRON INTEGRALS:     157641.     BUFFER LENGTH:  32768
 NUMBER OF SEGMENTS:   1  SEGMENT LENGTH:     157641      RECORD LENGTH: 524288

 Memory used in sort:       0.71 MW

 SORT1 READ      211834. AND WROTE       60892. INTEGRALS IN      1 RECORDS. CPU TIME:     0.00 SEC, REAL TIME:     0.00 SEC
 SORT2 READ       60892. AND WROTE      157641. INTEGRALS IN      2 RECORDS. CPU TIME:     0.01 SEC, REAL TIME:     0.00 SEC

 FILE SIZES:   FILE 1:    30.6 MBYTE,  FILE 4:     4.3 MBYTE,   TOTAL:     34.8 MBYTE

 OPERATOR DM      FOR CENTER  0  COORDINATES:    0.000000    0.000000    0.000000


 **********************************************************************************************************************************
 DATASETS  * FILE   NREC   LENGTH (MB)   RECORD NAMES
              1      19       29.00       500      610      700      900      950      970     1000      129      960     1100   
                                          VAR    BASINP    GEOM    SYMINP    ZMAT    AOBASIS   BASIS     P2S    ABASIS      S 
                                         1400     1410     1200     1210     1080     1600     1650     1300     1700   
                                           T        V       H0       H01     AOSYM     SMH    MOLCAS    ERIS     OPER   

 PROGRAMS   *        TOTAL       INT
 CPU TIMES  *         0.17      0.09
 REAL TIME  *         0.79 SEC
 DISK USED  *        33.57 MB
 **********************************************************************************************************************************


 Program * Unrestricted Hartree-Fock

 Orbital guess generated from atomic densities. Full valence occupancy:   11

 Initial alpha occupancy:   8
 Initial beta  occupancy:   7

 Elapsed time for starting guess:      0.01 sec

 NELEC=   15   SYM=1   MS2=1   THRE=1.0D-08   THRD=3.2D-06   THRG=3.2D-06  HFMA2=F  DIIS_START=2   DIIS_MAX=10   DIIS_INCORE=F

 Initial level shifts:    0.20 (ALPHA)    0.20 (BETA)

 ITER         ETOT            DE          GRAD         DDIFF    DIIS  NEXP   TIME(IT)  TIME(TOT)  DIAG
   1   -109.37362733  -109.37362733     0.00D+00     0.00D+00     0     0       0.00      0.01    start
   2   -109.39968343    -0.02605610     0.11D-01     0.20D+00     1     0       0.00      0.01    diag
   3   -109.40724059    -0.00755716     0.61D-02     0.17D-01     2     0       0.00      0.01    diag
   4   -109.41169403    -0.00445344     0.28D-02     0.76D-02     3     0       0.00      0.01    diag
   5   -109.41478179    -0.00308776     0.20D-02     0.39D-02     4     0       0.00      0.01    diag
   6   -109.41592302    -0.00114123     0.10D-02     0.37D-02     5     0       0.00      0.01    diag
   7   -109.41632877    -0.00040576     0.58D-03     0.20D-02     6     0       0.00      0.01    diag
   8   -109.41661113    -0.00028236     0.44D-03     0.92D-03     7     0       0.01      0.02    diag
   9   -109.41679955    -0.00018842     0.42D-03     0.76D-03     8     0       0.00      0.02    diag
  10   -109.41690028    -0.00010073     0.41D-03     0.63D-03     9     0       0.00      0.02    diag/ort
  11   -109.41699684    -0.00009656     0.37D-03     0.35D-03     9     0       0.00      0.02    diag
  12   -109.41704603    -0.00004919     0.33D-03     0.43D-03     9     0       0.00      0.02    diag
  13   -109.41707562    -0.00002959     0.18D-03     0.26D-03     9     0       0.00      0.02    diag
  14   -109.41709018    -0.00001456     0.11D-03     0.27D-03     9     0       0.00      0.02    diag
  15   -109.41709250    -0.00000232     0.51D-04     0.20D-03     9     0       0.00      0.02    diag
  16   -109.41709357    -0.00000107     0.30D-04     0.62D-04     9     0       0.01      0.03    diag
  17   -109.41709376    -0.00000019     0.26D-04     0.51D-04     9     0       0.00      0.03    diag
  18   -109.41709380    -0.00000003     0.84D-05     0.26D-04     9     0       0.00      0.03    diag
  19   -109.41709381    -0.00000001     0.29D-05     0.13D-04     9     0       0.00      0.03    diag
  20   -109.41709381    -0.00000000     0.15D-05     0.98D-05     9     0       0.00      0.03    diag/ort

 Final alpha occupancy:   8
 Final beta  occupancy:   7

 !UHF STATE 1.1 Energy               -109.417093807707
  UHF One-electron energy            -202.200880250359
  UHF Two-electron energy              65.408919666329
  UHF Kinetic energy                  109.293550094062
  UHF Nuclear energy                   27.374866776323
  UHF Virial quotient                  -1.001130384305

 !UHF STATE 1.1 Dipole moment          -0.13665271     0.10702838    -0.00000000
 Dipole moment /Debye                  -0.34733654     0.27203901    -0.00000000

 EXPECTATION VALUE OF S**2:             0.89776771

 Orbital energies for positive spin:

           1.1          2.1          3.1          4.1          5.1          6.1          7.1          8.1          9.1         10.1
    -15.684994   -15.680552    -1.461009    -0.830032    -0.684591    -0.639993    -0.601526    -0.386771     0.158630     0.171669

 Orbital energies for negative spin:

           1.1          2.1          3.1          4.1          5.1          6.1          7.1          8.1          9.1
    -15.694507   -15.658436    -1.447996    -0.789999    -0.628585    -0.599624    -0.594462     0.102498     0.170711


 HOMO      8.1    -0.386771 =     -10.5246eV
 LUMO     -8.1     0.102498 =       2.7891eV
 LUMO-HOMO         0.489269 =      13.3137eV

 Orbitals saved in record  2200.2

 Occupation number threshold for pseudo-canonical orbitals: 1.9990 (occupied), 0.0010 (virtual)

 Number of pseudo-canonical occupied orbitals per symmetry:    5
 Number of active natural orbitals per symmetry:               5

 Natural orbitals saved to record    2200.2 (Orbital set 3)

 Orbital spaces for UNO-CAS (Min. occupation: 0.020  Max. occupation: 1.980):

 Closed:        6
 Active:        3


 **********************************************************************************************************************************
 DATASETS  * FILE   NREC   LENGTH (MB)   RECORD NAMES
              1      19       29.00       500      610      700      900      950      970     1000      129      960     1100   
                                          VAR    BASINP    GEOM    SYMINP    ZMAT    AOBASIS   BASIS     P2S    ABASIS      S 
                                         1400     1410     1200     1210     1080     1600     1650     1300     1700   
                                           T        V       H0       H01     AOSYM     SMH    MOLCAS    ERIS     OPER   

              2       4        0.46       700     1000      520     2200   
                                         GEOM     BASIS   MCVARS     UHF  

              4       3        0.25      2900     3000     3100   

 PROGRAMS   *        TOTAL   UHF-SCF       INT
 CPU TIMES  *         0.20      0.03      0.09
 REAL TIME  *         0.97 SEC
 DISK USED  *        33.57 MB
 **********************************************************************************************************************************

 Dump information in style XML to xml output                                                                      

 Orbitals will not be exported.

 **********************************************************************************************************************************

 UHF/cc-pVDZ energy=   -109.417093807707

         UHF-SCF
   -109.41709381
 **********************************************************************************************************************************
 Molpro calculation terminated
