
 Working directory              : /var/folders/2v/xbgp75_9785319ghcgb4zr4r0000gp/T//molpro.fzUrBTEbjJ/
 Global scratch directory       : /var/folders/2v/xbgp75_9785319ghcgb4zr4r0000gp/T//molpro.fzUrBTEbjJ/
 Wavefunction directory         : /Users/sacpjk/wfu/
 Main file repository           : /var/folders/2v/xbgp75_9785319ghcgb4zr4r0000gp/T//molpro.fzUrBTEbjJ/

 id        : peterk

 Nodes                        nprocs
 Cardiff-University-G34YLXT77Y    1
 GA implementation: MPI file
 GA implementation (serial work in mppx): MPI file

 Using customized tuning parameters: mindgm=1; mindgv=20; mindgc=4; mindgr=1; noblas=0; minvec=7
 default implementation of scratch files=df  


 Variables initialized (1032), CPU time= 0.00 sec
 
 symmetry,nosym
 
 
 geometry={
            6
     C         -0.62421620      0.28593985      0.00000000
     H         -0.68092146      1.36354307      0.00000000
     H         -1.48969207     -0.35847391      0.00000000
     N          0.55573802     -0.26924615      0.00000000
     H          0.55369001     -1.30176739      0.00000000
     O          1.68540169      0.28000452      0.00000000
 }
 basis=cc-pVTZ
 
 
 
 hf
 
 
 
 {put,xml;noorbitals,nobasis}
 Commands initialized (841), CPU time= 0.01 sec, 704 directives.
 Default parameters read. Elapsed time= 0.55 sec

 Checking input...
 Passed
1


                                         ***  PROGRAM SYSTEM MOLPRO  ***
                                       Copyright, TTI GmbH Stuttgart, 2015
                                    Version 2023.1 linked Tue Jun  6 09:54:11 2023


 **********************************************************************************************************************************
 LABEL *                                                                                                                                                                 
  64 bit serial version                                                                  DATE: 10-Jun-23          TIME: 14:45:18  
 **********************************************************************************************************************************

 SHA1:             8ebb0dd001088a5c915591db1a321413035db0b1
 **********************************************************************************************************************************

 Memory per process:       805 MW
 Total memory per node:   1074 MW
 Total GA space:           268 MW

 GA preallocation disabled
 GA check enabled

 Variable memory set to 805.3 MW

 ZSYMEL=NOSYM


 Geometry recognized as XYZ

 SETTING BASIS          =    CC-PVTZ


 Recomputing integrals since basis changed


 Using spherical harmonics

 Library entry C      S cc-pVTZ              selected for orbital group  1
 Library entry C      P cc-pVTZ              selected for orbital group  1
 Library entry C      D cc-pVTZ              selected for orbital group  1
 Library entry C      F cc-pVTZ              selected for orbital group  1
 Library entry H      S cc-pVTZ              selected for orbital group  2
 Library entry H      P cc-pVTZ              selected for orbital group  2
 Library entry H      D cc-pVTZ              selected for orbital group  2
 Library entry N      S cc-pVTZ              selected for orbital group  3
 Library entry N      P cc-pVTZ              selected for orbital group  3
 Library entry N      D cc-pVTZ              selected for orbital group  3
 Library entry N      F cc-pVTZ              selected for orbital group  3
 Library entry O      S cc-pVTZ              selected for orbital group  5
 Library entry O      P cc-pVTZ              selected for orbital group  5
 Library entry O      D cc-pVTZ              selected for orbital group  5
 Library entry O      F cc-pVTZ              selected for orbital group  5


 PROGRAM * SEWARD (Integral evaluation for generally contracted gaussian basis sets)     Author: Roland Lindh, 1990

 Geometry written to block  1 of record 700


 Point group  C1  



 ATOMIC COORDINATES

 NR  ATOM    CHARGE       X              Y              Z

   1  C       6.00   -1.179597661    0.540348005    0.000000000
   2  H       1.00   -1.286755072    2.576722961    0.000000000
   3  H       1.00   -2.815110022   -0.677417513    0.000000000
   4  N       7.00    1.050192655   -0.508801484    0.000000000
   5  H       1.00    1.046322477   -2.459983845    0.000000000
   6  O       8.00    3.184947604    0.529131856    0.000000000

 Bond lengths in Bohr (Angstrom)

 1-2  2.039192408  1-3  2.039081543  1-4  2.464280727  4-5  1.951186200  4-6  2.373706871
     ( 1.079094151)     ( 1.079035484)     ( 1.304041202)     ( 1.032523271)     ( 1.256111582)

 Bond angles

  1-4-5  115.08403562   1-4-6  128.87296113   2-1-3  123.65831583   2-1-4  118.20990210

  3-1-4  118.13178207   5-4-6  116.04300324

 NUCLEAR CHARGE:                   24
 NUMBER OF PRIMITIVE AOS:         192
 NUMBER OF SYMMETRY AOS:          174
 NUMBER OF CONTRACTIONS:          132   (  132A   )
 NUMBER OF INNER CORE ORBITALS:     0   (    0A   )
 NUMBER OF OUTER CORE ORBITALS:     3   (    3A   )
 NUMBER OF VALENCE ORBITALS:       15   (   15A   )


 NUCLEAR REPULSION ENERGY   72.13301824

 EXTRA SYMMETRY OF AOS IN SYMMETRY 1:   1 1 1 1 1 1 2 1 1 2   1 1 2 1 1 2 1 2 1 1   2 1 2 1 1 2 1 2 1 2   1 1 1 1 1 2 1 1 2 1
                                        1 2 1 2 1 1 1 1 1 2   1 1 2 1 1 2 1 2 1 1   1 1 1 1 2 1 1 2 1 1   2 1 1 2 1 2 1 1 2 1
                                        2 1 1 2 1 2 1 2 1 1   1 1 1 2 1 1 2 1 1 2   1 2 1 1 1 1 1 1 2 1   1 2 1 1 2 1 1 2 1 2
                                        1 1 2 1 2 1 1 2 1 2   1 2

 Eigenvalues of metric

         1 0.129E-02 0.148E-02 0.172E-02 0.206E-02 0.259E-02 0.273E-02 0.467E-02 0.573E-02


 Contracted 2-electron integrals neglected if value below      1.0D-11
 AO integral compression algorithm  1   Integral accuracy      1.0D-11

     98.566 MB (compressed) written to integral file ( 27.4%)


 NUMBER OF SORTED TWO-ELECTRON INTEGRALS:   38531031.     BUFFER LENGTH:  32768
 NUMBER OF SEGMENTS:   3  SEGMENT LENGTH:   15998004      RECORD LENGTH: 524288

 Memory used in sort:      16.56 MW

 SORT1 READ    44982346. AND WROTE    19094795. INTEGRALS IN     56 RECORDS. CPU TIME:     0.25 SEC, REAL TIME:     0.90 SEC
 SORT2 READ    19094795. AND WROTE    38531031. INTEGRALS IN    376 RECORDS. CPU TIME:     0.27 SEC, REAL TIME:     0.48 SEC

 FILE SIZES:   FILE 1:   129.3 MBYTE,  FILE 4:   234.9 MBYTE,   TOTAL:    364.2 MBYTE

 OPERATOR DM      FOR CENTER  0  COORDINATES:    0.000000    0.000000    0.000000


 **********************************************************************************************************************************
 DATASETS  * FILE   NREC   LENGTH (MB)   RECORD NAMES
              1      19      108.61       500      610      700      900      950      970     1000      129      960     1100   
                                          VAR    BASINP    GEOM    SYMINP    ZMAT    AOBASIS   BASIS     P2S    ABASIS      S 
                                         1400     1410     1200     1210     1080     1600     1650     1300     1700   
                                           T        V       H0       H01     AOSYM     SMH    MOLCAS    ERIS     OPER   

 PROGRAMS   *        TOTAL       INT
 CPU TIMES  *         1.71      1.60
 REAL TIME  *         5.78 SEC
 DISK USED  *       347.80 MB
 **********************************************************************************************************************************


 Program * Restricted Hartree-Fock

 Orbital guess generated from atomic densities. Full valence occupancy:   18

 Initial occupancy:  12

 NELEC=   24   SYM=1   MS2= 0   THRE=1.0D-08   THRD=3.2D-06   THRG=3.2D-06  HFMA2=F  DIIS_START=2   DIIS_MAX=10   DIIS_INCORE=F

 Level shifts:    0.00 (CLOSED)    0.00 (OPEN)    0.30 (GAP_MIN)

 ITER           ETOT              DE          GRAD        DDIFF     DIIS  NEXP   TIME(IT)  TIME(TOT)  DIAG
   1     -168.78484887    -168.78484887     0.00D+00     0.69D-01     0     0       0.16      0.30    start
   2     -168.82944404      -0.04459517     0.88D-02     0.11D-01     1     0       0.17      0.47    diag
   3     -168.87785295      -0.04840891     0.71D-02     0.52D-02     2     0       0.16      0.63    diag
   4     -168.87876051      -0.00090756     0.78D-03     0.88D-03     3     0       0.16      0.79    diag
   5     -168.87895783      -0.00019731     0.34D-03     0.40D-03     4     0       0.17      0.96    diag
   6     -168.87899553      -0.00003770     0.14D-03     0.14D-03     5     0       0.16      1.12    diag
   7     -168.87900411      -0.00000858     0.42D-04     0.87D-04     6     0       0.17      1.29    diag
   8     -168.87900515      -0.00000105     0.13D-04     0.35D-04     7     0       0.17      1.46    fixocc
   9     -168.87900523      -0.00000008     0.43D-05     0.94D-05     8     0       0.16      1.62    diag
  10     -168.87900525      -0.00000001     0.16D-05     0.42D-05     9     0       0.16      1.78    diag/orth
  11     -168.87900525      -0.00000000     0.51D-06     0.12D-05     9     0       0.17      1.95    diag
  12     -168.87900525      -0.00000000     0.11D-06     0.16D-06     0     0       0.16      2.11    diag

 Final occupancy:  12

 !RHF STATE 1.1 Energy               -168.879005247278
  RHF One-electron energy            -373.103530564806
  RHF Two-electron energy             132.091507079465
  RHF Kinetic energy                  168.605101219529
  RHF Nuclear energy                   72.133018238062
  RHF Virial quotient                  -1.001624529897

 !RHF STATE 1.1 Dipole moment          -1.55430735    -0.73890020    -0.00000000
 Dipole moment /Debye                  -3.95065523    -1.87809699    -0.00000000

 Orbital energies:

           1.1          2.1          3.1          4.1          5.1          6.1          7.1          8.1          9.1         10.1
    -20.518209   -15.736218   -11.293585    -1.453967    -1.154820    -0.894308    -0.752510    -0.670764    -0.617930    -0.590985

          11.1         12.1         13.1         14.1
     -0.428781    -0.348176     0.110844     0.124476


 HOMO     12.1    -0.348176 =      -9.4744eV
 LUMO     13.1     0.110844 =       3.0162eV
 LUMO-HOMO         0.459020 =      12.4906eV

 Orbitals saved in record  2100.2


 **********************************************************************************************************************************
 DATASETS  * FILE   NREC   LENGTH (MB)   RECORD NAMES
              1      19      108.61       500      610      700      900      950      970     1000      129      960     1100   
                                          VAR    BASINP    GEOM    SYMINP    ZMAT    AOBASIS   BASIS     P2S    ABASIS      S 
                                         1400     1410     1200     1210     1080     1600     1650     1300     1700   
                                           T        V       H0       H01     AOSYM     SMH    MOLCAS    ERIS     OPER   

              2       4        0.75       700     1000      520     2100   
                                         GEOM     BASIS   MCVARS     RHF  

 PROGRAMS   *        TOTAL    HF-SCF       INT
 CPU TIMES  *         3.82      2.11      1.60
 REAL TIME  *         9.66 SEC
 DISK USED  *       347.80 MB
 **********************************************************************************************************************************

 Dump information in style XML to xml output                                                                      

 Orbitals will not be exported.

 **********************************************************************************************************************************

 HF/cc-pVTZ energy=   -168.879005247278

          HF-SCF
   -168.87900525
 **********************************************************************************************************************************
 Molpro calculation terminated
