
 Working directory              : /var/folders/2v/xbgp75_9785319ghcgb4zr4r0000gp/T//molpro.Lrpv5alNDh/
 Global scratch directory       : /var/folders/2v/xbgp75_9785319ghcgb4zr4r0000gp/T//molpro.Lrpv5alNDh/
 Wavefunction directory         : /Users/sacpjk/wfu/
 Main file repository           : /var/folders/2v/xbgp75_9785319ghcgb4zr4r0000gp/T//molpro.Lrpv5alNDh/

 id        : peterk

 Nodes                        nprocs
 Cardiff-University-G34YLXT77Y    1
 GA implementation: MPI file
 GA implementation (serial work in mppx): MPI file

 Using customized tuning parameters: mindgm=1; mindgv=20; mindgc=4; mindgr=1; noblas=0; minvec=7
 default implementation of scratch files=df  


 Variables initialized (1032), CPU time= 0.00 sec
 
 symmetry,nosym
 
 
 geometry={
            5
     P          0.82622984      0.00033303     -0.42274658
     H          0.85541132      1.03491355      0.54066823
     H          0.87146232     -1.02481363      0.55012462
     H         -0.65761545     -0.01070698     -0.46212372
     H         -1.89548803      0.00027403     -0.20592255
 }
 basis=cc-pVDZ
 
 
 spin=1
 uhf
 
 
 
 {put,xml;noorbitals,nobasis}
 Commands initialized (841), CPU time= 0.01 sec, 704 directives.
 Default parameters read. Elapsed time= 0.35 sec

 Checking input...
 Passed
1


                                         ***  PROGRAM SYSTEM MOLPRO  ***
                                       Copyright, TTI GmbH Stuttgart, 2015
                                    Version 2023.1 linked Tue Jun  6 09:54:11 2023


 **********************************************************************************************************************************
 LABEL *                                                                                                                                                                 
  64 bit serial version                                                                  DATE: 09-Jun-23          TIME: 09:27:06  
 **********************************************************************************************************************************

 SHA1:             8ebb0dd001088a5c915591db1a321413035db0b1
 **********************************************************************************************************************************

 Memory per process:       805 MW
 Total memory per node:   1074 MW
 Total GA space:           268 MW

 GA preallocation disabled
 GA check enabled

 Variable memory set to 805.3 MW

 ZSYMEL=NOSYM


 Geometry recognized as XYZ

 SETTING BASIS          =    CC-PVDZ
 SETTING SPIN           =         1.00000000                                  


 Recomputing integrals since basis changed


 Using spherical harmonics

 Library entry P      S cc-pVDZ              selected for orbital group  1
 Library entry P      P cc-pVDZ              selected for orbital group  1
 Library entry P      D cc-pVDZ              selected for orbital group  1
 Library entry H      S cc-pVDZ              selected for orbital group  2
 Library entry H      P cc-pVDZ              selected for orbital group  2


 PROGRAM * SEWARD (Integral evaluation for generally contracted gaussian basis sets)     Author: Roland Lindh, 1990

 Geometry written to block  1 of record 700


 Point group  C1  



 ATOMIC COORDINATES

 NR  ATOM    CHARGE       X              Y              Z

   1  P      15.00    1.561348114    0.000629335   -0.798875256
   2  H       1.00    1.616493119    1.955703172    1.021714879
   3  H       1.00    1.646825113   -1.936617089    1.039584866
   4  H       1.00   -1.242713096   -0.020233260   -0.873287266
   5  H       1.00   -3.581953249    0.000517842   -0.389137222

 Bond lengths in Bohr (Angstrom)

 1-2  2.672059715  1-3  2.672108840  1-4  2.805125962
     ( 1.413993107)     ( 1.414019103)     ( 1.484408733)

 Bond angles

  2-1-3   93.49819219   2-1-4   92.53017804   3-1-4   92.56975559

 NUCLEAR CHARGE:                   19
 NUMBER OF PRIMITIVE AOS:          70
 NUMBER OF SYMMETRY AOS:           69
 NUMBER OF CONTRACTIONS:           38   (   38A   )
 NUMBER OF INNER CORE ORBITALS:     1   (    1A   )
 NUMBER OF OUTER CORE ORBITALS:     4   (    4A   )
 NUMBER OF VALENCE ORBITALS:        8   (    8A   )


 NUCLEAR REPULSION ENERGY   21.01063527

 Eigenvalues of metric

         1 0.697E-02 0.283E-01 0.418E-01 0.610E-01 0.691E-01 0.862E-01 0.889E-01 0.103E+00


 Contracted 2-electron integrals neglected if value below      1.0D-11
 AO integral compression algorithm  1   Integral accuracy      1.0D-11

     1.573 MB (compressed) written to integral file ( 57.9%)


 NUMBER OF SORTED TWO-ELECTRON INTEGRALS:     274911.     BUFFER LENGTH:  32768
 NUMBER OF SEGMENTS:   1  SEGMENT LENGTH:     274911      RECORD LENGTH: 524288

 Memory used in sort:       0.83 MW

 SORT1 READ      344579. AND WROTE      260094. INTEGRALS IN      1 RECORDS. CPU TIME:     0.00 SEC, REAL TIME:     0.00 SEC
 SORT2 READ      260094. AND WROTE      274911. INTEGRALS IN      6 RECORDS. CPU TIME:     0.01 SEC, REAL TIME:     0.01 SEC

 FILE SIZES:   FILE 1:    31.7 MBYTE,  FILE 4:     4.3 MBYTE,   TOTAL:     35.9 MBYTE

 OPERATOR DM      FOR CENTER  0  COORDINATES:    0.000000    0.000000    0.000000


 **********************************************************************************************************************************
 DATASETS  * FILE   NREC   LENGTH (MB)   RECORD NAMES
              1      19       29.83       500      610      700      900      950      970     1000      129      960     1100   
                                          VAR    BASINP    GEOM    SYMINP    ZMAT    AOBASIS   BASIS     P2S    ABASIS      S 
                                         1400     1410     1200     1210     1080     1600     1650     1300     1700   
                                           T        V       H0       H01     AOSYM     SMH    MOLCAS    ERIS     OPER   

 PROGRAMS   *        TOTAL       INT
 CPU TIMES  *         0.20      0.11
 REAL TIME  *         1.03 SEC
 DISK USED  *        34.66 MB
 **********************************************************************************************************************************


 Program * Unrestricted Hartree-Fock

 Orbital guess generated from atomic densities. Full valence occupancy:   13

 Initial alpha occupancy:  10
 Initial beta  occupancy:   9

 Elapsed time for starting guess:      0.00 sec

 NELEC=   19   SYM=1   MS2=1   THRE=1.0D-08   THRD=3.2D-06   THRG=3.2D-06  HFMA2=F  DIIS_START=2   DIIS_MAX=10   DIIS_INCORE=F

 Initial level shifts:    0.20 (ALPHA)    0.20 (BETA)

 ITER         ETOT            DE          GRAD         DDIFF    DIIS  NEXP   TIME(IT)  TIME(TOT)  DIAG
   1   -342.91824478  -342.91824478     0.00D+00     0.00D+00     0     0       0.00      0.00    start
   2   -342.94195940    -0.02371463     0.60D-02     0.21D+00     1     0       0.00      0.00    diag
   3   -342.95039373    -0.00843433     0.30D-02     0.12D-01     2     0       0.00      0.00    diag
   4   -342.95316980    -0.00277606     0.15D-02     0.65D-02     3     0       0.01      0.01    diag
   5   -342.95379549    -0.00062569     0.72D-03     0.43D-02     4     0       0.00      0.01    diag
   6   -342.95396475    -0.00016926     0.37D-03     0.20D-02     5     0       0.00      0.01    diag
   7   -342.95401668    -0.00005193     0.20D-03     0.96D-03     6     0       0.00      0.01    diag
   8   -342.95403715    -0.00002047     0.11D-03     0.44D-03     7     0       0.00      0.01    diag
   9   -342.95404290    -0.00000575     0.54D-04     0.27D-03     8     0       0.01      0.02    diag
  10   -342.95404410    -0.00000120     0.25D-04     0.14D-03     8     0       0.00      0.02    diag/ort
  11   -342.95404436    -0.00000027     0.12D-04     0.59D-04     8     0       0.00      0.02    diag
  12   -342.95404442    -0.00000006     0.57D-05     0.29D-04     8     0       0.00      0.02    diag
  13   -342.95404443    -0.00000001     0.26D-05     0.11D-04     9     0       0.01      0.03    diag
  14   -342.95404443    -0.00000000     0.11D-05     0.40D-05     8     0       0.00      0.03    diag
  15   -342.95404443    -0.00000000     0.45D-06     0.15D-05     8     0       0.00      0.03    diag

 Final alpha occupancy:  10
 Final beta  occupancy:   9

 !UHF STATE 1.1 Energy               -342.954044433079
  UHF One-electron energy            -515.617071881146
  UHF Two-electron energy             151.652392182002
  UHF Kinetic energy                  342.916453591173
  UHF Nuclear energy                   21.010635266066
  UHF Virial quotient                  -1.000109620992

 !UHF STATE 1.1 Dipole moment          -0.02497888     0.00004035     0.23691152
 Dipole moment /Debye                  -0.06348999     0.00010256     0.60216902

 EXPECTATION VALUE OF S**2:             0.77771932

 Orbital energies for positive spin:

           1.1          2.1          3.1          4.1          5.1          6.1          7.1          8.1          9.1         10.1
    -79.954731    -7.497463    -5.395230    -5.390309    -5.388791    -0.870377    -0.596339    -0.524148    -0.431654    -0.369112

          11.1         12.1
      0.166171     0.169904

 Orbital energies for negative spin:

           1.1          2.1          3.1          4.1          5.1          6.1          7.1          8.1          9.1         10.1
    -79.952181    -7.494428    -5.388715    -5.388069    -5.382798    -0.846815    -0.527588    -0.522369    -0.391179     0.057384

          11.1
      0.170724


 HOMO     10.1    -0.369112 =     -10.0440eV
 LUMO    -10.1     0.057384 =       1.5615eV
 LUMO-HOMO         0.426496 =      11.6055eV

 Orbitals saved in record  2200.2

 Occupation number threshold for pseudo-canonical orbitals: 1.9990 (occupied), 0.0010 (virtual)

 Number of pseudo-canonical occupied orbitals per symmetry:    8
 Number of active natural orbitals per symmetry:               3

 Natural orbitals saved to record    2200.2 (Orbital set 3)

 Orbital spaces for UNO-CAS (Min. occupation: 0.020  Max. occupation: 1.980):

 Closed:        9
 Active:        1


 **********************************************************************************************************************************
 DATASETS  * FILE   NREC   LENGTH (MB)   RECORD NAMES
              1      19       29.83       500      610      700      900      950      970     1000      129      960     1100   
                                          VAR    BASINP    GEOM    SYMINP    ZMAT    AOBASIS   BASIS     P2S    ABASIS      S 
                                         1400     1410     1200     1210     1080     1600     1650     1300     1700   
                                           T        V       H0       H01     AOSYM     SMH    MOLCAS    ERIS     OPER   

              2       4        0.51       700     1000      520     2200   
                                         GEOM     BASIS   MCVARS     UHF  

              4       3        0.31      2900     3000     3100   

 PROGRAMS   *        TOTAL   UHF-SCF       INT
 CPU TIMES  *         0.23      0.04      0.11
 REAL TIME  *         1.30 SEC
 DISK USED  *        34.66 MB
 **********************************************************************************************************************************

 Dump information in style XML to xml output                                                                      

 Orbitals will not be exported.

 **********************************************************************************************************************************

 UHF/cc-pVDZ energy=   -342.954044433079

         UHF-SCF
   -342.95404443
 **********************************************************************************************************************************
 Molpro calculation terminated
