
 Working directory              : /var/folders/2v/xbgp75_9785319ghcgb4zr4r0000gp/T//molpro.MTEJb6BNs7/
 Global scratch directory       : /var/folders/2v/xbgp75_9785319ghcgb4zr4r0000gp/T//molpro.MTEJb6BNs7/
 Wavefunction directory         : /Users/sacpjk/wfu/
 Main file repository           : /var/folders/2v/xbgp75_9785319ghcgb4zr4r0000gp/T//molpro.MTEJb6BNs7/

 id        : peterk

 Nodes                        nprocs
 Cardiff-University-G34YLXT77Y    1
 GA implementation: MPI file
 GA implementation (serial work in mppx): MPI file

 Using customized tuning parameters: mindgm=1; mindgv=20; mindgc=4; mindgr=1; noblas=0; minvec=7
 default implementation of scratch files=df  


 Variables initialized (1032), CPU time= 0.00 sec
 
 symmetry,nosym
 
 
 geometry={
 7
  c         -1.219464515572    0.073760515072    0.057955212954
  h         -0.153593967574    0.043388991216    0.033362449116
  c         -2.431341092167    0.107502198428    0.085327262797
  h         -3.491874598154    0.137853634187    0.109928546917
  o          2.051307305400   -0.041241326464   -0.032742747897
  h          2.621663720801   -0.631010707653    0.464284178043
  h          2.623303147372    0.309746695214   -0.718114902141
 }
 basis=aug-cc-pVDZ
 
 
 
 hf; hf; papt; mp3
 
 
 
 {put,xml;noorbitals,nobasis}
 Commands initialized (841), CPU time= 0.01 sec, 704 directives.
 Default parameters read. Elapsed time= 0.06 sec

 Checking input...
 Passed
1


                                         ***  PROGRAM SYSTEM MOLPRO  ***
                                       Copyright, TTI GmbH Stuttgart, 2015
                                    Version 2023.1 linked Tue Jun  6 09:54:11 2023


 **********************************************************************************************************************************
 LABEL *                                                                                                                                                                 
  64 bit serial version                                                                  DATE: 08-Jun-23          TIME: 21:54:50  
 **********************************************************************************************************************************

 SHA1:             8ebb0dd001088a5c915591db1a321413035db0b1
 **********************************************************************************************************************************

 Memory per process:       805 MW
 Total memory per node:   1074 MW
 Total GA space:           268 MW

 GA preallocation disabled
 GA check enabled

 Variable memory set to 805.3 MW

 ZSYMEL=NOSYM


 Geometry recognized as XYZ

 SETTING BASIS          =    AUG-CC-PVDZ


 Recomputing integrals since basis changed


 Using spherical harmonics

 Library entry C      S aug-cc-pVDZ          selected for orbital group  1
 Library entry C      P aug-cc-pVDZ          selected for orbital group  1
 Library entry C      D aug-cc-pVDZ          selected for orbital group  1
 Library entry H      S aug-cc-pVDZ          selected for orbital group  2
 Library entry H      P aug-cc-pVDZ          selected for orbital group  2
 Library entry O      S aug-cc-pVDZ          selected for orbital group  5
 Library entry O      P aug-cc-pVDZ          selected for orbital group  5
 Library entry O      D aug-cc-pVDZ          selected for orbital group  5


 PROGRAM * SEWARD (Integral evaluation for generally contracted gaussian basis sets)     Author: Roland Lindh, 1990

 Geometry written to block  1 of record 700


 Point group  C1  



 ATOMIC COORDINATES

 NR  ATOM    CHARGE       X              Y              Z

   1  C       6.00   -2.304453953    0.139387172    0.109519480
   2  H       1.00   -0.290250533    0.081993310    0.063045892
   3  C       6.00   -4.594568780    0.203149713    0.161245158
   4  H       1.00   -6.598686652    0.260505614    0.207734847
   5  O       8.00    3.876409005   -0.077934812   -0.061874826
   6  H       1.00    4.954226423   -1.192437419    0.877369940
   7  H       1.00    4.957324490    0.585336422   -1.357040491

 Bond lengths in Bohr (Angstrom)

 1-2  2.015556813  1-3  2.291586159  3-4  2.005477359  5-6  1.812729208  5-7  1.812666852
     ( 1.066586733)     ( 1.212655172)     ( 1.061252915)     ( 0.959254986)     ( 0.959221989)

 Bond angles

  1-3-4  179.94347663   2-1-3  179.95345016   6-5-7  103.92346879

 NUCLEAR CHARGE:                   24
 NUMBER OF PRIMITIVE AOS:         155
 NUMBER OF SYMMETRY AOS:          149
 NUMBER OF CONTRACTIONS:          105   (  105A   )
 NUMBER OF INNER CORE ORBITALS:     0   (    0A   )
 NUMBER OF OUTER CORE ORBITALS:     3   (    3A   )
 NUMBER OF VALENCE ORBITALS:       16   (   16A   )


 NUCLEAR REPULSION ENERGY   53.29797980


 Eigenvalues of metric

         1 0.203E-04 0.399E-04 0.349E-03 0.821E-03 0.844E-03 0.938E-03 0.218E-02 0.265E-02


 Contracted 2-electron integrals neglected if value below      1.0D-12
 AO integral compression algorithm  1   Integral accuracy      1.0D-12

     77.595 MB (compressed) written to integral file ( 51.6%)


 NUMBER OF SORTED TWO-ELECTRON INTEGRALS:   15487395.     BUFFER LENGTH:  32768
 NUMBER OF SEGMENTS:   1  SEGMENT LENGTH:   15487395      RECORD LENGTH: 524288

 Memory used in sort:      16.04 MW

 SORT1 READ    18737168. AND WROTE    14645852. INTEGRALS IN     42 RECORDS. CPU TIME:     0.10 SEC, REAL TIME:     0.14 SEC
 SORT2 READ    14645852. AND WROTE    15487395. INTEGRALS IN    296 RECORDS. CPU TIME:     0.15 SEC, REAL TIME:     0.20 SEC

 FILE SIZES:   FILE 1:   108.1 MBYTE,  FILE 4:   176.2 MBYTE,   TOTAL:    284.3 MBYTE

 OPERATOR DM      FOR CENTER  0  COORDINATES:    0.000000    0.000000    0.000000


 **********************************************************************************************************************************
 DATASETS  * FILE   NREC   LENGTH (MB)   RECORD NAMES
              1      19       90.83       500      610      700      900      950      970     1000      129      960     1100   
                                          VAR    BASINP    GEOM    SYMINP    ZMAT    AOBASIS   BASIS     P2S    ABASIS      S 
                                         1400     1410     1200     1210     1080     1600     1650     1300     1700   
                                           T        V       H0       H01     AOSYM     SMH    MOLCAS    ERIS     OPER   

 PROGRAMS   *        TOTAL       INT
 CPU TIMES  *         0.79      0.70
 REAL TIME  *         1.13 SEC
 DISK USED  *       271.60 MB
 **********************************************************************************************************************************


 Program * Restricted Hartree-Fock

 Orbital guess generated from atomic densities. Full valence occupancy:   19

 Initial occupancy:  12

 NELEC=   24   SYM=1   MS2= 0   THRE=1.0D-08   THRD=3.2D-06   THRG=3.2D-06  HFMA2=F  DIIS_START=2   DIIS_MAX=10   DIIS_INCORE=F

 Level shifts:    0.00 (CLOSED)    0.00 (OPEN)    0.30 (GAP_MIN)

 ITER           ETOT              DE          GRAD        DDIFF     DIIS  NEXP   TIME(IT)  TIME(TOT)  DIAG
   1     -152.82540451    -152.82540451     0.00D+00     0.11D+00     0     0       0.08      0.15    start
   2     -152.86269277      -0.03728826     0.66D-02     0.17D-01     1     0       0.07      0.22    diag
   3     -152.87266329      -0.00997052     0.35D-02     0.39D-02     2     0       0.08      0.30    diag
   4     -152.87310825      -0.00044495     0.56D-03     0.12D-02     3     0       0.07      0.37    diag
   5     -152.87314673      -0.00003848     0.14D-03     0.52D-03     4     0       0.08      0.45    diag
   6     -152.87315029      -0.00000356     0.50D-04     0.11D-03     5     0       0.07      0.52    diag
   7     -152.87315079      -0.00000050     0.17D-04     0.40D-04     6     0       0.08      0.60    diag
   8     -152.87315082      -0.00000003     0.37D-05     0.76D-05     7     0       0.07      0.67    fixocc
   9     -152.87315082      -0.00000000     0.97D-06     0.30D-05     8     0       0.08      0.75    diag
  10     -152.87315082      -0.00000000     0.25D-06     0.45D-06     0     0       0.07      0.82    diag/orth

 Final occupancy:  12

 !RHF STATE 1.1 Energy               -152.873150821805
  RHF One-electron energy            -313.316268836405
  RHF Two-electron energy             107.145138215371
  RHF Kinetic energy                  152.589298307738
  RHF Nuclear energy                   53.297979799230
  RHF Virial quotient                  -1.001860238675

 !RHF STATE 1.1 Dipole moment           0.98964185    -0.16658933    -0.13145473
 Dipole moment /Debye                   2.51541868    -0.42342785    -0.33412459

 Orbital energies:

           1.1          2.1          3.1          4.1          5.1          6.1          7.1          8.1          9.1         10.1
    -20.594369   -11.236386   -11.232853    -1.373944    -1.013357    -0.750927    -0.734217    -0.665305    -0.601712    -0.527325

          11.1         12.1         13.1         14.1
     -0.391368    -0.391231     0.028328     0.042985


 HOMO     12.1    -0.391231 =     -10.6459eV
 LUMO     13.1     0.028328 =       0.7708eV
 LUMO-HOMO         0.419559 =      11.4168eV

 Orbitals saved in record  2100.2


 **********************************************************************************************************************************
 DATASETS  * FILE   NREC   LENGTH (MB)   RECORD NAMES
              1      19       90.83       500      610      700      900      950      970     1000      129      960     1100   
                                          VAR    BASINP    GEOM    SYMINP    ZMAT    AOBASIS   BASIS     P2S    ABASIS      S 
                                         1400     1410     1200     1210     1080     1600     1650     1300     1700   
                                           T        V       H0       H01     AOSYM     SMH    MOLCAS    ERIS     OPER   

              2       4        0.66       700     1000      520     2100   
                                         GEOM     BASIS   MCVARS     RHF  

 PROGRAMS   *        TOTAL    HF-SCF       INT
 CPU TIMES  *         1.61      0.82      0.70
 REAL TIME  *         2.18 SEC
 DISK USED  *       271.60 MB
 **********************************************************************************************************************************


 Program * Restricted Hartree-Fock

 Molecular orbitals read from record     2100.2  Type=RHF/CANONICAL  

 Initial occupancy:  12

 NELEC=   24   SYM=1   MS2= 0   THRE=1.0D-08   THRD=3.2D-06   THRG=3.2D-06  HFMA2=F  DIIS_START=2   DIIS_MAX=10   DIIS_INCORE=F

 Level shifts:    0.00 (CLOSED)    0.00 (OPEN)    0.30 (GAP_MIN)

 ITER           ETOT              DE          GRAD        DDIFF     DIIS  NEXP   TIME(IT)  TIME(TOT)  DIAG
   1     -152.87315082    -152.87315082     0.00D+00     0.11D+00     0     0       0.08      0.08    start
   2     -152.87315082      -0.00000000     0.15D-06     0.22D-06     1     0       0.07      0.15    diag

 Final occupancy:  12

 !RHF STATE 1.1 Energy               -152.873150821918
  RHF One-electron energy            -313.316274219523
  RHF Two-electron energy             107.145143598375
  RHF Kinetic energy                  152.589302273667
  RHF Nuclear energy                   53.297979799230
  RHF Virial quotient                  -1.001860212636

 !RHF STATE 1.1 Dipole moment           0.98964144    -0.16658883    -0.13145433
 Dipole moment /Debye                   2.51541764    -0.42342658    -0.33412358

 Orbital energies:

           1.1          2.1          3.1          4.1          5.1          6.1          7.1          8.1          9.1         10.1
    -20.594370   -11.236386   -11.232853    -1.373944    -1.013357    -0.750927    -0.734217    -0.665305    -0.601712    -0.527326

          11.1         12.1         13.1         14.1
     -0.391368    -0.391231     0.028328     0.042985


 HOMO     12.1    -0.391231 =     -10.6459eV
 LUMO     13.1     0.028328 =       0.7708eV
 LUMO-HOMO         0.419559 =      11.4168eV

 Orbitals saved in record  2101.2


 **********************************************************************************************************************************
 DATASETS  * FILE   NREC   LENGTH (MB)   RECORD NAMES
              1      19       90.83       500      610      700      900      950      970     1000      129      960     1100   
                                          VAR    BASINP    GEOM    SYMINP    ZMAT    AOBASIS   BASIS     P2S    ABASIS      S 
                                         1400     1410     1200     1210     1080     1600     1650     1300     1700   
                                           T        V       H0       H01     AOSYM     SMH    MOLCAS    ERIS     OPER   

              2       5        1.05       700     1000      520     2100     2101   
                                         GEOM     BASIS   MCVARS     RHF      RHF  

 PROGRAMS   *        TOTAL    HF-SCF    HF-SCF       INT
 CPU TIMES  *         1.77      0.16      0.82      0.70
 REAL TIME  *         2.42 SEC
 DISK USED  *       271.60 MB
 **********************************************************************************************************************************


 PROGRAM * PAPT (Closed-shell)     Authors: C. Hampel, H.-J. Werner, 1991, P.J. Knowles, 2021


 Convergence thresholds:  THRVAR = 1.00D-08  THRDEN = 1.00D-06

 Number of core orbitals:           3 (   3 )
 Number of closed-shell orbitals:   9 (   9 )
 Number of external orbitals:      93 (  93 )

 Molecular orbitals read from record     2101.2  Type=RHF/CANONICAL  

 Number of N-1 electron functions:               9
 Number of N-2 electron functions:              45
 Number of singly external CSFs:               837
 Number of doubly external CSFs:            350703
 Total number of CSFs:                      351541

 Length of J-op  integral file:               0.00 MB
 Length of K-op  integral file:               0.82 MB

 Integral transformation finished. Total CPU:   0.12 sec, npass=  1  Memory used:   1.07 MW

 Reference energy:                   -152.87315082

                        CORR.ENERGY   TOTAL ENERGY   ENERGY CHANGE
 MP2:                   -0.48544523  -153.35859605    -0.48544523

 SCS-MP2 correlation energy:           -0.47811142   (PS=  1.200000  PT=  0.333333)
 SCS-MP2 total energy:               -153.35126224
 Iteration:   1     0.3767D+00
 Iteration:   2     0.6771D+00
 Iteration:   3     0.3774D+00
 Iteration:   4     0.3472D+00
 Iteration:   5     0.9081D+00
 Iteration:   6     0.6071D+00
 Iteration:   7     0.1496D+01
 Iteration:   8     0.5318D+00
 Iteration:   9     0.4570D+00
 Iteration:  10     0.2686D+00
 Iteration:  11     0.9463D-01
 Iteration:  12     0.2740D+00
 Iteration:  13     0.2747D-01
 Iteration:  14     0.2791D-01
 Iteration:  15     0.1368D-01
 Iteration:  16     0.8342D-02
 Iteration:  17     0.9288D-02
 Iteration:  18     0.1796D-02
 Iteration:  19     0.1563D-01
 Iteration:  20     0.6742D-03
 Iteration:  21     0.2360D-03
 Iteration:  22     0.3925D-03
 Iteration:  23     0.1280D-03
 Iteration:  24     0.9270D-04
 PAPT operator written to  7000.1
 PAPT orbitals and eigenvalues written to  7000.2

 MP3(D):                -0.50205316  -153.37520398    -0.01660793



 RESULTS
 =======

  Reference energy                   -152.873150821918
  MP3 singlet pair energy              -0.336423565847
  MP3 triplet pair energy              -0.165629591397
  MP3 correlation energy               -0.502053157244

 !MP3 total energy                   -153.375203979162

 Timing summary (sec):

 STEP                 CPU(USER)    SYS     CPU(TOT)    WALL
 Transformation          0.13      0.01      0.14      0.20
 CCSD iterations         3.07      0.10      3.17      1.43

 Program statistics:

 Available memory in ccsd:               805306032
 Min. memory needed in ccsd:               1044961
 Max. memory used in ccsd:                 1335778
 Max. memory used in cckext:               1097105 ( 1 integral passes)



 **********************************************************************************************************************************
 DATASETS  * FILE   NREC   LENGTH (MB)   RECORD NAMES
              1      21       96.74       500      610      700      900      950      970     1000      129      960     1100   
                                          VAR    BASINP    GEOM    SYMINP    ZMAT    AOBASIS   BASIS     P2S    ABASIS      S 
                                         1400     1410     1200     1210     1080     1600     1650     1300     1700     1380   
                                           T        V       H0       H01     AOSYM     SMH    MOLCAS    ERIS     OPER     JKOP   
                                         7000   
                                        PAPT AO    

              2       6        1.40       700     1000      520     2100     2101     7000   
                                         GEOM     BASIS   MCVARS     RHF      RHF     PAPT   

 PROGRAMS   *        TOTAL      PAPT    HF-SCF    HF-SCF       INT
 CPU TIMES  *         3.13      1.35      0.16      0.82      0.70
 REAL TIME  *         4.10 SEC
 DISK USED  *       271.60 MB
 **********************************************************************************************************************************


 PROGRAM * MP3 (Closed-shell)     Authors: C. Hampel, H.-J. Werner, 1991, M. Deegan, P.J. Knowles, 1992


 Convergence thresholds:  THRVAR = 1.00D-08  THRDEN = 1.00D-06

 Number of core orbitals:           3 (   3 )
 Number of closed-shell orbitals:   9 (   9 )
 Number of external orbitals:      93 (  93 )

 Molecular orbitals read from record     7000.2  Type=PAPT/CANONICAL (state 1.1)

 Number of N-1 electron functions:               9
 Number of N-2 electron functions:              45
 Number of singly external CSFs:               837
 Number of doubly external CSFs:            350703
 Total number of CSFs:                      351541

 Length of J-op  integral file:               0.00 MB
 Length of K-op  integral file:               0.82 MB

 Integral transformation finished. Total CPU:   0.13 sec, npass=  1  Memory used:   1.07 MW
 Orbital energies read from record       7000.2  Type=PAPT/CANONICAL (state 1.1)

 Reference energy:                   -152.87315082

                        CORR.ENERGY   TOTAL ENERGY   ENERGY CHANGE
 MP2:                   -0.50698361  -153.38013444    -0.50698361

 SCS-MP2 correlation energy:           -0.50177379   (PS=  1.200000  PT=  0.333333)
 SCS-MP2 total energy:               -153.37492462

 MP3(D):                -0.50711758  -153.38026840    -0.00013396



 RESULTS
 =======

  Reference energy                   -152.873150821918
  MP3 singlet pair energy              -0.341090431483
  MP3 triplet pair energy              -0.166027144846
  MP3 correlation energy               -0.507117576329

 !MP3 total energy                   -153.380268398247

 Timing summary (sec):

 STEP                 CPU(USER)    SYS     CPU(TOT)    WALL
 Transformation          0.21      0.03      0.24      0.30
 CCSD iterations         3.54      0.01      3.55      0.35

 Program statistics:

 Available memory in ccsd:               805306032
 Min. memory needed in ccsd:               1044961
 Max. memory used in ccsd:                 1335778
 Max. memory used in cckext:               1097105 ( 1 integral passes)



 **********************************************************************************************************************************
 DATASETS  * FILE   NREC   LENGTH (MB)   RECORD NAMES
              1      21       96.74       500      610      700      900      950      970     1000      129      960     1100   
                                          VAR    BASINP    GEOM    SYMINP    ZMAT    AOBASIS   BASIS     P2S    ABASIS      S 
                                         1400     1410     1200     1210     1080     1600     1650     1300     1700     1380   
                                           T        V       H0       H01     AOSYM     SMH    MOLCAS    ERIS     OPER     JKOP   
                                         7000   
                                        PAPT AO    

              2       6        1.40       700     1000      520     2100     2101     7000   
                                         GEOM     BASIS   MCVARS     RHF      RHF     PAPT   

 PROGRAMS   *        TOTAL       MP3      PAPT    HF-SCF    HF-SCF       INT
 CPU TIMES  *         3.68      0.55      1.35      0.16      0.82      0.70
 REAL TIME  *         4.79 SEC
 DISK USED  *       271.60 MB
 **********************************************************************************************************************************

 Dump information in style XML to xml output                                                                      

 Orbitals will not be exported.

 **********************************************************************************************************************************

 MP3/aug-cc-pVDZ energy=   -153.380268398247

             MP3            PAPT          HF-SCF          HF-SCF
   -153.38026840   -153.37520398   -152.87315082   -152.87315082
 **********************************************************************************************************************************
 Molpro calculation terminated
