
 Working directory              : /var/folders/2v/xbgp75_9785319ghcgb4zr4r0000gp/T//molpro.OrQsGLxOBB/
 Global scratch directory       : /var/folders/2v/xbgp75_9785319ghcgb4zr4r0000gp/T//molpro.OrQsGLxOBB/
 Wavefunction directory         : /Users/sacpjk/wfu/
 Main file repository           : /var/folders/2v/xbgp75_9785319ghcgb4zr4r0000gp/T//molpro.OrQsGLxOBB/

 id        : peterk

 Nodes                        nprocs
 Cardiff-University-G34YLXT77Y    1
 GA implementation: MPI file
 GA implementation (serial work in mppx): MPI file

 Using customized tuning parameters: mindgm=1; mindgv=20; mindgc=4; mindgr=1; noblas=0; minvec=7
 default implementation of scratch files=df  


 Variables initialized (1032), CPU time= 0.00 sec
 
 symmetry,nosym
 
 
 geometry={
 3
  o         -0.200962237605   -0.342133675342    0.000000000000
  h         -0.559640271684    0.546128854087    0.000000000000
  h          0.760602509342   -0.203995178745    0.000000000000
 }
 basis=aug-cc-pVTZ
 
 
 
 hf; ccsd(t); counterpoise
 
 
 
 {put,xml;noorbitals,nobasis}
 Commands initialized (841), CPU time= 0.01 sec, 704 directives.
 Default parameters read. Elapsed time= 0.76 sec

 Checking input...
 Passed
1


                                         ***  PROGRAM SYSTEM MOLPRO  ***
                                       Copyright, TTI GmbH Stuttgart, 2015
                                    Version 2023.1 linked Tue Jun  6 09:54:11 2023


 **********************************************************************************************************************************
 LABEL *                                                                                                                                                                 
  64 bit serial version                                                                  DATE: 08-Jun-23          TIME: 19:56:50  
 **********************************************************************************************************************************

 SHA1:             8ebb0dd001088a5c915591db1a321413035db0b1
 **********************************************************************************************************************************

 Memory per process:       805 MW
 Total memory per node:   1074 MW
 Total GA space:           268 MW

 GA preallocation disabled
 GA check enabled

 Variable memory set to 805.3 MW

 ZSYMEL=NOSYM


 Geometry recognized as XYZ

 SETTING BASIS          =    AUG-CC-PVTZ


 Recomputing integrals since basis changed


 Using spherical harmonics

 Library entry O      S aug-cc-pVTZ          selected for orbital group  1
 Library entry O      P aug-cc-pVTZ          selected for orbital group  1
 Library entry O      D aug-cc-pVTZ          selected for orbital group  1
 Library entry O      F aug-cc-pVTZ          selected for orbital group  1
 Library entry H      S aug-cc-pVTZ          selected for orbital group  2
 Library entry H      P aug-cc-pVTZ          selected for orbital group  2
 Library entry H      D aug-cc-pVTZ          selected for orbital group  2


 PROGRAM * SEWARD (Integral evaluation for generally contracted gaussian basis sets)     Author: Roland Lindh, 1990

 Geometry written to block  1 of record 700


 Point group  C1  



 ATOMIC COORDINATES

 NR  ATOM    CHARGE       X              Y              Z

   1  O       8.00   -0.379763590   -0.646538944    0.000000000
   2  H       1.00   -1.057566842    1.032033963    0.000000000
   3  H       1.00    1.437330432   -0.385495019    0.000000000

 Bond lengths in Bohr (Angstrom)

 1-2  1.810255300  1-3  1.835749062
     ( 0.957945851)     ( 0.971436569)

 Bond angles

  2-1-3  103.81354080

 NUCLEAR CHARGE:                   10
 NUMBER OF PRIMITIVE AOS:         121
 NUMBER OF SYMMETRY AOS:          108
 NUMBER OF CONTRACTIONS:           92   (   92A   )
 NUMBER OF INNER CORE ORBITALS:     0   (    0A   )
 NUMBER OF OUTER CORE ORBITALS:     1   (    1A   )
 NUMBER OF VALENCE ORBITALS:        6   (    6A   )


 NUCLEAR REPULSION ENERGY    9.12565577

 EXTRA SYMMETRY OF AOS IN SYMMETRY 1:   1 1 1 1 1 1 1 2 1 1   2 1 1 2 1 1 2 1 1 2   1 2 1 1 2 1 2 1 1 2   1 2 1 1 2 1 2 1 2 1
                                        1 2 1 2 1 2 1 1 1 1   1 1 2 1 1 2 1 1 2 1   1 2 1 2 1 1 2 1 2 1   1 1 1 1 1 2 1 1 2 1
                                        1 2 1 1 2 1 2 1 1 2   1 2

 Eigenvalues of metric

         1 0.388E-03 0.405E-03 0.168E-02 0.188E-02 0.328E-02 0.518E-02 0.570E-02 0.606E-02


 Contracted 2-electron integrals neglected if value below      1.0D-11
 AO integral compression algorithm  1   Integral accuracy      1.0D-11

     28.574 MB (compressed) written to integral file ( 30.1%)


 NUMBER OF SORTED TWO-ELECTRON INTEGRALS:    9152781.     BUFFER LENGTH:  32768
 NUMBER OF SEGMENTS:   1  SEGMENT LENGTH:    9152781      RECORD LENGTH: 524288

 Memory used in sort:       9.71 MW

 SORT1 READ    11938930. AND WROTE     4389816. INTEGRALS IN     13 RECORDS. CPU TIME:     0.05 SEC, REAL TIME:     0.07 SEC
 SORT2 READ     4389816. AND WROTE     9152781. INTEGRALS IN    109 RECORDS. CPU TIME:     0.10 SEC, REAL TIME:     0.12 SEC

 FILE SIZES:   FILE 1:    58.9 MBYTE,  FILE 4:    54.6 MBYTE,   TOTAL:    113.5 MBYTE

 OPERATOR DM      FOR CENTER  0  COORDINATES:    0.000000    0.000000    0.000000


 **********************************************************************************************************************************
 DATASETS  * FILE   NREC   LENGTH (MB)   RECORD NAMES
              1      19       49.47       500      610      700      900      950      970     1000      129      960     1100   
                                          VAR    BASINP    GEOM    SYMINP    ZMAT    AOBASIS   BASIS     P2S    ABASIS      S 
                                         1400     1410     1200     1210     1080     1600     1650     1300     1700   
                                           T        V       H0       H01     AOSYM     SMH    MOLCAS    ERIS     OPER   

 PROGRAMS   *        TOTAL       INT
 CPU TIMES  *         0.53      0.43
 REAL TIME  *         7.42 SEC
 DISK USED  *       108.61 MB
 **********************************************************************************************************************************


 Program * Restricted Hartree-Fock

 Orbital guess generated from atomic densities. Full valence occupancy:    7

 Initial occupancy:   5

 NELEC=   10   SYM=1   MS2= 0   THRE=1.0D-08   THRD=3.2D-06   THRG=3.2D-06  HFMA2=F  DIIS_START=2   DIIS_MAX=10   DIIS_INCORE=F

 Level shifts:    0.00 (CLOSED)    0.00 (OPEN)    0.30 (GAP_MIN)

 ITER           ETOT              DE          GRAD        DDIFF     DIIS  NEXP   TIME(IT)  TIME(TOT)  DIAG
   1      -76.02182310     -76.02182310     0.00D+00     0.66D-01     0     0       0.03      0.07    start
   2      -76.04863955      -0.02681645     0.10D-01     0.11D-01     1     0       0.04      0.11    diag
   3      -76.05967991      -0.01104036     0.65D-02     0.39D-02     2     0       0.04      0.15    diag
   4      -76.05986425      -0.00018434     0.60D-03     0.51D-03     3     0       0.04      0.19    diag
   5      -76.05988279      -0.00001855     0.16D-03     0.16D-03     4     0       0.04      0.23    diag
   6      -76.05988388      -0.00000109     0.31D-04     0.38D-04     5     0       0.04      0.27    diag
   7      -76.05988393      -0.00000005     0.60D-05     0.10D-04     6     0       0.04      0.31    diag
   8      -76.05988393      -0.00000000     0.11D-05     0.18D-05     7     0       0.04      0.35    fixocc
   9      -76.05988393      -0.00000000     0.13D-06     0.14D-06     0     0       0.04      0.39    diag

 Final occupancy:   5

 !RHF STATE 1.1 Energy                -76.059883930566
  RHF One-electron energy            -122.918280864395
  RHF Two-electron energy              37.732741164501
  RHF Kinetic energy                   75.930990669848
  RHF Nuclear energy                    9.125655769328
  RHF Virial quotient                  -1.001697505321

 !RHF STATE 1.1 Dipole moment           0.39650990     0.67977330     0.00000000
 Dipole moment /Debye                   1.00782763     1.72781139     0.00000000

 Orbital energies:

           1.1          2.1          3.1          4.1          5.1          6.1          7.1
    -20.568805    -1.350321    -0.712439    -0.584871    -0.509960     0.029303     0.047699


 HOMO      5.1    -0.509960 =     -13.8767eV
 LUMO      6.1     0.029303 =       0.7974eV
 LUMO-HOMO         0.539263 =      14.6741eV

 Orbitals saved in record  2100.2


 **********************************************************************************************************************************
 DATASETS  * FILE   NREC   LENGTH (MB)   RECORD NAMES
              1      19       49.47       500      610      700      900      950      970     1000      129      960     1100   
                                          VAR    BASINP    GEOM    SYMINP    ZMAT    AOBASIS   BASIS     P2S    ABASIS      S 
                                         1400     1410     1200     1210     1080     1600     1650     1300     1700   
                                           T        V       H0       H01     AOSYM     SMH    MOLCAS    ERIS     OPER   

              2       4        0.55       700     1000      520     2100   
                                         GEOM     BASIS   MCVARS     RHF  

 PROGRAMS   *        TOTAL    HF-SCF       INT
 CPU TIMES  *         0.92      0.39      0.43
 REAL TIME  *         8.76 SEC
 DISK USED  *       108.61 MB
 **********************************************************************************************************************************


 PROGRAM * CCSD (Closed-shell coupled cluster)     Authors: C. Hampel, H.-J. Werner, 1991, M. Deegan, P.J. Knowles, 1992


 Convergence thresholds:  THRVAR = 1.00D-08  THRDEN = 1.00D-06

 CCSD(T)     terms to be evaluated (factor= 1.000)


 Number of core orbitals:           1 (   1 )
 Number of closed-shell orbitals:   4 (   4 )
 Number of external orbitals:      87 (  87 )

 Molecular orbitals read from record     2100.2  Type=RHF/CANONICAL  

 Number of N-1 electron functions:               4
 Number of N-2 electron functions:              10
 Number of singly external CSFs:               348
 Number of doubly external CSFs:             60726
 Total number of CSFs:                       61075

 Length of J-op  integral file:               0.00 MB
 Length of K-op  integral file:               0.64 MB
 Length of 3-ext integral record:             0.00 MB

 Memory could be reduced to 4.57 Mwords without degradation in triples

 Integral transformation finished. Total CPU:   0.11 sec, npass=  1  Memory used:   2.30 MW

 Reference energy:                    -76.05988393

 MP2 singlet pair energy:              -0.17106947
 MP2 triplet pair energy:              -0.09793049
 MP2 correlation energy:               -0.26899996
 MP2 total energy:                    -76.32888389

 SCS-MP2 correlation energy:           -0.26621790   (PS=  1.200000  PT=  0.333333)
 SCS-MP2 total energy:                -76.32610183

 ITER.      SQ.NORM     CORR.ENERGY   TOTAL ENERGY   ENERGY CHANGE        DEN1      VAR(S)    VAR(P)  DIIS     TIME  TIME/IT
   1      1.06336026    -0.27326565   -76.33314958    -0.00426569     0.00134296  0.90D-03  0.98D-03  1  1     1.24     0.15
   2      1.06708950    -0.27356670   -76.33345063    -0.00030105    -0.00482887  0.11D-04  0.12D-03  2  2     1.32     0.13
   3      1.06846830    -0.27364528   -76.33352921    -0.00007857    -0.00089796  0.11D-04  0.54D-05  3  3     1.39     0.16
   4      1.06892140    -0.27363833   -76.33352226     0.00000695    -0.00020984  0.46D-06  0.63D-06  4  4     1.47     0.14
   5      1.06901951    -0.27363537   -76.33351930     0.00000296    -0.00003054  0.14D-06  0.39D-07  5  5     1.54     0.17
   6      1.06905387    -0.27363195   -76.33351588     0.00000342    -0.00000712  0.10D-07  0.23D-08  6  6     1.61     0.15
   7      1.06905986    -0.27363171   -76.33351564     0.00000023    -0.00000068  0.71D-09  0.40D-09  6  1     1.69     0.15
   8      1.06906082    -0.27363169   -76.33351562     0.00000002     0.00000039  0.93D-10  0.33D-10  6  2     1.77     0.15

 Norm of t1 vector:      0.04047425      S-energy:    -0.00000017      T1 diagnostic:  0.01011856
                                                                       D1 diagnostic:  0.02150767
                                                                       D2 diagnostic:  0.12809032 (internal)


 Total CPU time for triples:      0.36 sec


 RESULTS
 =======

  Reference energy                    -76.059883930566
  CCSD singlet pair energy             -0.186755585837
  CCSD triplet pair energy             -0.086875931052
  CCSD correlation energy              -0.273631689488

  Triples (T) contribution             -0.008704610956
  Total correlation energy             -0.282336300444

  CCSD total energy                   -76.333515620054
  CCSD[T] energy                      -76.342546544590
  CCSD-T energy                       -76.342044546352
 !CCSD(T) total energy                -76.342220231010

 Timing summary (sec):

 STEP                 CPU(USER)    SYS     CPU(TOT)    WALL
 Transformation          0.11      0.01      0.12      0.94
 CCSD iterations         1.66      0.07      1.73      1.61
 Triples                 0.36      0.02      0.38      0.40

 Program statistics:

 Available memory in ccsd:               805306299
 Min. memory needed in ccsd:                288418
 Max. memory used in ccsd:                  330600
 Max. memory used in cckext:                241058 ( 8 integral passes)



 **********************************************************************************************************************************
 DATASETS  * FILE   NREC   LENGTH (MB)   RECORD NAMES
              1      20       60.74       500      610      700      900      950      970     1000      129      960     1100   
                                          VAR    BASINP    GEOM    SYMINP    ZMAT    AOBASIS   BASIS     P2S    ABASIS      S 
                                         1400     1410     1200     1210     1080     1600     1650     1300     1700     1380   
                                           T        V       H0       H01     AOSYM     SMH    MOLCAS    ERIS     OPER     JKOP   

              2       4        0.55       700     1000      520     2100   
                                         GEOM     BASIS   MCVARS     RHF  

 PROGRAMS   *        TOTAL   CCSD(T)    HF-SCF       INT
 CPU TIMES  *         2.02      1.10      0.39      0.43
 REAL TIME  *        12.75 SEC
 DISK USED  *       108.61 MB
 **********************************************************************************************************************************

 Counterpoise: absolute minimum monomer separation=    -1.000 Bragg radius scale factor=     1.400 Number of monomers= 1
 Counterpoise skipped because only a single monomer


 **********************************************************************************************************************************
 DATASETS  * FILE   NREC   LENGTH (MB)   RECORD NAMES
              1      20       60.74       500      610      700      900      950      970     1000      129      960     1100   
                                          VAR    BASINP    GEOM    SYMINP    ZMAT    AOBASIS   BASIS     P2S    ABASIS      S 
                                         1400     1410     1200     1210     1080     1600     1650     1300     1700     1380   
                                           T        V       H0       H01     AOSYM     SMH    MOLCAS    ERIS     OPER     JKOP   

              2       4        0.55       700     1000      520     2100   
                                         GEOM     BASIS   MCVARS     RHF  

 PROGRAMS   *        TOTALCOUNTERPOI   CCSD(T)    HF-SCF       INT
 CPU TIMES  *         2.02      0.00      1.10      0.39      0.43
 REAL TIME  *        12.83 SEC
 DISK USED  *       108.61 MB
 **********************************************************************************************************************************

 Dump information in style XML to xml output                                                                      

 Orbitals will not be exported.

 **********************************************************************************************************************************

 CCSD(T)/aug-cc-pVTZ energy=    -76.342220231010

         CCSD(T)          HF-SCF
    -76.34222023    -76.05988393
 **********************************************************************************************************************************
 Molpro calculation terminated
