
 Working directory              : /tmp/peterk/molpro.a9M5H9hGDi/
 Global scratch directory       : /tmp/peterk/molpro.a9M5H9hGDi/
 Wavefunction directory         : /home/peterk/wfu/
 Main file repository           : /tmp/peterk/molpro.a9M5H9hGDi/

 id        : peterk

 Nodes     nprocs
 marat        1
 GA implementation: MPI file
 GA implementation (serial work in mppx): MPI file

 Using customized tuning parameters: mindgm=1; mindgv=20; mindgc=4; mindgr=1; noblas=0; minvec=7
 default implementation of scratch files=df  


 Variables initialized (1032), CPU time= 0.00 sec
 
 symmetry,nosym
 
 
 geometry={
            5
     C          0.00000000      0.00000000      0.06556637
     F          0.00000000      0.00000000     -1.31562859
     H          0.51491633     -0.89186125      0.41668741
     H          0.51491633      0.89186125      0.41668741
     H         -1.02983267      0.00000000      0.41668741
 }
 basis=cc-pVQZ
 
 
 
 hf; mp2
 
 
 
 {put,xml;noorbitals,nobasis}
 Commands initialized (841), CPU time= 0.01 sec, 708 directives.
 Default parameters read. Elapsed time= 0.05 sec

 Checking input...
 Passed
1


                                         ***  PROGRAM SYSTEM MOLPRO  ***
                                       Copyright, TTI GmbH Stuttgart, 2015
                                    Version 2023.1 linked Sat Jun 10 08:01:27 2023


 **********************************************************************************************************************************
 LABEL *                                                                                                                                                                 
  (16 PROC) 64 bit serial version                                                        DATE: 10-Jun-23          TIME: 14:32:19  
 **********************************************************************************************************************************

 SHA1:             8376d659ba1296ca7ee514c57770fe2c96af278c
 **********************************************************************************************************************************

 Memory per process:      1074 MW
 Total memory per node:   1074 MW

 GA preallocation disabled
 GA check disabled

 Variable memory set to 1073.7 MW

 ZSYMEL=NOSYM


 Geometry recognized as XYZ

 SETTING BASIS          =    CC-PVQZ


 Recomputing integrals since basis changed


 Using spherical harmonics

 Library entry C      S cc-pVQZ              selected for orbital group  1
 Library entry C      P cc-pVQZ              selected for orbital group  1
 Library entry C      D cc-pVQZ              selected for orbital group  1
 Library entry C      F cc-pVQZ              selected for orbital group  1
 Library entry C      G cc-pVQZ              selected for orbital group  1
 Library entry F      S cc-pVQZ              selected for orbital group  2
 Library entry F      P cc-pVQZ              selected for orbital group  2
 Library entry F      D cc-pVQZ              selected for orbital group  2
 Library entry F      F cc-pVQZ              selected for orbital group  2
 Library entry F      G cc-pVQZ              selected for orbital group  2
 Library entry H      S cc-pVQZ              selected for orbital group  3
 Library entry H      P cc-pVQZ              selected for orbital group  3
 Library entry H      D cc-pVQZ              selected for orbital group  3
 Library entry H      F cc-pVQZ              selected for orbital group  3


 PROGRAM * SEWARD (Integral evaluation for generally contracted gaussian basis sets)     Author: Roland Lindh, 1990

 Geometry written to block  1 of record 700


 Point group  C1  



 ATOMIC COORDINATES

 NR  ATOM    CHARGE       X              Y              Z

   1  C       6.00    0.000000000    0.000000000    0.123902482
   2  F       9.00    0.000000000    0.000000000   -2.486177717
   3  H       1.00    0.973050841   -1.685373504    0.787425084
   4  H       1.00    0.973050841    1.685373504    0.787425084
   5  H       1.00   -1.946101700    0.000000000    0.787425084

 Bond lengths in Bohr (Angstrom)

 1-2  2.610080199  1-3  2.056106522  1-4  2.056106522  1-5  2.056106532
     ( 1.381194960)     ( 1.088044715)     ( 1.088044715)     ( 1.088044720)

 Bond angles

  2-1-3  108.82678959   2-1-4  108.82678959   2-1-5  108.82678949   3-1-4  110.10789247

  3-1-5  110.10789219   4-1-5  110.10789219

 NUCLEAR CHARGE:                   18
 NUMBER OF PRIMITIVE AOS:         277
 NUMBER OF SYMMETRY AOS:          232
 NUMBER OF CONTRACTIONS:          200   (  200A   )
 NUMBER OF INNER CORE ORBITALS:     0   (    0A   )
 NUMBER OF OUTER CORE ORBITALS:     2   (    2A   )
 NUMBER OF VALENCE ORBITALS:       11   (   11A   )


 NUCLEAR REPULSION ENERGY   37.42306171


 Eigenvalues of metric

         1 0.155E-03 0.288E-03 0.288E-03 0.438E-03 0.492E-03 0.164E-02 0.164E-02 0.166E-02


 Contracted 2-electron integrals neglected if value below      1.0D-11
 AO integral compression algorithm  1   Integral accuracy      1.0D-11

     752.878 MB (compressed) written to integral file ( 40.6%)


 NUMBER OF SORTED TWO-ELECTRON INTEGRALS:  202015050.     BUFFER LENGTH:  32768
 NUMBER OF SEGMENTS:  13  SEGMENT LENGTH:   15999503      RECORD LENGTH: 524288

 Memory used in sort:      16.56 MW

 SORT1 READ   231754055. AND WROTE   165269791. INTEGRALS IN    480 RECORDS. CPU TIME:     1.50 SEC, REAL TIME:     2.79 SEC
 SORT2 READ   165269791. AND WROTE   202015050. INTEGRALS IN   2872 RECORDS. CPU TIME:     1.57 SEC, REAL TIME:     2.15 SEC

 FILE SIZES:   FILE 1:   784.4 MBYTE,  FILE 4:  2013.3 MBYTE,   TOTAL:   2797.8 MBYTE

 OPERATOR DM      FOR CENTER  0  COORDINATES:    0.000000    0.000000    0.000000


 **********************************************************************************************************************************
 DATASETS  * FILE   NREC   LENGTH (MB)   RECORD NAMES
              1      19      670.81       500      610      700      900      950      970     1000      129      960     1100   
                                          VAR    BASINP    GEOM    SYMINP    ZMAT    AOBASIS   BASIS     P2S    ABASIS      S 
                                         1400     1410     1200     1210     1080     1600     1650     1300     1700   
                                           T        V       H0       H01     AOSYM     SMH    MOLCAS    ERIS     OPER   

 PROGRAMS   *        TOTAL       INT
 CPU TIMES  *         9.15      9.04
 REAL TIME  *        12.40 SEC
 DISK USED  *         2.61 GB
 **********************************************************************************************************************************


 Program * Restricted Hartree-Fock

 Orbital guess generated from atomic densities. Full valence occupancy:   13

 Initial occupancy:   9

 NELEC=   18   SYM=1   MS2= 0   THRE=1.0D-08   THRD=3.2D-06   THRG=3.2D-06  HFMA2=F  DIIS_START=2   DIIS_MAX=10   DIIS_INCORE=F

 Level shifts:    0.00 (CLOSED)    0.00 (OPEN)    0.30 (GAP_MIN)

 ITER           ETOT              DE          GRAD        DDIFF     DIIS  NEXP   TIME(IT)  TIME(TOT)  DIAG
   1     -139.08025149    -139.08025149     0.00D+00     0.42D-01     0     0       1.08      2.09    start
   2     -139.10077916      -0.02052768     0.42D-02     0.32D-02     1     0       1.12      3.21    diag
   3     -139.10580535      -0.00502619     0.23D-02     0.12D-02     2     0       1.06      4.27    diag
   4     -139.10615964      -0.00035428     0.44D-03     0.34D-03     3     0       1.10      5.37    diag
   5     -139.10618202      -0.00002238     0.91D-04     0.90D-04     4     0       1.08      6.45    diag
   6     -139.10618308      -0.00000106     0.20D-04     0.25D-04     5     0       1.09      7.54    diag
   7     -139.10618314      -0.00000006     0.46D-05     0.57D-05     6     0       1.07      8.61    diag
   8     -139.10618314      -0.00000000     0.10D-05     0.13D-05     7     0       1.06      9.67    fixocc
   9     -139.10618314      -0.00000000     0.26D-06     0.24D-06     0     0       1.09     10.76    diag

 Final occupancy:   9

 !RHF STATE 1.1 Energy               -139.106183140667
  RHF One-electron energy            -266.574876983519
  RHF Two-electron energy              90.045632129812
  RHF Kinetic energy                  139.023453821899
  RHF Nuclear energy                   37.423061713039
  RHF Virial quotient                  -1.000595074547

 !RHF STATE 1.1 Dipole moment           0.00000000    -0.00000000     0.80112756
 Dipole moment /Debye                   0.00000000    -0.00000000     2.03626316

 Orbital energies:

           1.1          2.1          3.1          4.1          5.1          6.1          7.1          8.1          9.1         10.1
    -26.272915   -11.303844    -1.585321    -0.954563    -0.695305    -0.695305    -0.673724    -0.530411    -0.530411     0.116886

          11.1
      0.185448


 HOMO      9.1    -0.530411 =     -14.4332eV
 LUMO     10.1     0.116886 =       3.1806eV
 LUMO-HOMO         0.647297 =      17.6139eV

 Orbitals saved in record  2100.2


 **********************************************************************************************************************************
 DATASETS  * FILE   NREC   LENGTH (MB)   RECORD NAMES
              1      19      670.81       500      610      700      900      950      970     1000      129      960     1100   
                                          VAR    BASINP    GEOM    SYMINP    ZMAT    AOBASIS   BASIS     P2S    ABASIS      S 
                                         1400     1410     1200     1210     1080     1600     1650     1300     1700   
                                           T        V       H0       H01     AOSYM     SMH    MOLCAS    ERIS     OPER   

              2       4        1.09       700     1000      520     2100   
                                         GEOM     BASIS   MCVARS     RHF  

 PROGRAMS   *        TOTAL    HF-SCF       INT
 CPU TIMES  *        19.91     10.76      9.04
 REAL TIME  *        24.02 SEC
 DISK USED  *         2.61 GB
 **********************************************************************************************************************************


 PROGRAM * MP2 (Closed-shell)     Authors: C. Hampel, H.-J. Werner, 1991, M. Deegan, P.J. Knowles, 1992


 Convergence thresholds:  THRVAR = 1.00D-08  THRDEN = 1.00D-06

 Number of core orbitals:           2 (   2 )
 Number of closed-shell orbitals:   7 (   7 )
 Number of external orbitals:     191 ( 191 )

 Molecular orbitals read from record     2100.2  Type=RHF/CANONICAL  

 Number of N-1 electron functions:               7
 Number of N-2 electron functions:              28
 Number of singly external CSFs:              1337
 Number of doubly external CSFs:            894453
 Total number of CSFs:                      895791

 Length of J-op  integral file:               0.00 MB
 Length of K-op  integral file:               2.81 MB

 Integral transformation finished. Total CPU:   1.85 sec, npass=  1  Memory used:   2.75 MW

 Memory needed for MP2:                      0.20 MW

 SCS-MP2 correlation energy:           -0.471095498352   (PS=  1.200000  PT=  0.333333)
 SCS-MP2 total energy:               -139.577278639019


  Reference energy                   -139.106183140668
  MP2 singlet pair energy              -0.309491343237
  MP2 triplet pair energy              -0.160241603250
  MP2 correlation energy               -0.469732946488

 !MP2 total energy                   -139.575916087155


 **********************************************************************************************************************************
 DATASETS  * FILE   NREC   LENGTH (MB)   RECORD NAMES
              1      20      684.26       500      610      700      900      950      970     1000      129      960     1100   
                                          VAR    BASINP    GEOM    SYMINP    ZMAT    AOBASIS   BASIS     P2S    ABASIS      S 
                                         1400     1410     1200     1210     1080     1600     1650     1300     1700     1380   
                                           T        V       H0       H01     AOSYM     SMH    MOLCAS    ERIS     OPER     JKOP   

              2       4        1.09       700     1000      520     2100   
                                         GEOM     BASIS   MCVARS     RHF  

 PROGRAMS   *        TOTAL       MP2    HF-SCF       INT
 CPU TIMES  *        21.85      1.94     10.76      9.04
 REAL TIME  *        26.24 SEC
 DISK USED  *         2.61 GB
 **********************************************************************************************************************************

 Dump information in style XML to xml output                                                                      

 Orbitals will not be exported.

 **********************************************************************************************************************************

 MP2/cc-pVQZ energy=   -139.575916087155

             MP2          HF-SCF
   -139.57591609   -139.10618314
 **********************************************************************************************************************************
 Molpro calculation terminated
