
 Working directory              : /var/folders/2v/xbgp75_9785319ghcgb4zr4r0000gp/T//molpro.TbBx6EG0Xv/
 Global scratch directory       : /var/folders/2v/xbgp75_9785319ghcgb4zr4r0000gp/T//molpro.TbBx6EG0Xv/
 Wavefunction directory         : /Users/sacpjk/wfu/
 Main file repository           : /var/folders/2v/xbgp75_9785319ghcgb4zr4r0000gp/T//molpro.TbBx6EG0Xv/

 id        : peterk

 Nodes                        nprocs
 Cardiff-University-G34YLXT77Y    1
 GA implementation: MPI file
 GA implementation (serial work in mppx): MPI file

 Using customized tuning parameters: mindgm=1; mindgv=20; mindgc=4; mindgr=1; noblas=0; minvec=7
 default implementation of scratch files=df  


 Variables initialized (1032), CPU time= 0.00 sec
 
 symmetry,nosym
 
 
 geometry={
           11
     SI         0.00000000      0.00000000     -1.37623855
     C          0.00000000     -1.35357748     -0.07601309
     C          0.00000000      1.35357748     -0.07601309
     C          0.00000000     -0.74316826      1.12396734
     C          0.00000000      0.74316826      1.12396734
     H         -1.20433722      0.00000000     -2.24936353
     H          1.20433722      0.00000000     -2.24936353
     H          0.00000000     -2.43103687     -0.18113112
     H          0.00000000      2.43103687     -0.18113112
     H          0.00000000     -1.27765046      2.07065968
     H          0.00000000      1.27765046      2.07065968
 }
 basis=cc-pVTZ
 
 
 
 hf; hf; papt; mp4
 
 
 
 {put,xml;noorbitals,nobasis}
 Commands initialized (841), CPU time= 0.01 sec, 704 directives.
 Default parameters read. Elapsed time= 1.21 sec

 Checking input...
 Passed
1


                                         ***  PROGRAM SYSTEM MOLPRO  ***
                                       Copyright, TTI GmbH Stuttgart, 2015
                                    Version 2023.1 linked Tue Jun  6 09:54:11 2023


 **********************************************************************************************************************************
 LABEL *                                                                                                                                                                 
  64 bit serial version                                                                  DATE: 11-Jun-23          TIME: 14:47:24  
 **********************************************************************************************************************************

 SHA1:             8ebb0dd001088a5c915591db1a321413035db0b1
 **********************************************************************************************************************************

 Memory per process:       393 MW
 Total memory per node:    524 MW
 Total GA space:           131 MW

 GA preallocation disabled
 GA check enabled

 Variable memory set to 393.2 MW

 ZSYMEL=NOSYM


 Geometry recognized as XYZ

 SETTING BASIS          =    CC-PVTZ


 Recomputing integrals since basis changed


 Using spherical harmonics

 Library entry SI     S cc-pVTZ              selected for orbital group  1
 Library entry SI     P cc-pVTZ              selected for orbital group  1
 Library entry SI     D cc-pVTZ              selected for orbital group  1
 Library entry SI     F cc-pVTZ              selected for orbital group  1
 Library entry C      S cc-pVTZ              selected for orbital group  2
 Library entry C      P cc-pVTZ              selected for orbital group  2
 Library entry C      D cc-pVTZ              selected for orbital group  2
 Library entry C      F cc-pVTZ              selected for orbital group  2
 Library entry H      S cc-pVTZ              selected for orbital group  3
 Library entry H      P cc-pVTZ              selected for orbital group  3
 Library entry H      D cc-pVTZ              selected for orbital group  3


 PROGRAM * SEWARD (Integral evaluation for generally contracted gaussian basis sets)     Author: Roland Lindh, 1990

 Geometry written to block  1 of record 700


 Point group  C1  



 ATOMIC COORDINATES

 NR  ATOM    CHARGE       X              Y              Z

   1  SI     14.00    0.000000000    0.000000000   -2.600713942
   2  C       6.00    0.000000000   -2.557890726   -0.143643922
   3  C       6.00    0.000000000    2.557890726   -0.143643922
   4  C       6.00    0.000000000   -1.404384476    2.123990446
   5  C       6.00    0.000000000    1.404384476    2.123990446
   6  H       1.00   -2.275867507    0.000000000   -4.250681026
   7  H       1.00    2.275867507    0.000000000   -4.250681026
   8  H       1.00    0.000000000   -4.593993883   -0.342288209
   9  H       1.00    0.000000000    4.593993883   -0.342288209
  10  H       1.00    0.000000000   -2.414409452    3.912979693
  11  H       1.00    0.000000000    2.414409452    3.912979693

 Bond lengths in Bohr (Angstrom)

 1-2  3.546829295  1-3  3.546829295  1-4  4.929008755  1-5  4.929008755  1-6  2.811043275
     ( 1.876901234)     ( 1.876901234)     ( 2.608319105)     ( 2.608319105)     ( 1.487540040)

 1-7  2.811043275  2-4  2.544158465  2-8  2.045770178  3-5  2.544158465  3-9  2.045770178
     ( 1.487540040)     ( 1.346310680)     ( 1.082574957)     ( 1.346310680)     ( 1.082574957)

  4- 5  2.808768952   4-10  2.054417917   5-11  2.054417917
       ( 1.486336520)       ( 1.087151143)       ( 1.087151143)

 Bond angles

  1-2-4  106.88663096   1-2-8  130.57951851   1-3-5  106.88663096   1-3-9  130.57951851

  1- 4- 2   43.51585429   1- 4- 5   73.44579629   1- 4-10  167.10606238   1- 5- 3   43.51585429

  1- 5- 4   73.44579629   1- 5-11  167.10606238   2- 1- 3   92.30343693   2- 1- 4   29.59751475

  2-1-5   62.70592218   2-1-6  113.99246493   2-1-7  113.99246493   2-4-5  116.96165057

  2- 4-10  123.59020809   3- 1- 4   62.70592218   3- 1- 5   29.59751475   3- 1- 6  113.99246493

  3- 1- 7  113.99246493   3- 5- 4  116.96165057   3- 5-11  123.59020809   4- 1- 5   33.10840743

  4- 1- 6  124.23786799   4- 1- 7  124.23786799   4- 2- 8  122.53385052   4- 5-11  119.44814133

  5- 1- 6  124.23786799   5- 1- 7  124.23786799   5- 3- 9  122.53385052   5- 4-10  119.44814133

  6-1-7  108.11699271

 NUCLEAR CHARGE:                   44
 NUMBER OF PRIMITIVE AOS:         354
 NUMBER OF SYMMETRY AOS:          323
 NUMBER OF CONTRACTIONS:          238   (  238A   )
 NUMBER OF INNER CORE ORBITALS:     1   (    1A   )
 NUMBER OF OUTER CORE ORBITALS:     8   (    8A   )
 NUMBER OF VALENCE ORBITALS:       26   (   26A   )


 NUCLEAR REPULSION ENERGY  200.95161614

 EXTRA SYMMETRY OF AOS IN SYMMETRY 1:   1 1 1 1 1 1 1 1 1 1   1 1 1 1 1 1 1 1 2 1   1 1 1 2 1 1 1 1 1 1   1 2 1 1 1 1 1 1 2 1
                                        1 2 1 1 2 1 1 1 2 2   1 1 1 2 2 1 1 2 1 1   2 2 1 1 1 1 1 1 2 1   1 2 1 1 2 1 1 1 2 2
                                        1 1 1 2 2 1 1 2 1 1   2 2 1 1 1 1 1 1 2 1   1 2 1 1 2 1 1 1 2 2   1 1 1 2 2 1 1 2 1 1
                                        2 2 1 1 1 1 1 1 2 1   1 2 1 1 2 1 1 1 2 2   1 1 1 2 2 1 1 2 1 1   2 2 1 1 1 1 1 1 2 1
                                        1 2 1 1 2 1 1 2 1 1   1 1 2 1 1 2 1 1 2 1   1 2 1 1 1 2 1 1 2 1   1 1 2 2 1 1 1 1 1 2
                                        1 1 2 1 1 1 2 2 1 1   1 1 1 2 1 1 2 1 1 1   2 2 1 1 1 1 1 2 1 1   2 1 1 1 2 2 1 1

 Eigenvalues of metric

         1 0.194E-03 0.507E-03 0.874E-03 0.932E-03 0.109E-02 0.123E-02 0.131E-02 0.135E-02


 Contracted 2-electron integrals neglected if value below      1.0D-11
 AO integral compression algorithm  1   Integral accuracy      1.0D-11

     1001.652 MB (compressed) written to integral file ( 29.0%)


 NUMBER OF SORTED TWO-ELECTRON INTEGRALS:  404459461.     BUFFER LENGTH:  32768
 NUMBER OF SEGMENTS:  26  SEGMENT LENGTH:   15999762      RECORD LENGTH: 524288

 Memory used in sort:      16.56 MW

 SORT1 READ   432376532. AND WROTE   242239952. INTEGRALS IN    705 RECORDS. CPU TIME:     3.08 SEC, REAL TIME:     3.98 SEC
 SORT2 READ   242239952. AND WROTE   404459461. INTEGRALS IN   3821 RECORDS. CPU TIME:     2.33 SEC, REAL TIME:     3.01 SEC

 FILE SIZES:   FILE 1:  1033.9 MBYTE,  FILE 4:  2957.0 MBYTE,   TOTAL:   3991.0 MBYTE

 OPERATOR DM      FOR CENTER  0  COORDINATES:    0.000000    0.000000    0.000000


 **********************************************************************************************************************************
 DATASETS  * FILE   NREC   LENGTH (MB)   RECORD NAMES
              1      19      893.80       500      610      700      900      950      970     1000      129      960     1100   
                                          VAR    BASINP    GEOM    SYMINP    ZMAT    AOBASIS   BASIS     P2S    ABASIS      S 
                                         1400     1410     1200     1210     1080     1600     1650     1300     1700   
                                           T        V       H0       H01     AOSYM     SMH    MOLCAS    ERIS     OPER   

 PROGRAMS   *        TOTAL       INT
 CPU TIMES  *        15.91     15.79
 REAL TIME  *        22.53 SEC
 DISK USED  *         3.72 GB
 **********************************************************************************************************************************


 Program * Restricted Hartree-Fock

 Orbital guess generated from atomic densities. Full valence occupancy:   35

 Initial occupancy:  22

 NELEC=   44   SYM=1   MS2= 0   THRE=1.0D-08   THRD=3.2D-06   THRG=3.2D-06  HFMA2=F  DIIS_START=2   DIIS_MAX=10   DIIS_INCORE=F

 Level shifts:    0.00 (CLOSED)    0.00 (OPEN)    0.30 (GAP_MIN)

 ITER           ETOT              DE          GRAD        DDIFF     DIIS  NEXP   TIME(IT)  TIME(TOT)  DIAG
   1     -443.85651488    -443.85651488     0.00D+00     0.53D-01     0     0       2.08      3.99    start
   2     -443.91362129      -0.05710641     0.29D-02     0.44D-02     1     0       2.10      6.09    diag
   3     -443.92224372      -0.00862242     0.12D-02     0.14D-02     2     0       2.08      8.17    diag
   4     -443.92367146      -0.00142774     0.38D-03     0.62D-03     3     0       2.10     10.27    diag
   5     -443.92371428      -0.00004282     0.53D-04     0.12D-03     4     0       2.10     12.37    diag
   6     -443.92371965      -0.00000537     0.25D-04     0.36D-04     5     0       2.07     14.44    diag
   7     -443.92372037      -0.00000071     0.72D-05     0.12D-04     6     0       2.09     16.53    diag
   8     -443.92372044      -0.00000007     0.24D-05     0.41D-05     7     0       2.13     18.66    fixocc
   9     -443.92372045      -0.00000001     0.55D-06     0.14D-05     8     0       2.11     20.77    diag
  10     -443.92372045      -0.00000000     0.16D-06     0.29D-06     0     0       2.12     22.89    diag/orth

 Final occupancy:  22

 !RHF STATE 1.1 Energy               -443.923720446402
  RHF One-electron energy           -1008.289334574548
  RHF Two-electron energy             363.413997985527
  RHF Kinetic energy                  443.674363525515
  RHF Nuclear energy                  200.951616142619
  RHF Virial quotient                  -1.000562026886

 !RHF STATE 1.1 Dipole moment          -0.00000000     0.00000000     0.28804350
 Dipole moment /Debye                  -0.00000000     0.00000000     0.73213355

 Orbital energies:

           1.1          2.1          3.1          4.1          5.1          6.1          7.1          8.1          9.1         10.1
    -68.769914   -11.247489   -11.246753   -11.215975   -11.215957    -6.117979    -4.224328    -4.224027    -4.223833    -1.106807

          11.1         12.1         13.1         14.1         15.1         16.1         17.1         18.1         19.1         20.1
     -0.974920    -0.840364    -0.704375    -0.703042    -0.658072    -0.572470    -0.535351    -0.499984    -0.452004    -0.444202

          21.1         22.1         23.1         24.1
     -0.429431    -0.323392     0.080723     0.139242


 HOMO     22.1    -0.323392 =      -8.7999eV
 LUMO     23.1     0.080723 =       2.1966eV
 LUMO-HOMO         0.404115 =      10.9965eV

 Orbitals saved in record  2100.2


 **********************************************************************************************************************************
 DATASETS  * FILE   NREC   LENGTH (MB)   RECORD NAMES
              1      19      893.80       500      610      700      900      950      970     1000      129      960     1100   
                                          VAR    BASINP    GEOM    SYMINP    ZMAT    AOBASIS   BASIS     P2S    ABASIS      S 
                                         1400     1410     1200     1210     1080     1600     1650     1300     1700   
                                           T        V       H0       H01     AOSYM     SMH    MOLCAS    ERIS     OPER   

              2       4        1.44       700     1000      520     2100   
                                         GEOM     BASIS   MCVARS     RHF  

 PROGRAMS   *        TOTAL    HF-SCF       INT
 CPU TIMES  *        38.80     22.88     15.79
 REAL TIME  *        49.02 SEC
 DISK USED  *         3.72 GB
 **********************************************************************************************************************************


 Program * Restricted Hartree-Fock

 Molecular orbitals read from record     2100.2  Type=RHF/CANONICAL  

 Initial occupancy:  22

 NELEC=   44   SYM=1   MS2= 0   THRE=1.0D-08   THRD=3.2D-06   THRG=3.2D-06  HFMA2=F  DIIS_START=2   DIIS_MAX=10   DIIS_INCORE=F

 Level shifts:    0.00 (CLOSED)    0.00 (OPEN)    0.30 (GAP_MIN)

 ITER           ETOT              DE          GRAD        DDIFF     DIIS  NEXP   TIME(IT)  TIME(TOT)  DIAG
   1     -443.92372045    -443.92372045     0.00D+00     0.53D-01     0     0       2.13      2.13    start
   2     -443.92372045      -0.00000000     0.66D-07     0.12D-06     1     0       2.09      4.22    diag

 Final occupancy:  22

 !RHF STATE 1.1 Energy               -443.923720446467
  RHF One-electron energy           -1008.289336790510
  RHF Two-electron energy             363.414000201424
  RHF Kinetic energy                  443.674362289196
  RHF Nuclear energy                  200.951616142619
  RHF Virial quotient                  -1.000562029674

 !RHF STATE 1.1 Dipole moment          -0.00000000     0.00000000     0.28807817
 Dipole moment /Debye                  -0.00000000     0.00000000     0.73222167

 Orbital energies:

           1.1          2.1          3.1          4.1          5.1          6.1          7.1          8.1          9.1         10.1
    -68.769914   -11.247485   -11.246749   -11.215979   -11.215961    -6.117979    -4.224328    -4.224028    -4.223834    -1.106806

          11.1         12.1         13.1         14.1         15.1         16.1         17.1         18.1         19.1         20.1
     -0.974920    -0.840363    -0.704375    -0.703042    -0.658072    -0.572470    -0.535351    -0.499984    -0.452004    -0.444202

          21.1         22.1         23.1         24.1
     -0.429431    -0.323393     0.080723     0.139242


 HOMO     22.1    -0.323393 =      -8.8000eV
 LUMO     23.1     0.080723 =       2.1966eV
 LUMO-HOMO         0.404116 =      10.9966eV

 Orbitals saved in record  2101.2


 **********************************************************************************************************************************
 DATASETS  * FILE   NREC   LENGTH (MB)   RECORD NAMES
              1      19      893.80       500      610      700      900      950      970     1000      129      960     1100   
                                          VAR    BASINP    GEOM    SYMINP    ZMAT    AOBASIS   BASIS     P2S    ABASIS      S 
                                         1400     1410     1200     1210     1080     1600     1650     1300     1700   
                                           T        V       H0       H01     AOSYM     SMH    MOLCAS    ERIS     OPER   

              2       5        3.06       700     1000      520     2100     2101   
                                         GEOM     BASIS   MCVARS     RHF      RHF  

 PROGRAMS   *        TOTAL    HF-SCF    HF-SCF       INT
 CPU TIMES  *        43.03      4.24     22.88     15.79
 REAL TIME  *        54.44 SEC
 DISK USED  *         3.72 GB
 **********************************************************************************************************************************


 PROGRAM * PAPT (Closed-shell)     Authors: C. Hampel, H.-J. Werner, 1991, P.J. Knowles, 2021


 Convergence thresholds:  THRVAR = 1.00D-08  THRDEN = 1.00D-06

 Number of core orbitals:           9 (   9 )
 Number of closed-shell orbitals:  13 (  13 )
 Number of external orbitals:     216 ( 216 )

 Molecular orbitals read from record     2101.2  Type=RHF/CANONICAL  

 Number of N-1 electron functions:              13
 Number of N-2 electron functions:              91
 Number of singly external CSFs:              2808
 Number of doubly external CSFs:           3943836
 Total number of CSFs:                     3946645

 Length of J-op  integral file:               0.00 MB
 Length of K-op  integral file:               3.95 MB

 Integral transformation finished. Total CPU:   4.86 sec, npass=  1  Memory used:   9.76 MW

 Reference energy:                   -443.92372045

                        CORR.ENERGY   TOTAL ENERGY   ENERGY CHANGE
 MP2:                   -0.75254984  -444.67627029    -0.75254984

 SCS-MP2 correlation energy:           -0.75348490   (PS=  1.200000  PT=  0.333333)
 SCS-MP2 total energy:               -444.67720535
 Iteration:   1     0.2804D+00
 Iteration:   2     0.4125D+00
 Iteration:   3     0.8937D-01
 Iteration:   4     0.9953D-01
 Iteration:   5     0.4994D-01
 Iteration:   6     0.1757D-01
 Iteration:   7     0.7107D-01
 Iteration:   8     0.5625D-02
 Iteration:   9     0.5310D-02
 Iteration:  10     0.2339D-02
 Iteration:  11     0.8229D-03
 Iteration:  12     0.2470D-01
 Iteration:  13     0.2915D-03
 Iteration:  14     0.6052D-03
 Iteration:  15     0.2041D-03
 Iteration:  16     0.8213D-04
 PAPT operator written to  7000.1
 PAPT orbitals and eigenvalues written to  7000.2

 MP3(D):                -0.79041523  -444.71413568    -0.03786539



 RESULTS
 =======

  Reference energy                   -443.923720446467
  MP3 singlet pair energy              -0.546185201618
  MP3 triplet pair energy              -0.244230028951
  MP3 correlation energy               -0.790415230569

 !MP3 total energy                   -444.714135677036

 Timing summary (sec):

 STEP                 CPU(USER)    SYS     CPU(TOT)    WALL
 Transformation          5.09      0.45      5.54      5.90
 CCSD iterations        66.60      0.52     67.12     26.53

 Program statistics:

 Available memory in ccsd:               393215302
 Min. memory needed in ccsd:              10143621
 Max. memory used in ccsd:                13655753
 Max. memory used in cckext:              10833460 ( 1 integral passes)



 **********************************************************************************************************************************
 DATASETS  * FILE   NREC   LENGTH (MB)   RECORD NAMES
              1      21      953.96       500      610      700      900      950      970     1000      129      960     1100   
                                          VAR    BASINP    GEOM    SYMINP    ZMAT    AOBASIS   BASIS     P2S    ABASIS      S 
                                         1400     1410     1200     1210     1080     1600     1650     1300     1700     1380   
                                           T        V       H0       H01     AOSYM     SMH    MOLCAS    ERIS     OPER     JKOP   
                                         7000   
                                        PAPT AO    

              2       6        4.47       700     1000      520     2100     2101     7000   
                                         GEOM     BASIS   MCVARS     RHF      RHF     PAPT   

 PROGRAMS   *        TOTAL      PAPT    HF-SCF    HF-SCF       INT
 CPU TIMES  *        71.60     28.56      4.24     22.88     15.79
 REAL TIME  *        87.18 SEC
 DISK USED  *         3.72 GB
 **********************************************************************************************************************************


 PROGRAM * MP4 (Closed-shell)     Authors: C. Hampel, H.-J. Werner, 1991, M. Deegan, P.J. Knowles, 1992


 Convergence thresholds:  THRVAR = 1.00D-08  THRDEN = 1.00D-06

 MP4(T)     terms to be evaluated (factor= 0.000)


 Number of core orbitals:           9 (   9 )
 Number of closed-shell orbitals:  13 (  13 )
 Number of external orbitals:     216 ( 216 )

 Molecular orbitals read from record     7000.2  Type=PAPT/CANONICAL (state 1.1)

 Number of N-1 electron functions:              13
 Number of N-2 electron functions:              91
 Number of singly external CSFs:              2808
 Number of doubly external CSFs:           3943836
 Total number of CSFs:                     3946645

 Length of J-op  integral file:               0.00 MB
 Length of K-op  integral file:               3.95 MB

 Memory could be reduced to 166.40 Mwords without degradation in triples

 Integral transformation finished. Total CPU:  12.46 sec, npass=  1  Memory used: 104.53 MW
 Orbital energies read from record       7000.2  Type=PAPT/CANONICAL (state 1.1)

 Reference energy:                   -443.92372045

                        CORR.ENERGY   TOTAL ENERGY   ENERGY CHANGE
 MP2:                   -0.80067271  -444.72439315    -0.80067271

 SCS-MP2 correlation energy:           -0.80669011   (PS=  1.200000  PT=  0.333333)
 SCS-MP2 total energy:               -444.73041056

 MP3(D):                -0.80106194  -444.72478239    -0.00038923
 MP4(DQ):               -0.78633498  -444.71005542     0.01472697
 MP4(SDQ):              -0.79294683  -444.71666728    -0.00661186

 Norm of t1 vector:      0.07414491      S-energy:    -0.00661186      T1 diagnostic:  0.01028205

 Largest off-diagonal element in interal  block of Fock matrix:  0.14D+00
 Largest off-diagonal element in external block of Fock matrix:  0.25D+00


 Total CPU time for triples:    291.58 sec


 RESULTS
 =======

  Reference energy                   -443.923720446467
  MP4(SDQ) singlet pair energy         -0.546295641537
  MP4(SDQ) triplet pair energy         -0.240039333597
  MP4(SDQ) correlation energy          -0.792946830539

  Triples contribution                 -0.045071536312
  Total correlation energy             -0.838018366852

  MP4(SDQ) total energy              -444.716667277006
 !MP4(SDTQ) total energy             -444.761738813318

 Timing summary (sec):

 STEP                 CPU(USER)    SYS     CPU(TOT)    WALL
 Transformation         14.77      1.30     16.07     16.88
 CCSD iterations        89.56      0.40     89.96     19.37
 Triples               291.58      8.63    300.21    314.87

 Program statistics:

 Available memory in ccsd:               393215302
 Min. memory needed in ccsd:              10143621
 Max. memory used in ccsd:                13655753
 Max. memory used in cckext:              10833460 ( 1 integral passes)



 **********************************************************************************************************************************
 DATASETS  * FILE   NREC   LENGTH (MB)   RECORD NAMES
              1      22     1456.04       500      610      700      900      950      970     1000      129      960     1100   
                                          VAR    BASINP    GEOM    SYMINP    ZMAT    AOBASIS   BASIS     P2S    ABASIS      S 
                                         1400     1410     1200     1210     1080     1600     1650     1300     1700     1380   
                                           T        V       H0       H01     AOSYM     SMH    MOLCAS    ERIS     OPER     JKOP   
                                         7000     1380(1)
                                        PAPT AO   JKOP   

              2       6        4.47       700     1000      520     2100     2101     7000   
                                         GEOM     BASIS   MCVARS     RHF      RHF     PAPT   

 PROGRAMS   *        TOTAL       MP4      PAPT    HF-SCF    HF-SCF       INT
 CPU TIMES  *       395.82    324.23     28.56      4.24     22.88     15.79
 REAL TIME  *       438.64 SEC
 DISK USED  *         3.72 GB
 **********************************************************************************************************************************

 Dump information in style XML to xml output                                                                      

 Orbitals will not be exported.

 **********************************************************************************************************************************

 MP4/cc-pVTZ energy=   -444.761738813318

             MP4            PAPT          HF-SCF          HF-SCF
   -444.76173881   -444.71413568   -443.92372045   -443.92372045
 **********************************************************************************************************************************
 Molpro calculation terminated
