
 Working directory              : /var/folders/2v/xbgp75_9785319ghcgb4zr4r0000gp/T//molpro.3TmkMhoFiq/
 Global scratch directory       : /var/folders/2v/xbgp75_9785319ghcgb4zr4r0000gp/T//molpro.3TmkMhoFiq/
 Wavefunction directory         : /Users/sacpjk/wfu/
 Main file repository           : /var/folders/2v/xbgp75_9785319ghcgb4zr4r0000gp/T//molpro.3TmkMhoFiq/

 id        : peterk

 Nodes                        nprocs
 Cardiff-University-G34YLXT77Y    1
 GA implementation: MPI file
 GA implementation (serial work in mppx): MPI file

 Using customized tuning parameters: mindgm=1; mindgv=20; mindgc=4; mindgr=1; noblas=0; minvec=7
 default implementation of scratch files=df  


 Variables initialized (1032), CPU time= 0.01 sec
 
 symmetry,nosym
 
 
 geometry={
           11
     C         -1.03666222      1.00226747      0.00000000
     C         -0.99802842     -0.37323986      0.00000000
     C          1.15125899     -0.89785440      0.00000000
     N          1.59581209      0.37970345      0.00000000
     N          1.23898727      1.47513174      0.00000000
     H         -1.16993317      1.56007075     -0.91825218
     H         -1.16993317      1.56007075      0.91825218
     H         -1.19957230     -0.92033561     -0.91402853
     H         -1.19957230     -0.92033561      0.91402853
     H          1.39382161     -1.43273935      0.91491930
     H          1.39382161     -1.43273935     -0.91491930
 }
 basis=cc-pVTZ
 
 
 
 hf; ccsd
 
 
 
 {put,xml;noorbitals,nobasis}
 Commands initialized (841), CPU time= 0.00 sec, 704 directives.
 Default parameters read. Elapsed time= 0.07 sec

 Checking input...
 Passed
1


                                         ***  PROGRAM SYSTEM MOLPRO  ***
                                       Copyright, TTI GmbH Stuttgart, 2015
                                    Version 2023.1 linked Tue Jun  6 09:54:11 2023


 **********************************************************************************************************************************
 LABEL *                                                                                                                                                                 
  64 bit serial version                                                                  DATE: 11-Jun-23          TIME: 08:45:58  
 **********************************************************************************************************************************

 SHA1:             8ebb0dd001088a5c915591db1a321413035db0b1
 **********************************************************************************************************************************

 Memory per process:       393 MW
 Total memory per node:    524 MW
 Total GA space:           131 MW

 GA preallocation disabled
 GA check enabled

 Variable memory set to 393.2 MW

 ZSYMEL=NOSYM


 Geometry recognized as XYZ

 SETTING BASIS          =    CC-PVTZ


 Recomputing integrals since basis changed


 Using spherical harmonics

 Library entry C      S cc-pVTZ              selected for orbital group  1
 Library entry C      P cc-pVTZ              selected for orbital group  1
 Library entry C      D cc-pVTZ              selected for orbital group  1
 Library entry C      F cc-pVTZ              selected for orbital group  1
 Library entry N      S cc-pVTZ              selected for orbital group  2
 Library entry N      P cc-pVTZ              selected for orbital group  2
 Library entry N      D cc-pVTZ              selected for orbital group  2
 Library entry N      F cc-pVTZ              selected for orbital group  2
 Library entry H      S cc-pVTZ              selected for orbital group  3
 Library entry H      P cc-pVTZ              selected for orbital group  3
 Library entry H      D cc-pVTZ              selected for orbital group  3


 PROGRAM * SEWARD (Integral evaluation for generally contracted gaussian basis sets)     Author: Roland Lindh, 1990

 Geometry written to block  1 of record 700


 Point group  C1  



 ATOMIC COORDINATES

 NR  ATOM    CHARGE       X              Y              Z

   1  C       6.00   -1.959007680    1.894011022    0.000000000
   2  C       6.00   -1.886000378   -0.705321114    0.000000000
   3  C       6.00    2.175564190   -1.696698916    0.000000000
   4  N       7.00    3.015647796    0.717535529    0.000000000
   5  N       7.00    2.341346612    2.787594986    0.000000000
   6  H       1.00   -2.210853275    2.948106453   -1.735245134
   7  H       1.00   -2.210853275    2.948106453    1.735245134
   8  H       1.00   -2.266863114   -1.739182246   -1.727263592
   9  H       1.00   -2.266863114   -1.739182246    1.727263592
  10  H       1.00    2.633941109   -2.707484979    1.728946903
  11  H       1.00    2.633941109   -2.707484979   -1.728946903

 Bond lengths in Bohr (Angstrom)

 1-2  2.600357210  1-6  2.045878553  1-7  2.045878553  2-8  2.048747124  2-9  2.048747124
     ( 1.376049776)     ( 1.082632307)     ( 1.082632307)     ( 1.084150289)     ( 1.084150289)

  3- 4  2.556221513   3-10  2.054520689   3-11  2.054520689   4- 5  2.177114660
       ( 1.352694170)       ( 1.087205528)       ( 1.087205528)       ( 1.152079464)

 Bond angles

  1-2-8  119.94792439   1-2-9  119.94792439   2-1-6  121.23046507   2-1-7  121.23046507

  3- 4- 5  142.77108279   4- 3-10  113.03738549   4- 3-11  113.03738549   6- 1- 7  116.02555382

  8- 2- 9  114.93421732  10- 3-11  114.60470712

 NUCLEAR CHARGE:                   38
 NUMBER OF PRIMITIVE AOS:         337
 NUMBER OF SYMMETRY AOS:          306
 NUMBER OF CONTRACTIONS:          234   (  234A   )
 NUMBER OF INNER CORE ORBITALS:     0   (    0A   )
 NUMBER OF OUTER CORE ORBITALS:     5   (    5A   )
 NUMBER OF VALENCE ORBITALS:       26   (   26A   )


 NUCLEAR REPULSION ENERGY  161.45551786


 Eigenvalues of metric

         1 0.394E-03 0.824E-03 0.865E-03 0.122E-02 0.136E-02 0.144E-02 0.145E-02 0.162E-02


 Contracted 2-electron integrals neglected if value below      1.0D-11
 AO integral compression algorithm  1   Integral accuracy      1.0D-11

     1250.165 MB (compressed) written to integral file ( 38.4%)


 NUMBER OF SORTED TWO-ELECTRON INTEGRALS:  378001260.     BUFFER LENGTH:  32768
 NUMBER OF SEGMENTS:  24  SEGMENT LENGTH:   15999762      RECORD LENGTH: 524288

 Memory used in sort:      16.56 MW

 SORT1 READ   407383270. AND WROTE   313973796. INTEGRALS IN    911 RECORDS. CPU TIME:     3.56 SEC, REAL TIME:     9.46 SEC
 SORT2 READ   313973796. AND WROTE   378001260. INTEGRALS IN   4769 RECORDS. CPU TIME:     2.70 SEC, REAL TIME:    10.60 SEC

 FILE SIZES:   FILE 1:  1282.4 MBYTE,  FILE 4:  3821.1 MBYTE,   TOTAL:   5103.4 MBYTE

 OPERATOR DM      FOR CENTER  0  COORDINATES:    0.000000    0.000000    0.000000


 **********************************************************************************************************************************
 DATASETS  * FILE   NREC   LENGTH (MB)   RECORD NAMES
              1      19     1125.75       500      610      700      900      950      970     1000      129      960     1100   
                                          VAR    BASINP    GEOM    SYMINP    ZMAT    AOBASIS   BASIS     P2S    ABASIS      S 
                                         1400     1410     1200     1210     1080     1600     1650     1300     1700   
                                           T        V       H0       H01     AOSYM     SMH    MOLCAS    ERIS     OPER   

 PROGRAMS   *        TOTAL       INT
 CPU TIMES  *        17.26     17.15
 REAL TIME  *        45.02 SEC
 DISK USED  *         4.75 GB
 **********************************************************************************************************************************


 Program * Restricted Hartree-Fock

 Orbital guess generated from atomic densities. Full valence occupancy:   31

 Initial occupancy:  19

 NELEC=   38   SYM=1   MS2= 0   THRE=1.0D-08   THRD=3.2D-06   THRG=3.2D-06  HFMA2=F  DIIS_START=2   DIIS_MAX=10   DIIS_INCORE=F

 Level shifts:    0.00 (CLOSED)    0.00 (OPEN)    0.30 (GAP_MIN)

 ITER           ETOT              DE          GRAD        DDIFF     DIIS  NEXP   TIME(IT)  TIME(TOT)  DIAG
   1     -225.80269570    -225.80269570     0.00D+00     0.49D-01     0     0       2.12      4.08    start
   2     -225.86416384      -0.06146814     0.43D-02     0.64D-02     1     0       2.12      6.20    diag
   3     -225.90277081      -0.03860697     0.32D-02     0.28D-02     2     0       2.19      8.39    diag
   4     -225.90472214      -0.00195133     0.52D-03     0.76D-03     3     0       2.14     10.53    diag
   5     -225.90521441      -0.00049227     0.31D-03     0.32D-03     4     0       2.18     12.71    diag
   6     -225.90535627      -0.00014187     0.11D-03     0.17D-03     5     0       2.20     14.91    diag
   7     -225.90541517      -0.00005889     0.52D-04     0.12D-03     6     0       2.17     17.08    diag
   8     -225.90544669      -0.00003152     0.34D-04     0.12D-03     7     0       2.12     19.20    fixocc
   9     -225.90545100      -0.00000431     0.12D-04     0.57D-04     8     0       2.11     21.31    diag
  10     -225.90545114      -0.00000014     0.33D-05     0.69D-05     9     0       2.10     23.41    diag/orth
  11     -225.90545117      -0.00000003     0.14D-05     0.37D-05     9     0       2.09     25.50    diag
  12     -225.90545118      -0.00000000     0.52D-06     0.14D-05     9     0       2.13     27.63    diag
  13     -225.90545118      -0.00000000     0.17D-06     0.29D-06     0     0       2.09     29.72    diag

 Final occupancy:  19

 !RHF STATE 1.1 Energy               -225.905451178206
  RHF One-electron energy            -624.769287403232
  RHF Two-electron energy             237.408318362656
  RHF Kinetic energy                  225.489863054454
  RHF Nuclear energy                  161.455517862370
  RHF Virial quotient                  -1.001843045706

 !RHF STATE 1.1 Dipole moment           0.15588399    -0.81598968     0.00000000
 Dipole moment /Debye                   0.39621757    -2.07403890     0.00000000

 Orbital energies:

           1.1          2.1          3.1          4.1          5.1          6.1          7.1          8.1          9.1         10.1
    -15.683772   -15.655611   -11.286823   -11.227691   -11.216630    -1.427526    -1.079070    -1.014210    -0.791812    -0.760490

          11.1         12.1         13.1         14.1         15.1         16.1         17.1         18.1         19.1         20.1
     -0.671664    -0.660108    -0.626309    -0.619210    -0.566836    -0.529365    -0.490547    -0.370731    -0.297887     0.120860

          21.1
      0.134394


 HOMO     19.1    -0.297887 =      -8.1059eV
 LUMO     20.1     0.120860 =       3.2888eV
 LUMO-HOMO         0.418747 =      11.3947eV

 Orbitals saved in record  2100.2


 **********************************************************************************************************************************
 DATASETS  * FILE   NREC   LENGTH (MB)   RECORD NAMES
              1      19     1125.75       500      610      700      900      950      970     1000      129      960     1100   
                                          VAR    BASINP    GEOM    SYMINP    ZMAT    AOBASIS   BASIS     P2S    ABASIS      S 
                                         1400     1410     1200     1210     1080     1600     1650     1300     1700   
                                           T        V       H0       H01     AOSYM     SMH    MOLCAS    ERIS     OPER   

              2       4        1.41       700     1000      520     2100   
                                         GEOM     BASIS   MCVARS     RHF  

 PROGRAMS   *        TOTAL    HF-SCF       INT
 CPU TIMES  *        46.98     29.73     17.15
 REAL TIME  *        97.37 SEC
 DISK USED  *         4.75 GB
 **********************************************************************************************************************************


 PROGRAM * CCSD (Closed-shell coupled cluster)     Authors: C. Hampel, H.-J. Werner, 1991, M. Deegan, P.J. Knowles, 1992


 Convergence thresholds:  THRVAR = 1.00D-08  THRDEN = 1.00D-06

 Number of core orbitals:           5 (   5 )
 Number of closed-shell orbitals:  14 (  14 )
 Number of external orbitals:     215 ( 215 )

 Molecular orbitals read from record     2100.2  Type=RHF/CANONICAL  

 Number of N-1 electron functions:              14
 Number of N-2 electron functions:             105
 Number of singly external CSFs:              3010
 Number of doubly external CSFs:           4531555
 Total number of CSFs:                     4534566

 Length of J-op  integral file:               0.00 MB
 Length of K-op  integral file:               3.82 MB
 Length of 3-ext integral record:             0.00 MB

 Integral transformation finished. Total CPU:  11.80 sec, npass=  1  Memory used: 107.18 MW

 Reference energy:                   -225.90545118

 MP2 singlet pair energy:              -0.59514118
 MP2 triplet pair energy:              -0.35369416
 MP2 correlation energy:               -0.94883534
 MP2 total energy:                   -226.85428652

 SCS-MP2 correlation energy:           -0.93424578   (PS=  1.200000  PT=  0.333333)
 SCS-MP2 total energy:               -226.83969696

 ITER.      SQ.NORM     CORR.ENERGY   TOTAL ENERGY   ENERGY CHANGE        DEN1      VAR(S)    VAR(P)  DIIS     TIME  TIME/IT
   1      1.31181168    -0.95530224  -226.86075342    -0.00646690     0.02749110  0.53D-02  0.10D-01  1  1    77.80    24.50
   2      1.33783789    -0.95632028  -226.86177145    -0.00101803    -0.02757170  0.14D-03  0.11D-02  2  2    97.40    24.58
   3      1.34913529    -0.95647917  -226.86193035    -0.00015889    -0.00572177  0.71D-04  0.91D-04  3  3   117.43    25.26
   4      1.35343865    -0.95656998  -226.86202116    -0.00009081    -0.00140731  0.98D-05  0.15D-04  4  4   140.01    26.53
   5      1.35530696    -0.95661225  -226.86206343    -0.00004227    -0.00046356  0.31D-05  0.14D-05  5  5   162.74    27.72
   6      1.35585252    -0.95659241  -226.86204359     0.00001984    -0.00007765  0.67D-06  0.19D-06  6  6   183.81    27.59
   7      1.35598137    -0.95659075  -226.86204193     0.00000166    -0.00000372  0.14D-06  0.51D-07  6  2   206.02    28.50
   8      1.35602999    -0.95658939  -226.86204057     0.00000136    -0.00000189  0.34D-07  0.10D-07  6  1   229.11    28.70
   9      1.35604429    -0.95658883  -226.86204001     0.00000056     0.00000346  0.23D-08  0.23D-08  6  4   251.71    28.98
  10      1.35604936    -0.95658876  -226.86203994     0.00000007    -0.00000091  0.68D-09  0.24D-09  6  3   275.06    29.28

 Norm of t1 vector:      0.09857489      S-energy:    -0.00000020      T1 diagnostic:  0.01317262
                                                                       D1 diagnostic:  0.03914472
                                                                       D2 diagnostic:  0.20420543 (external, symmetry=1)

 Doubles amplitudes (print threshold =  0.500E-01):

         I         J         SYM. A    SYM. B    A         B      T(IJ, AB)

        11        11         1         1         2         2     -0.05402557
        14        14         1         1         1         1     -0.09470864


 RESULTS
 =======

  Reference energy                   -225.905451178206
  CCSD singlet pair energy             -0.652645143957
  CCSD triplet pair energy             -0.303943416159
  CCSD correlation energy              -0.956588758124

 !CCSD total energy                  -226.862039936330

 Timing summary (sec):

 STEP                 CPU(USER)    SYS     CPU(TOT)    WALL
 Transformation         12.05      0.90     12.95     16.23
 CCSD iterations       263.21      8.05    271.26    293.11

 Program statistics:

 Available memory in ccsd:               393215197
 Min. memory needed in ccsd:              11443386
 Max. memory used in ccsd:                15533437
 Max. memory used in cckext:              12030085 (10 integral passes)



 **********************************************************************************************************************************
 DATASETS  * FILE   NREC   LENGTH (MB)   RECORD NAMES
              1      20     1725.71       500      610      700      900      950      970     1000      129      960     1100   
                                          VAR    BASINP    GEOM    SYMINP    ZMAT    AOBASIS   BASIS     P2S    ABASIS      S 
                                         1400     1410     1200     1210     1080     1600     1650     1300     1700     1380   
                                           T        V       H0       H01     AOSYM     SMH    MOLCAS    ERIS     OPER     JKOP   

              2       4        1.41       700     1000      520     2100   
                                         GEOM     BASIS   MCVARS     RHF  

 PROGRAMS   *        TOTAL      CCSD    HF-SCF       INT
 CPU TIMES  *       275.14    228.15     29.73     17.15
 REAL TIME  *       406.98 SEC
 DISK USED  *         4.75 GB
 **********************************************************************************************************************************

 Dump information in style XML to xml output                                                                      

 Orbitals will not be exported.

 **********************************************************************************************************************************

 CCSD/cc-pVTZ energy=   -226.862039936330

            CCSD          HF-SCF
   -226.86203994   -225.90545118
 **********************************************************************************************************************************
 Molpro calculation terminated
