
 Working directory              : /var/folders/2v/xbgp75_9785319ghcgb4zr4r0000gp/T//molpro.aI8C7wxQUg/
 Global scratch directory       : /var/folders/2v/xbgp75_9785319ghcgb4zr4r0000gp/T//molpro.aI8C7wxQUg/
 Wavefunction directory         : /Users/sacpjk/wfu/
 Main file repository           : /var/folders/2v/xbgp75_9785319ghcgb4zr4r0000gp/T//molpro.aI8C7wxQUg/

 id        : peterk

 Nodes                        nprocs
 Cardiff-University-G34YLXT77Y    1
 GA implementation: MPI file
 GA implementation (serial work in mppx): MPI file

 Using customized tuning parameters: mindgm=1; mindgv=20; mindgc=4; mindgr=1; noblas=0; minvec=7
 default implementation of scratch files=df  


 Variables initialized (1032), CPU time= 0.00 sec
 
 symmetry,nosym
 
 
 geometry={
            6
     C          0.66348224      0.00000000      0.00000000
     H          1.23462407     -0.92253583      0.00000000
     H          1.23462407      0.92253583      0.00000000
     C         -0.66348224      0.00000000      0.00000000
     H         -1.23462407     -0.92253583      0.00000000
     H         -1.23462407      0.92253583      0.00000000
 }
 basis=cc-pVTZ
 
 
 
 hf; mp3
 
 
 
 {put,xml;noorbitals,nobasis}
 Commands initialized (841), CPU time= 0.00 sec, 704 directives.
 Default parameters read. Elapsed time= 0.70 sec

 Checking input...
 Passed
1


                                         ***  PROGRAM SYSTEM MOLPRO  ***
                                       Copyright, TTI GmbH Stuttgart, 2015
                                    Version 2023.1 linked Tue Jun  6 09:54:11 2023


 **********************************************************************************************************************************
 LABEL *                                                                                                                                                                 
  64 bit serial version                                                                  DATE: 10-Jun-23          TIME: 16:28:45  
 **********************************************************************************************************************************

 SHA1:             8ebb0dd001088a5c915591db1a321413035db0b1
 **********************************************************************************************************************************

 Memory per process:       805 MW
 Total memory per node:   1074 MW
 Total GA space:           268 MW

 GA preallocation disabled
 GA check enabled

 Variable memory set to 805.3 MW

 ZSYMEL=NOSYM


 Geometry recognized as XYZ

 SETTING BASIS          =    CC-PVTZ


 Recomputing integrals since basis changed


 Using spherical harmonics

 Library entry C      S cc-pVTZ              selected for orbital group  1
 Library entry C      P cc-pVTZ              selected for orbital group  1
 Library entry C      D cc-pVTZ              selected for orbital group  1
 Library entry C      F cc-pVTZ              selected for orbital group  1
 Library entry H      S cc-pVTZ              selected for orbital group  2
 Library entry H      P cc-pVTZ              selected for orbital group  2
 Library entry H      D cc-pVTZ              selected for orbital group  2


 PROGRAM * SEWARD (Integral evaluation for generally contracted gaussian basis sets)     Author: Roland Lindh, 1990

 Geometry written to block  1 of record 700


 Point group  C1  



 ATOMIC COORDINATES

 NR  ATOM    CHARGE       X              Y              Z

   1  C       6.00    1.253799722    0.000000000    0.000000000
   2  H       1.00    2.333101359   -1.743340059    0.000000000
   3  H       1.00    2.333101359    1.743340059    0.000000000
   4  C       6.00   -1.253799722    0.000000000    0.000000000
   5  H       1.00   -2.333101359   -1.743340059    0.000000000
   6  H       1.00   -2.333101359    1.743340059    0.000000000

 Bond lengths in Bohr (Angstrom)

 1-2  2.050396690  1-3  2.050396690  1-4  2.507599444  4-5  2.050396690  4-6  2.050396690
     ( 1.085023201)     ( 1.085023201)     ( 1.326964480)     ( 1.085023201)     ( 1.085023201)

 Bond angles

  1-4-5  121.76164516   1-4-6  121.76164516   2-1-3  116.47670967   2-1-4  121.76164516

  3-1-4  121.76164516   5-4-6  116.47670967

 NUCLEAR CHARGE:                   16
 NUMBER OF PRIMITIVE AOS:         162
 NUMBER OF SYMMETRY AOS:          148
 NUMBER OF CONTRACTIONS:          116   (  116A   )
 NUMBER OF INNER CORE ORBITALS:     0   (    0A   )
 NUMBER OF OUTER CORE ORBITALS:     2   (    2A   )
 NUMBER OF VALENCE ORBITALS:       12   (   12A   )


 NUCLEAR REPULSION ENERGY   33.42486081

 EXTRA SYMMETRY OF AOS IN SYMMETRY 1:   1 1 1 1 1 1 2 1 1 2   1 1 2 1 1 2 1 2 1 1   2 1 2 1 1 2 1 2 1 2   1 1 1 1 1 2 1 1 2 1
                                        1 2 1 2 1 1 1 1 1 2   1 1 2 1 1 2 1 2 1 1   1 1 1 1 2 1 1 2 1 1   2 1 1 2 1 2 1 1 2 1
                                        2 1 1 2 1 2 1 2 1 1   1 1 1 2 1 1 2 1 1 2   1 2 1 1 1 1 1 2 1 1   2 1 1 2 1 2

 Eigenvalues of metric

         1 0.794E-03 0.104E-02 0.141E-02 0.145E-02 0.155E-02 0.214E-02 0.379E-02 0.542E-02


 Contracted 2-electron integrals neglected if value below      1.0D-11
 AO integral compression algorithm  1   Integral accuracy      1.0D-11

     59.245 MB (compressed) written to integral file ( 27.7%)


 NUMBER OF SORTED TWO-ELECTRON INTEGRALS:   23028291.     BUFFER LENGTH:  32768
 NUMBER OF SEGMENTS:   2  SEGMENT LENGTH:   15997996      RECORD LENGTH: 524288

 Memory used in sort:      16.56 MW

 SORT1 READ    26809059. AND WROTE    11140524. INTEGRALS IN     32 RECORDS. CPU TIME:     0.15 SEC, REAL TIME:     0.18 SEC
 SORT2 READ    11140524. AND WROTE    23028291. INTEGRALS IN    226 RECORDS. CPU TIME:     0.17 SEC, REAL TIME:     0.20 SEC

 FILE SIZES:   FILE 1:    89.8 MBYTE,  FILE 4:   134.3 MBYTE,   TOTAL:    224.1 MBYTE

 OPERATOR DM      FOR CENTER  0  COORDINATES:    0.000000    0.000000    0.000000


 **********************************************************************************************************************************
 DATASETS  * FILE   NREC   LENGTH (MB)   RECORD NAMES
              1      19       77.25       500      610      700      900      950      970     1000      129      960     1100   
                                          VAR    BASINP    GEOM    SYMINP    ZMAT    AOBASIS   BASIS     P2S    ABASIS      S 
                                         1400     1410     1200     1210     1080     1600     1650     1300     1700   
                                           T        V       H0       H01     AOSYM     SMH    MOLCAS    ERIS     OPER   

 PROGRAMS   *        TOTAL       INT
 CPU TIMES  *         1.02      0.92
 REAL TIME  *         5.83 SEC
 DISK USED  *       214.15 MB
 **********************************************************************************************************************************


 Program * Restricted Hartree-Fock

 Orbital guess generated from atomic densities. Full valence occupancy:   14

 Initial occupancy:   8

 NELEC=   16   SYM=1   MS2= 0   THRE=1.0D-08   THRD=3.2D-06   THRG=3.2D-06  HFMA2=F  DIIS_START=2   DIIS_MAX=10   DIIS_INCORE=F

 Level shifts:    0.00 (CLOSED)    0.00 (OPEN)    0.30 (GAP_MIN)

 ITER           ETOT              DE          GRAD        DDIFF     DIIS  NEXP   TIME(IT)  TIME(TOT)  DIAG
   1      -78.04046687     -78.04046687     0.00D+00     0.67D-01     0     0       0.10      0.19    start
   2      -78.06131496      -0.02084808     0.43D-02     0.59D-02     1     0       0.10      0.29    diag
   3      -78.06357214      -0.00225719     0.15D-02     0.15D-02     2     0       0.10      0.39    diag
   4      -78.06387116      -0.00029901     0.43D-03     0.58D-03     3     0       0.10      0.49    diag
   5      -78.06387516      -0.00000401     0.47D-04     0.82D-04     4     0       0.09      0.58    diag
   6      -78.06387527      -0.00000010     0.70D-05     0.15D-04     5     0       0.10      0.68    diag
   7      -78.06387527      -0.00000000     0.13D-05     0.30D-05     6     0       0.09      0.77    diag
   8      -78.06387527      -0.00000000     0.17D-06     0.25D-06     0     0       0.10      0.87    fixocc

 Final occupancy:   8

 !RHF STATE 1.1 Energy                -78.063875270555
  RHF One-electron energy            -170.191306377879
  RHF Two-electron energy              58.702570298658
  RHF Kinetic energy                   77.933915433214
  RHF Nuclear energy                   33.424860808665
  RHF Virial quotient                  -1.001667564585

 !RHF STATE 1.1 Dipole moment          -0.00000000    -0.00000000    -0.00000000
 Dipole moment /Debye                  -0.00000000    -0.00000000    -0.00000000

 Orbital energies:

           1.1          2.1          3.1          4.1          5.1          6.1          7.1          8.1          9.1         10.1
    -11.229490   -11.227723    -1.033727    -0.790808    -0.641083    -0.588433    -0.503964    -0.377854     0.153086     0.159125


 HOMO      8.1    -0.377854 =     -10.2819eV
 LUMO      9.1     0.153086 =       4.1657eV
 LUMO-HOMO         0.530941 =      14.4476eV

 Orbitals saved in record  2100.2


 **********************************************************************************************************************************
 DATASETS  * FILE   NREC   LENGTH (MB)   RECORD NAMES
              1      19       77.25       500      610      700      900      950      970     1000      129      960     1100   
                                          VAR    BASINP    GEOM    SYMINP    ZMAT    AOBASIS   BASIS     P2S    ABASIS      S 
                                         1400     1410     1200     1210     1080     1600     1650     1300     1700   
                                           T        V       H0       H01     AOSYM     SMH    MOLCAS    ERIS     OPER   

              2       4        0.68       700     1000      520     2100   
                                         GEOM     BASIS   MCVARS     RHF  

 PROGRAMS   *        TOTAL    HF-SCF       INT
 CPU TIMES  *         1.89      0.88      0.92
 REAL TIME  *         7.44 SEC
 DISK USED  *       214.15 MB
 **********************************************************************************************************************************


 PROGRAM * MP3 (Closed-shell)     Authors: C. Hampel, H.-J. Werner, 1991, M. Deegan, P.J. Knowles, 1992


 Convergence thresholds:  THRVAR = 1.00D-08  THRDEN = 1.00D-06

 Number of core orbitals:           2 (   2 )
 Number of closed-shell orbitals:   6 (   6 )
 Number of external orbitals:     108 ( 108 )

 Molecular orbitals read from record     2100.2  Type=RHF/CANONICAL  

 Number of N-1 electron functions:               6
 Number of N-2 electron functions:              21
 Number of singly external CSFs:               648
 Number of doubly external CSFs:            210276
 Total number of CSFs:                      210925

 Length of J-op  integral file:               0.00 MB
 Length of K-op  integral file:               0.99 MB

 Integral transformation finished. Total CPU:   0.12 sec, npass=  1  Memory used:   0.76 MW

 Reference energy:                    -78.06387527

                        CORR.ENERGY   TOTAL ENERGY   ENERGY CHANGE
 MP2:                   -0.33532475   -78.39920002    -0.33532475

 SCS-MP2 correlation energy:           -0.34096981   (PS=  1.200000  PT=  0.333333)
 SCS-MP2 total energy:                -78.40484508

 MP3(D):                -0.35758493   -78.42146020    -0.02226018



 RESULTS
 =======

  Reference energy                    -78.063875270555
  MP3 singlet pair energy              -0.255256423287
  MP3 triplet pair energy              -0.102328505450
  MP3 correlation energy               -0.357584928737

 !MP3 total energy                    -78.421460199293

 Timing summary (sec):

 STEP                 CPU(USER)    SYS     CPU(TOT)    WALL
 Transformation          0.12      0.00      0.12      0.32
 CCSD iterations         2.20      0.02      2.22      0.51

 Program statistics:

 Available memory in ccsd:               805306216
 Min. memory needed in ccsd:                741753
 Max. memory used in ccsd:                  906609
 Max. memory used in cckext:                673852 ( 1 integral passes)



 **********************************************************************************************************************************
 DATASETS  * FILE   NREC   LENGTH (MB)   RECORD NAMES
              1      20       80.70       500      610      700      900      950      970     1000      129      960     1100   
                                          VAR    BASINP    GEOM    SYMINP    ZMAT    AOBASIS   BASIS     P2S    ABASIS      S 
                                         1400     1410     1200     1210     1080     1600     1650     1300     1700     1380   
                                           T        V       H0       H01     AOSYM     SMH    MOLCAS    ERIS     OPER     JKOP   

              2       4        0.68       700     1000      520     2100   
                                         GEOM     BASIS   MCVARS     RHF  

 PROGRAMS   *        TOTAL       MP3    HF-SCF       INT
 CPU TIMES  *         2.23      0.34      0.88      0.92
 REAL TIME  *         8.73 SEC
 DISK USED  *       214.15 MB
 **********************************************************************************************************************************

 Dump information in style XML to xml output                                                                      

 Orbitals will not be exported.

 **********************************************************************************************************************************

 MP3/cc-pVTZ energy=    -78.421460199293

             MP3          HF-SCF
    -78.42146020    -78.06387527
 **********************************************************************************************************************************
 Molpro calculation terminated
