
 Working directory              : /var/folders/2v/xbgp75_9785319ghcgb4zr4r0000gp/T//molpro.kpCQwNq3aI/
 Global scratch directory       : /var/folders/2v/xbgp75_9785319ghcgb4zr4r0000gp/T//molpro.kpCQwNq3aI/
 Wavefunction directory         : /Users/sacpjk/wfu/
 Main file repository           : /var/folders/2v/xbgp75_9785319ghcgb4zr4r0000gp/T//molpro.kpCQwNq3aI/

 id        : peterk

 Nodes                        nprocs
 Cardiff-University-G34YLXT77Y    1
 GA implementation: MPI file
 GA implementation (serial work in mppx): MPI file

 Using customized tuning parameters: mindgm=1; mindgv=20; mindgc=4; mindgr=1; noblas=0; minvec=7
 default implementation of scratch files=df  


 Variables initialized (1032), CPU time= 0.00 sec
 
 symmetry,nosym
 
 
 geometry={
           17
     H         -0.53886696     -2.24361845      1.32579347
     C         -0.65877300     -1.36818713      0.70008825
     H         -0.79608205      1.84165501      0.00000000
     C         -0.65877300     -0.04467066      1.15549741
     C         -0.65877300     -1.36818713     -0.70008825
     H         -2.23230656      0.80012564      0.00000000
     C         -1.13085017      0.80520364      0.00000000
     C          1.44099175      0.52019454      0.69489525
     H         -0.78769605      0.24265144      2.19170778
     C          1.44099175      0.52019454     -0.69489525
     H         -0.53886696     -2.24361845     -1.32579347
     C         -0.65877300     -0.04467066     -1.15549741
     H         -0.78769605      0.24265144     -2.19170778
     H          1.37100572      1.45640087     -1.23647844
     H          1.91173092     -0.28626275      1.24115144
     H          1.37100572      1.45640087      1.23647844
     H          1.91173092     -0.28626275     -1.24115144
 }
 basis=cc-pVTZ
 
 
 
 hf; ccsd(t)
 
 
 
 {put,xml;noorbitals,nobasis}
 Commands initialized (841), CPU time= 0.00 sec, 704 directives.
 Default parameters read. Elapsed time= 0.85 sec

 Checking input...
 Passed
1


                                         ***  PROGRAM SYSTEM MOLPRO  ***
                                       Copyright, TTI GmbH Stuttgart, 2015
                                    Version 2023.1 linked Tue Jun  6 09:54:11 2023


 **********************************************************************************************************************************
 LABEL *                                                                                                                                                                 
  64 bit serial version                                                                  DATE: 12-Jun-23          TIME: 00:01:56  
 **********************************************************************************************************************************

 SHA1:             8ebb0dd001088a5c915591db1a321413035db0b1
 **********************************************************************************************************************************

 Memory per process:       393 MW
 Total memory per node:    524 MW
 Total GA space:           131 MW

 GA preallocation disabled
 GA check enabled

 Variable memory set to 393.2 MW

 ZSYMEL=NOSYM


 Geometry recognized as XYZ

 SETTING BASIS          =    CC-PVTZ


 Recomputing integrals since basis changed


 Using spherical harmonics

 Library entry H      S cc-pVTZ              selected for orbital group  1
 Library entry H      P cc-pVTZ              selected for orbital group  1
 Library entry H      D cc-pVTZ              selected for orbital group  1
 Library entry C      S cc-pVTZ              selected for orbital group  2
 Library entry C      P cc-pVTZ              selected for orbital group  2
 Library entry C      D cc-pVTZ              selected for orbital group  2
 Library entry C      F cc-pVTZ              selected for orbital group  2


 PROGRAM * SEWARD (Integral evaluation for generally contracted gaussian basis sets)     Author: Roland Lindh, 1990

 Geometry written to block  1 of record 700


 Point group  C1  



 ATOMIC COORDINATES

 NR  ATOM    CHARGE       X              Y              Z

   1  H       1.00   -1.018310972   -4.239824399    2.505386556
   2  C       6.00   -1.244900548   -2.585498963    1.322975056
   3  H       1.00   -1.504377047    3.480223585    0.000000000
   4  C       6.00   -1.244900548   -0.084415313    2.183573643
   5  C       6.00   -1.244900548   -2.585498963   -1.322975056
   6  H       1.00   -4.218448025    1.512018325    0.000000000
   7  C       6.00   -2.136997109    1.521614354    0.000000000
   8  C       6.00    2.723079755    0.983025212    1.313161708
   9  H       1.00   -1.488529804    0.458544765    4.141727449
  10  C       6.00    2.723079755    0.983025212   -1.313161708
  11  H       1.00   -1.018310972   -4.239824399   -2.505386556
  12  C       6.00   -1.244900548   -0.084415313   -2.183573643
  13  H       1.00   -1.488529804    0.458544765   -4.141727449
  14  H       1.00    2.590825326    2.752198772   -2.336605611
  15  H       1.00    3.612647863   -0.540958197    2.345436301
  16  H       1.00    2.590825326    2.752198772    2.336605611
  17  H       1.00    3.612647863   -0.540958197   -2.345436301

 Bond lengths in Bohr (Angstrom)

 1-2  2.046028455  2-4  2.645004603  2-5  2.645950111  3-7  2.058241546  4-7  2.853622508
     ( 1.082711631)     ( 1.399676159)     ( 1.400176500)     ( 1.089174521)     ( 1.510072000)

  4- 9  2.046589161   5-11  2.046028455   5-12  2.645004603   6- 7  2.081473035   7-12  2.853622508
       ( 1.083008344)       ( 1.082711631)       ( 1.399676159)       ( 1.101468095)       ( 1.510072000)

  8-10  2.626323416   8-15  2.044369752   8-16  2.048146416  10-14  2.048146416  10-17  2.044369752
       ( 1.389790500)       ( 1.081833884)       ( 1.083832408)       ( 1.083832408)       ( 1.081833884)

 12-13  2.046589161
       ( 1.083008344)

 Bond angles

  1-2-4  125.20666436   1-2-5  125.30337494   2-4-7  106.45195306   2-4-9  124.20616870

  2- 5-11  125.30337494   2- 5-12  108.98784253   3- 7- 4  116.07032774   3- 7- 6  108.16431920

  3- 7-12  116.07032774   4- 2- 5  108.98784253   4- 7- 6  108.06049694   4- 7-12   99.84843487

  5-12- 7  106.45195306   5-12-13  124.20616870   6- 7-12  108.06049694   7- 4- 9  123.06582705

  7-12-13  123.06582705   8-10-14  119.97967419   8-10-17  120.32706203  10- 8-15  120.32706203

 10- 8-16  119.97967419  11- 5-12  125.20666436  14-10-17  114.81580975  15- 8-16  114.81580975

 NUCLEAR CHARGE:                   52
 NUMBER OF PRIMITIVE AOS:         499
 NUMBER OF SYMMETRY AOS:          454
 NUMBER OF CONTRACTIONS:          350   (  350A   )
 NUMBER OF INNER CORE ORBITALS:     0   (    0A   )
 NUMBER OF OUTER CORE ORBITALS:     7   (    7A   )
 NUMBER OF VALENCE ORBITALS:       38   (   38A   )


 NUCLEAR REPULSION ENERGY  294.82376202


 Eigenvalues of metric

         1 0.103E-03 0.287E-03 0.296E-03 0.637E-03 0.739E-03 0.740E-03 0.958E-03 0.978E-03


 Contracted 2-electron integrals neglected if value below      1.0D-11
 AO integral compression algorithm  1   Integral accuracy      1.0D-11

     6273.368 MB (compressed) written to integral file ( 40.0%)


 NUMBER OF SORTED TWO-ELECTRON INTEGRALS: 1886546025.     BUFFER LENGTH:  32768
 NUMBER OF SEGMENTS:  59  SEGMENT LENGTH:   31999951      RECORD LENGTH: 524288

 Memory used in sort:      32.56 MW

 SORT1 READ  1959158496. AND WROTE  1635555135. INTEGRALS IN   4713 RECORDS. CPU TIME:    16.98 SEC, REAL TIME:    23.24 SEC
 SORT2 READ  1635555135. AND WROTE  1886546025. INTEGRALS IN  23931 RECORDS. CPU TIME:    10.76 SEC, REAL TIME:    23.04 SEC

 FILE SIZES:   FILE 1:  6308.2 MBYTE,  FILE 4: 19767.8 MBYTE,   TOTAL:  26076.0 MBYTE

 OPERATOR DM      FOR CENTER  0  COORDINATES:    0.000000    0.000000    0.000000


 **********************************************************************************************************************************
 DATASETS  * FILE   NREC   LENGTH (MB)   RECORD NAMES
              1      19     5646.67       500      610      700      900      950      970     1000      129      960     1100   
                                          VAR    BASINP    GEOM    SYMINP    ZMAT    AOBASIS   BASIS     P2S    ABASIS      S 
                                         1400     1410     1200     1210     1080     1600     1650     1300     1700   
                                           T        V       H0       H01     AOSYM     SMH    MOLCAS    ERIS     OPER   

 PROGRAMS   *        TOTAL       INT
 CPU TIMES  *        71.23     71.13
 REAL TIME  *        98.25 SEC
 DISK USED  *        24.29 GB
 **********************************************************************************************************************************


 Program * Restricted Hartree-Fock

 Orbital guess generated from atomic densities. Full valence occupancy:   45

 Initial occupancy:  26

 NELEC=   52   SYM=1   MS2= 0   THRE=1.0D-08   THRD=3.2D-06   THRG=3.2D-06  HFMA2=F  DIIS_START=2   DIIS_MAX=10   DIIS_INCORE=F

 Level shifts:    0.00 (CLOSED)    0.00 (OPEN)    0.30 (GAP_MIN)

 ITER           ETOT              DE          GRAD        DDIFF     DIIS  NEXP   TIME(IT)  TIME(TOT)  DIAG
   1     -270.77135401    -270.77135401     0.00D+00     0.39D-01     0     0       9.13     17.26    start
   2     -270.84016298      -0.06880898     0.25D-02     0.38D-02     1     0       9.27     26.53    diag
   3     -270.85069458      -0.01053159     0.11D-02     0.13D-02     2     0       9.52     36.05    diag
   4     -270.85237778      -0.00168320     0.35D-03     0.52D-03     3     0       9.16     45.21    diag
   5     -270.85242897      -0.00005119     0.54D-04     0.10D-03     4     0       9.24     54.45    diag
   6     -270.85243958      -0.00001062     0.24D-04     0.40D-04     5     0       9.07     63.52    diag
   7     -270.85244203      -0.00000244     0.77D-05     0.17D-04     6     0       9.32     72.84    diag
   8     -270.85244285      -0.00000082     0.38D-05     0.95D-05     7     0       9.47     82.31    fixocc
   9     -270.85244302      -0.00000016     0.16D-05     0.48D-05     8     0       9.22     91.53    diag
  10     -270.85244303      -0.00000002     0.64D-06     0.16D-05     9     0       9.19    100.72    diag/orth
  11     -270.85244303      -0.00000000     0.22D-06     0.54D-06     9     0       9.34    110.06    diag
  12     -270.85244303      -0.00000000     0.79D-07     0.15D-06     0     0       8.91    118.97    diag

 Final occupancy:  26

 !RHF STATE 1.1 Energy               -270.852443034491
  RHF One-electron energy            -949.373495223322
  RHF Two-electron energy             383.697290172677
  RHF Kinetic energy                  270.419592043950
  RHF Nuclear energy                  294.823762016155
  RHF Virial quotient                  -1.001600664313

 !RHF STATE 1.1 Dipole moment          -0.11045518     0.10265141    -0.00000000
 Dipole moment /Debye                  -0.28074906     0.26091386    -0.00000000

 Orbital energies:

           1.1          2.1          3.1          4.1          5.1          6.1          7.1          8.1          9.1         10.1
    -11.239518   -11.239503   -11.226706   -11.219993   -11.218741   -11.218032   -11.216848    -1.154176    -1.008497    -0.954692

          11.1         12.1         13.1         14.1         15.1         16.1         17.1         18.1         19.1         20.1
     -0.951520    -0.786726    -0.758373    -0.716384    -0.692797    -0.626817    -0.595533    -0.562662    -0.540163    -0.523591

          21.1         22.1         23.1         24.1         25.1         26.1         27.1         28.1
     -0.517052    -0.502261    -0.482189    -0.432854    -0.302867    -0.300963     0.124636     0.141950


 HOMO     26.1    -0.300963 =      -8.1896eV
 LUMO     27.1     0.124636 =       3.3915eV
 LUMO-HOMO         0.425599 =      11.5811eV

 Orbitals saved in record  2100.2


 **********************************************************************************************************************************
 DATASETS  * FILE   NREC   LENGTH (MB)   RECORD NAMES
              1      19     5646.67       500      610      700      900      950      970     1000      129      960     1100   
                                          VAR    BASINP    GEOM    SYMINP    ZMAT    AOBASIS   BASIS     P2S    ABASIS      S 
                                         1400     1410     1200     1210     1080     1600     1650     1300     1700   
                                           T        V       H0       H01     AOSYM     SMH    MOLCAS    ERIS     OPER   

              2       4        2.57       700     1000      520     2100   
                                         GEOM     BASIS   MCVARS     RHF  

 PROGRAMS   *        TOTAL    HF-SCF       INT
 CPU TIMES  *       190.20    118.97     71.13
 REAL TIME  *       232.27 SEC
 DISK USED  *        24.29 GB
 **********************************************************************************************************************************


 PROGRAM * CCSD (Closed-shell coupled cluster)     Authors: C. Hampel, H.-J. Werner, 1991, M. Deegan, P.J. Knowles, 1992


 Convergence thresholds:  THRVAR = 1.00D-08  THRDEN = 1.00D-06

 CCSD(T)     terms to be evaluated (factor= 1.000)


 Number of core orbitals:           7 (   7 )
 Number of closed-shell orbitals:  19 (  19 )
 Number of external orbitals:     324 ( 324 )

 Molecular orbitals read from record     2100.2  Type=RHF/CANONICAL  

 Number of N-1 electron functions:              19
 Number of N-2 electron functions:             190
 Number of singly external CSFs:              6156
 Number of doubly external CSFs:          18951246
 Total number of CSFs:                    18957403

 Length of J-op  integral file:               0.00 MB
 Length of K-op  integral file:               8.47 MB
 Length of 3-ext integral record:             0.00 MB

 For full I/O caching in triples, increase memory by 383.76 Mwords to 777.03 Mwords.

 Multipassing necessary in transformation. To avoid, increase memory by 76.62 Mwords.

 Integral transformation finished. Total CPU:  97.16 sec, npass=  2  Memory used: 371.52 MW

 Reference energy:                   -270.85244303

 MP2 singlet pair energy:              -0.75748118
 MP2 triplet pair energy:              -0.44008055
 MP2 correlation energy:               -1.19756173
 MP2 total energy:                   -272.05000477

 SCS-MP2 correlation energy:           -1.18280532   (PS=  1.200000  PT=  0.333333)
 SCS-MP2 total energy:               -272.03524835

 ITER.      SQ.NORM     CORR.ENERGY   TOTAL ENERGY   ENERGY CHANGE        DEN1      VAR(S)    VAR(P)  DIIS     TIME  TIME/IT
   1      1.41170948    -1.22395399  -272.07639703    -0.02639226     0.00731443  0.46D-02  0.10D-01  1  1   447.91   143.14
   2      1.44192842    -1.22809079  -272.08053382    -0.00413679    -0.03024492  0.77D-04  0.11D-02  2  2   626.54   152.32
   3      1.45295888    -1.22809158  -272.08053461    -0.00000079    -0.00596045  0.31D-04  0.10D-03  3  3   815.04   159.45
   4      1.45709340    -1.22821706  -272.08066010    -0.00012549    -0.00133679  0.27D-05  0.17D-04  4  4  1005.84   163.26
   5      1.45871239    -1.22826992  -272.08071296    -0.00005286    -0.00040324  0.37D-06  0.19D-05  5  5  1197.56   165.69
   6      1.45913799    -1.22825802  -272.08070105     0.00001191    -0.00006261  0.43D-07  0.14D-06  6  6  1385.46   166.54
   7      1.45920037    -1.22825745  -272.08070048     0.00000057    -0.00000328  0.95D-08  0.13D-07  6  2  1577.21   167.81
   8      1.45921153    -1.22825759  -272.08070063    -0.00000015    -0.00000108  0.18D-08  0.14D-08  6  1  1758.10   167.59

 Norm of t1 vector:      0.08748317      S-energy:     0.00000079      T1 diagnostic:  0.01003501
                                                                       D1 diagnostic:  0.02886514
                                                                       D2 diagnostic:  0.19557197 (internal)

 Doubles amplitudes (print threshold =  0.500E-01):

         I         J         SYM. A    SYM. B    A         B      T(IJ, AB)

        18        18         1         1         2         2     -0.05563499
        19        19         1         1         1         1     -0.06337454

   CPU time for triples:   1997.65 sec for i =  1 - 14 / 19 (~  41.6 % done)
   CPU time for triples:   2128.47 sec for i = 15 - 18 / 19 (~  85.6 % done)
   CPU time for triples:    705.03 sec for i = 19 - 19 / 19 (  100.0 % done)

 Total CPU time for triples:   4831.15 sec


 RESULTS
 =======

  Reference energy                   -270.852443034491
  CCSD singlet pair energy             -0.836800457931
  CCSD triplet pair energy             -0.391457925722
  CCSD correlation energy              -1.228257593466

  Triples (T) contribution             -0.065659518695
  Total correlation energy             -1.293917112161

  CCSD total energy                  -272.080700627957
  CCSD[T] energy                     -272.147596500562
  CCSD-T energy                      -272.145816318380
 !CCSD(T) total energy               -272.146360146651

 Timing summary (sec):

 STEP                 CPU(USER)    SYS     CPU(TOT)    WALL
 Transformation         98.58     12.29    110.87    109.22
 CCSD iterations      1660.64     67.50   1728.14   1342.22
 Triples              4831.15    144.18   4975.33   4366.71

 Program statistics:

 Available memory in ccsd:               393214530
 Min. memory needed in ccsd:              44875798
 Max. memory used in ccsd:                62499894
 Max. memory used in cckext:              47807549 ( 8 integral passes)



 **********************************************************************************************************************************
 DATASETS  * FILE   NREC   LENGTH (MB)   RECORD NAMES
              1      20     8387.95       500      610      700      900      950      970     1000      129      960     1100   
                                          VAR    BASINP    GEOM    SYMINP    ZMAT    AOBASIS   BASIS     P2S    ABASIS      S 
                                         1400     1410     1200     1210     1080     1600     1650     1300     1700     1380   
                                           T        V       H0       H01     AOSYM     SMH    MOLCAS    ERIS     OPER     JKOP   

              2       4        2.57       700     1000      520     2100   
                                         GEOM     BASIS   MCVARS     RHF  

 PROGRAMS   *        TOTAL   CCSD(T)    HF-SCF       INT
 CPU TIMES  *      6590.26   6400.05    118.97     71.13
 REAL TIME  *      6050.97 SEC
 DISK USED  *        24.29 GB
 **********************************************************************************************************************************

 Dump information in style XML to xml output                                                                      

 Orbitals will not be exported.

 **********************************************************************************************************************************

 CCSD(T)/cc-pVTZ energy=   -272.146360146651

         CCSD(T)          HF-SCF
   -272.14636015   -270.85244303
 **********************************************************************************************************************************
 Molpro calculation terminated
