
 Working directory              : /var/folders/2v/xbgp75_9785319ghcgb4zr4r0000gp/T//molpro.Jz5c3SaOL3/
 Global scratch directory       : /var/folders/2v/xbgp75_9785319ghcgb4zr4r0000gp/T//molpro.Jz5c3SaOL3/
 Wavefunction directory         : /Users/sacpjk/wfu/
 Main file repository           : /var/folders/2v/xbgp75_9785319ghcgb4zr4r0000gp/T//molpro.Jz5c3SaOL3/

 id        : peterk

 Nodes                        nprocs
 Cardiff-University-G34YLXT77Y    1
 GA implementation: MPI file
 GA implementation (serial work in mppx): MPI file

 Using customized tuning parameters: mindgm=1; mindgv=20; mindgc=4; mindgr=1; noblas=0; minvec=7
 default implementation of scratch files=df  


 Variables initialized (1032), CPU time= 0.00 sec
 
 symmetry,nosym
 
 
 geometry={
           17
     H         -1.57581686     -1.69737749     -1.32881847
     C         -0.77642057     -1.31318135     -0.70291125
     H          1.97027941      0.35737124      0.00000000
     C          0.32626482     -0.58359509     -1.15742741
     C         -0.77642057     -1.31318135      0.70291125
     H          1.90993739     -1.41640139      0.00000000
     C          1.29420317     -0.50010806      0.00000000
     C         -0.36429442      1.50586765     -0.69397025
     H          0.63966393     -0.53049407     -2.19544478
     C         -0.36429442      1.50586765      0.69397025
     H         -1.57581686     -1.69737749      1.32881847
     C          0.32626482     -0.58359509      1.15742741
     H          0.63966393     -0.53049407      2.19544478
     H          0.46023787      1.95412681      1.24117344
     H         -1.29684476      1.44422263     -1.24394044
     H          0.46023787      1.95412681     -1.24117344
     H         -1.29684476      1.44422263      1.24394044
 }
 basis=cc-pVTZ
 
 
 
 hf
 
 
 
 {put,xml;noorbitals,nobasis}
 Commands initialized (841), CPU time= 0.00 sec, 704 directives.
 Default parameters read. Elapsed time= 2.35 sec

 Checking input...
 Passed
1


                                         ***  PROGRAM SYSTEM MOLPRO  ***
                                       Copyright, TTI GmbH Stuttgart, 2015
                                    Version 2023.1 linked Tue Jun  6 09:54:11 2023


 **********************************************************************************************************************************
 LABEL *                                                                                                                                                                 
  64 bit serial version                                                                  DATE: 10-Jun-23          TIME: 14:48:46  
 **********************************************************************************************************************************

 SHA1:             8ebb0dd001088a5c915591db1a321413035db0b1
 **********************************************************************************************************************************

 Memory per process:       805 MW
 Total memory per node:   1074 MW
 Total GA space:           268 MW

 GA preallocation disabled
 GA check enabled

 Variable memory set to 805.3 MW

 ZSYMEL=NOSYM


 Geometry recognized as XYZ

 SETTING BASIS          =    CC-PVTZ


 Recomputing integrals since basis changed


 Using spherical harmonics

 Library entry H      S cc-pVTZ              selected for orbital group  1
 Library entry H      P cc-pVTZ              selected for orbital group  1
 Library entry H      D cc-pVTZ              selected for orbital group  1
 Library entry C      S cc-pVTZ              selected for orbital group  2
 Library entry C      P cc-pVTZ              selected for orbital group  2
 Library entry C      D cc-pVTZ              selected for orbital group  2
 Library entry C      F cc-pVTZ              selected for orbital group  2


 PROGRAM * SEWARD (Integral evaluation for generally contracted gaussian basis sets)     Author: Roland Lindh, 1990

 Geometry written to block  1 of record 700


 Point group  C1  



 ATOMIC COORDINATES

 NR  ATOM    CHARGE       X              Y              Z

   1  H       1.00   -2.977862288   -3.207578586   -2.511102978
   2  C       6.00   -1.467222235   -2.481553103   -1.328309752
   3  H       1.00    3.723288474    0.675333768    0.000000000
   4  C       6.00    0.616551154   -1.102834888   -2.187220814
   5  C       6.00   -1.467222235   -2.481553103    1.328309752
   6  H       1.00    3.609258582   -2.676610710    0.000000000
   7  C       6.00    2.445689541   -0.945067266    0.000000000
   8  C       6.00   -0.688416683    2.845677438   -1.311413711
   9  H       1.00    1.208789640   -1.002488503   -4.148789356
  10  C       6.00   -0.688416683    2.845677438    1.311413711
  11  H       1.00   -2.977862288   -3.207578586    2.511102978
  12  C       6.00    0.616551154   -1.102834888    2.187220814
  13  H       1.00    1.208789640   -1.002488503    4.148789356
  14  H       1.00    0.869723526    3.692764484    2.345477875
  15  H       1.00   -2.450681423    2.729185234   -2.350706747
  16  H       1.00    0.869723526    3.692764484   -2.345477875
  17  H       1.00   -2.450681423    2.729185234    2.350706747

 Bond lengths in Bohr (Angstrom)

 1-2  2.051376656  2-4  2.642102130  2-5  2.656619505  3-7  2.063482141  4-7  2.855621255
     ( 1.085541777)     ( 1.398140236)     ( 1.405822500)     ( 1.091947724)     ( 1.511129691)

  4- 9  2.051479214   5-11  2.051376656   5-12  2.642102130   6- 7  2.086177272   7-12  2.855621255
       ( 1.085596049)       ( 1.085541777)       ( 1.398140236)       ( 1.103957470)       ( 1.511129691)

  8-10  2.622827422   8-15  2.049213864   8-16  2.052960318  10-14  2.052960318  10-17  2.049213864
       ( 1.387940500)       ( 1.084397277)       ( 1.086379815)       ( 1.086379815)       ( 1.084397277)

 12-13  2.051479214
       ( 1.085596049)

 Bond angles

  1-2-4  125.31223396   1-2-5  125.21071383   2-4-7  106.55978807   2-4-9  124.33608344

  2- 5-11  125.21071383   2- 5-12  108.97080023   3- 7- 4  116.10216759   3- 7- 6  107.84566488

  3- 7-12  116.10216759   4- 2- 5  108.97080023   4- 7- 6  108.14396612   4- 7-12   99.98052547

  5-12- 7  106.55978807   5-12-13  124.33608344   6- 7-12  108.14396612   7- 4- 9  123.00741297

  7-12-13  123.00741297   8-10-14  120.24470742   8-10-17  120.47528874  10- 8-15  120.47528874

 10- 8-16  120.24470742  11- 5-12  125.31223396  14-10-17  114.87838460  15- 8-16  114.87838460

 NUCLEAR CHARGE:                   52
 NUMBER OF PRIMITIVE AOS:         499
 NUMBER OF SYMMETRY AOS:          454
 NUMBER OF CONTRACTIONS:          350   (  350A   )
 NUMBER OF INNER CORE ORBITALS:     0   (    0A   )
 NUMBER OF OUTER CORE ORBITALS:     7   (    7A   )
 NUMBER OF VALENCE ORBITALS:       38   (   38A   )


 NUCLEAR REPULSION ENERGY  293.87097840


 Eigenvalues of metric

         1 0.104E-03 0.288E-03 0.299E-03 0.650E-03 0.747E-03 0.756E-03 0.968E-03 0.988E-03


 Contracted 2-electron integrals neglected if value below      1.0D-11
 AO integral compression algorithm  1   Integral accuracy      1.0D-11

     6341.788 MB (compressed) written to integral file ( 40.5%)


 NUMBER OF SORTED TWO-ELECTRON INTEGRALS: 1886546025.     BUFFER LENGTH:  32768
 NUMBER OF SEGMENTS:  59  SEGMENT LENGTH:   31999951      RECORD LENGTH: 524288

 Memory used in sort:      32.56 MW

 SORT1 READ  1957803707. AND WROTE  1647659221. INTEGRALS IN   4741 RECORDS. CPU TIME:    17.24 SEC, REAL TIME:    28.30 SEC
 SORT2 READ  1647659221. AND WROTE  1886546025. INTEGRALS IN  24192 RECORDS. CPU TIME:    10.75 SEC, REAL TIME:    42.52 SEC

 FILE SIZES:   FILE 1:  6376.6 MBYTE,  FILE 4: 19885.3 MBYTE,   TOTAL:  26261.8 MBYTE

 OPERATOR DM      FOR CENTER  0  COORDINATES:    0.000000    0.000000    0.000000


 **********************************************************************************************************************************
 DATASETS  * FILE   NREC   LENGTH (MB)   RECORD NAMES
              1      19     5706.51       500      610      700      900      950      970     1000      129      960     1100   
                                          VAR    BASINP    GEOM    SYMINP    ZMAT    AOBASIS   BASIS     P2S    ABASIS      S 
                                         1400     1410     1200     1210     1080     1600     1650     1300     1700   
                                           T        V       H0       H01     AOSYM     SMH    MOLCAS    ERIS     OPER   

 PROGRAMS   *        TOTAL       INT
 CPU TIMES  *        71.22     71.13
 REAL TIME  *       143.81 SEC
 DISK USED  *        24.46 GB
 **********************************************************************************************************************************


 Program * Restricted Hartree-Fock

 Orbital guess generated from atomic densities. Full valence occupancy:   45

 Initial occupancy:  26

 NELEC=   52   SYM=1   MS2= 0   THRE=1.0D-08   THRD=3.2D-06   THRG=3.2D-06  HFMA2=F  DIIS_START=2   DIIS_MAX=10   DIIS_INCORE=F

 Level shifts:    0.00 (CLOSED)    0.00 (OPEN)    0.30 (GAP_MIN)

 ITER           ETOT              DE          GRAD        DDIFF     DIIS  NEXP   TIME(IT)  TIME(TOT)  DIAG
   1     -270.77136122    -270.77136122     0.00D+00     0.39D-01     0     0       8.75     16.53    start
   2     -270.84018394      -0.06882272     0.25D-02     0.38D-02     1     0       9.06     25.59    diag
   3     -270.85070491      -0.01052097     0.11D-02     0.13D-02     2     0       8.84     34.43    diag
   4     -270.85241780      -0.00171289     0.35D-03     0.52D-03     3     0       8.89     43.32    diag
   5     -270.85247802      -0.00006022     0.55D-04     0.11D-03     4     0       8.49     51.81    diag
   6     -270.85249237      -0.00001435     0.25D-04     0.43D-04     5     0       8.77     60.58    diag
   7     -270.85249653      -0.00000416     0.93D-05     0.21D-04     6     0       8.89     69.47    diag
   8     -270.85249784      -0.00000131     0.47D-05     0.12D-04     7     0       8.49     77.96    fixocc
   9     -270.85249803      -0.00000019     0.18D-05     0.53D-05     8     0       8.51     86.47    diag
  10     -270.85249804      -0.00000002     0.70D-06     0.16D-05     9     0       7.69     94.16    diag/orth
  11     -270.85249805      -0.00000000     0.22D-06     0.51D-06     9     0       7.73    101.89    diag
  12     -270.85249805      -0.00000000     0.77D-07     0.15D-06     0     0       8.70    110.59    diag

 Final occupancy:  26

 !RHF STATE 1.1 Energy               -270.852498046100
  RHF One-electron energy            -947.480878948261
  RHF Two-electron energy             382.757402498816
  RHF Kinetic energy                  270.363908403676
  RHF Nuclear energy                  293.870978403345
  RHF Virial quotient                  -1.001807155568

 !RHF STATE 1.1 Dipole moment           0.14809196    -0.04492810    -0.00000000
 Dipole moment /Debye                   0.37641223    -0.11419584    -0.00000000

 Orbital energies:

           1.1          2.1          3.1          4.1          5.1          6.1          7.1          8.1          9.1         10.1
    -11.239564   -11.239551   -11.227808   -11.220546   -11.219354   -11.219277   -11.218206    -1.152670    -1.008005    -0.953662

          11.1         12.1         13.1         14.1         15.1         16.1         17.1         18.1         19.1         20.1
     -0.951122    -0.785741    -0.757328    -0.716071    -0.691667    -0.625724    -0.594155    -0.563005    -0.540581    -0.522948

          21.1         22.1         23.1         24.1         25.1         26.1         27.1         28.1
     -0.516648    -0.501549    -0.482385    -0.431301    -0.304516    -0.299656     0.122750     0.141857


 HOMO     26.1    -0.299656 =      -8.1541eV
 LUMO     27.1     0.122750 =       3.3402eV
 LUMO-HOMO         0.422407 =      11.4943eV

 Orbitals saved in record  2100.2


 **********************************************************************************************************************************
 DATASETS  * FILE   NREC   LENGTH (MB)   RECORD NAMES
              1      19     5706.51       500      610      700      900      950      970     1000      129      960     1100   
                                          VAR    BASINP    GEOM    SYMINP    ZMAT    AOBASIS   BASIS     P2S    ABASIS      S 
                                         1400     1410     1200     1210     1080     1600     1650     1300     1700   
                                           T        V       H0       H01     AOSYM     SMH    MOLCAS    ERIS     OPER   

              2       4        2.57       700     1000      520     2100   
                                         GEOM     BASIS   MCVARS     RHF  

 PROGRAMS   *        TOTAL    HF-SCF       INT
 CPU TIMES  *       181.81    110.59     71.13
 REAL TIME  *       287.05 SEC
 DISK USED  *        24.46 GB
 **********************************************************************************************************************************

 Dump information in style XML to xml output                                                                      

 Orbitals will not be exported.

 **********************************************************************************************************************************

 HF/cc-pVTZ energy=   -270.852498046100

          HF-SCF
   -270.85249805
 **********************************************************************************************************************************
 Molpro calculation terminated
