
 Working directory              : /var/folders/2v/xbgp75_9785319ghcgb4zr4r0000gp/T//molpro.zPFzr5wrPj/
 Global scratch directory       : /var/folders/2v/xbgp75_9785319ghcgb4zr4r0000gp/T//molpro.zPFzr5wrPj/
 Wavefunction directory         : /Users/sacpjk/wfu/
 Main file repository           : /var/folders/2v/xbgp75_9785319ghcgb4zr4r0000gp/T//molpro.zPFzr5wrPj/

 id        : peterk

 Nodes                        nprocs
 Cardiff-University-G34YLXT77Y    1
 GA implementation: MPI file
 GA implementation (serial work in mppx): MPI file

 Using customized tuning parameters: mindgm=1; mindgv=20; mindgc=4; mindgr=1; noblas=0; minvec=7
 default implementation of scratch files=df  


 Variables initialized (1032), CPU time= 0.01 sec
 
 symmetry,nosym
 
 
 geometry={
           16
     H         -1.95893195      1.23117463      1.29239846
     C         -1.06070463      1.11528658      0.69655225
     C          0.18777282      0.75556346      1.24302544
     C         -1.06070463      1.11528658     -0.69655225
     H          2.34975759      0.20429126      0.00000000
     P          1.42058126      1.27945464      0.00000000
     C          0.18777282     -1.39749831      0.69647025
     H          0.37679588      0.79493047      2.30956082
     C          0.18777282     -1.39749831     -0.69647025
     H         -1.95893195      1.23117463     -1.29239846
     C          0.18777282      0.75556346     -1.24302544
     H          0.37679588      0.79493047     -2.30956082
     H          1.10246114     -1.60704838     -1.23710044
     H         -0.72033551     -1.63428139      1.23514844
     H          1.10246114     -1.60704838      1.23710044
     H         -0.72033551     -1.63428139     -1.23514844
 }
 basis=cc-pVTZ
 
 
 
 hf; mp2
 
 
 
 {put,xml;noorbitals,nobasis}
 Commands initialized (841), CPU time= 0.00 sec, 704 directives.
 Default parameters read. Elapsed time= 0.89 sec

 Checking input...
 Passed
1


                                         ***  PROGRAM SYSTEM MOLPRO  ***
                                       Copyright, TTI GmbH Stuttgart, 2015
                                    Version 2023.1 linked Tue Jun  6 09:54:11 2023


 **********************************************************************************************************************************
 LABEL *                                                                                                                                                                 
  64 bit serial version                                                                  DATE: 10-Jun-23          TIME: 15:07:57  
 **********************************************************************************************************************************

 SHA1:             8ebb0dd001088a5c915591db1a321413035db0b1
 **********************************************************************************************************************************

 Memory per process:       805 MW
 Total memory per node:   1074 MW
 Total GA space:           268 MW

 GA preallocation disabled
 GA check enabled

 Variable memory set to 805.3 MW

 ZSYMEL=NOSYM


 Geometry recognized as XYZ

 SETTING BASIS          =    CC-PVTZ


 Recomputing integrals since basis changed


 Using spherical harmonics

 Library entry H      S cc-pVTZ              selected for orbital group  1
 Library entry H      P cc-pVTZ              selected for orbital group  1
 Library entry H      D cc-pVTZ              selected for orbital group  1
 Library entry C      S cc-pVTZ              selected for orbital group  2
 Library entry C      P cc-pVTZ              selected for orbital group  2
 Library entry C      D cc-pVTZ              selected for orbital group  2
 Library entry C      F cc-pVTZ              selected for orbital group  2
 Library entry P      S cc-pVTZ              selected for orbital group  4
 Library entry P      P cc-pVTZ              selected for orbital group  4
 Library entry P      D cc-pVTZ              selected for orbital group  4
 Library entry P      F cc-pVTZ              selected for orbital group  4


 PROGRAM * SEWARD (Integral evaluation for generally contracted gaussian basis sets)     Author: Roland Lindh, 1990

 Geometry written to block  1 of record 700


 Point group  C1  



 ATOMIC COORDINATES

 NR  ATOM    CHARGE       X              Y              Z

   1  H       1.00   -3.701844882    2.326582862    2.442279133
   2  C       6.00   -2.004441250    2.107586187    1.316292984
   3  C       6.00    0.354839203    1.427808009    2.348977648
   4  C       6.00   -2.004441250    2.107586187   -1.316292984
   5  H       1.00    4.440398304    0.386054531    0.000000000
   6  P      15.00    2.684509519    2.417818858    0.000000000
   7  C       6.00    0.354839203   -2.640889066    1.316138026
   8  H       1.00    0.712041018    1.502200876    4.364437418
   9  C       6.00    0.354839203   -2.640889066   -1.316138026
  10  H       1.00   -3.701844882    2.326582862   -2.442279133
  11  C       6.00    0.354839203    1.427808009   -2.348977648
  12  H       1.00    0.712041018    1.502200876   -4.364437418
  13  H       1.00    2.083349618   -3.036881307   -2.337781020
  14  H       1.00   -1.361236832   -3.088344238    2.334092275
  15  H       1.00    2.083349618   -3.036881307    2.337781020
  16  H       1.00   -1.361236832   -3.088344238   -2.334092275

 Bond lengths in Bohr (Angstrom)

 1-2  2.048654057  2-3  2.663595360  2-4  2.632585968  3-6  3.453285573  3-8  2.048220086
     ( 1.084101040)     ( 1.409513964)     ( 1.393104500)     ( 1.827400028)     ( 1.083871392)

  4-10  2.048654057   4-11  2.663595360   5- 6  2.685369939   6-11  3.453285573   7- 9  2.632276053
       ( 1.084101040)       ( 1.409513964)       ( 1.421036574)       ( 1.827400028)       ( 1.392940500)

  7-14  2.044838366   7-15  2.046536712   9-13  2.046536712   9-16  2.044838366  11-12  2.048220086
       ( 1.082081863)       ( 1.082980589)       ( 1.082980589)       ( 1.082081863)       ( 1.083871392)

 Bond angles

  1-2-3  123.23510093   1-2-4  123.34111155   2-3-6  105.10931479   2-3-8  121.78304048

  2- 4-10  123.34111155   2- 4-11  112.81166619   3- 2- 4  112.81166619   3- 6- 5  102.95639987

  3- 6-11   85.72093770   4-11- 6  105.10931479   4-11-12  121.78304048   5- 6-11  102.95639987

  6- 3- 8  122.77020188   6-11-12  122.77020188   7- 9-13  119.94746996   7- 9-16  119.85564468

  9- 7-14  119.85564468   9- 7-15  119.94746996  10- 4-11  123.23510093  13- 9-16  114.70565433

 14- 7-15  114.70565433

 NUCLEAR CHARGE:                   60
 NUMBER OF PRIMITIVE AOS:         499
 NUMBER OF SYMMETRY AOS:          455
 NUMBER OF CONTRACTIONS:          340   (  340A   )
 NUMBER OF INNER CORE ORBITALS:     1   (    1A   )
 NUMBER OF OUTER CORE ORBITALS:    10   (   10A   )
 NUMBER OF VALENCE ORBITALS:       37   (   37A   )


 NUCLEAR REPULSION ENERGY  359.84267382


 Eigenvalues of metric

         1 0.129E-03 0.319E-03 0.631E-03 0.657E-03 0.754E-03 0.959E-03 0.104E-02 0.112E-02


 Contracted 2-electron integrals neglected if value below      1.0D-11
 AO integral compression algorithm  1   Integral accuracy      1.0D-11

     5574.230 MB (compressed) written to integral file ( 39.7%)


 NUMBER OF SORTED TWO-ELECTRON INTEGRALS: 1680289435.     BUFFER LENGTH:  32768
 NUMBER OF SEGMENTS:  53  SEGMENT LENGTH:   31998710      RECORD LENGTH: 524288

 Memory used in sort:      32.56 MW

 SORT1 READ  1753294966. AND WROTE  1459440741. INTEGRALS IN   4202 RECORDS. CPU TIME:    14.09 SEC, REAL TIME:    20.93 SEC
 SORT2 READ  1459440741. AND WROTE  1680289435. INTEGRALS IN  21264 RECORDS. CPU TIME:     9.45 SEC, REAL TIME:    52.25 SEC

 FILE SIZES:   FILE 1:  5608.8 MBYTE,  FILE 4: 17624.5 MBYTE,   TOTAL:  23233.3 MBYTE

 OPERATOR DM      FOR CENTER  0  COORDINATES:    0.000000    0.000000    0.000000


 **********************************************************************************************************************************
 DATASETS  * FILE   NREC   LENGTH (MB)   RECORD NAMES
              1      19     5004.28       500      610      700      900      950      970     1000      129      960     1100   
                                          VAR    BASINP    GEOM    SYMINP    ZMAT    AOBASIS   BASIS     P2S    ABASIS      S 
                                         1400     1410     1200     1210     1080     1600     1650     1300     1700   
                                           T        V       H0       H01     AOSYM     SMH    MOLCAS    ERIS     OPER   

 PROGRAMS   *        TOTAL       INT
 CPU TIMES  *        62.06     61.97
 REAL TIME  *       120.11 SEC
 DISK USED  *        21.64 GB
 **********************************************************************************************************************************


 Program * Restricted Hartree-Fock

 Orbital guess generated from atomic densities. Full valence occupancy:   48

 Initial occupancy:  30

 NELEC=   60   SYM=1   MS2= 0   THRE=1.0D-08   THRD=3.2D-06   THRG=3.2D-06  HFMA2=F  DIIS_START=2   DIIS_MAX=10   DIIS_INCORE=F

 Level shifts:    0.00 (CLOSED)    0.00 (OPEN)    0.30 (GAP_MIN)

 ITER           ETOT              DE          GRAD        DDIFF     DIIS  NEXP   TIME(IT)  TIME(TOT)  DIAG
   1     -573.04090048    -573.04090048     0.00D+00     0.43D-01     0     0       7.36     14.12    start
   2     -573.11595247      -0.07505199     0.24D-02     0.39D-02     1     0       7.77     21.89    diag
   3     -573.13057283      -0.01462036     0.12D-02     0.14D-02     2     0       7.77     29.66    diag
   4     -573.13311710      -0.00254427     0.36D-03     0.58D-03     3     0       7.72     37.38    diag
   5     -573.13325383      -0.00013673     0.70D-04     0.14D-03     4     0       7.97     45.35    diag
   6     -573.13328508      -0.00003125     0.33D-04     0.61D-04     5     0       7.95     53.30    diag
   7     -573.13329020      -0.00000512     0.12D-04     0.25D-04     6     0       8.07     61.37    diag
   8     -573.13329102      -0.00000081     0.46D-05     0.11D-04     7     0       7.98     69.35    fixocc
   9     -573.13329108      -0.00000006     0.13D-05     0.34D-05     8     0       7.93     77.28    diag
  10     -573.13329109      -0.00000001     0.65D-06     0.11D-05     9     0       7.97     85.25    diag/orth
  11     -573.13329109      -0.00000000     0.17D-06     0.31D-06     0     0       8.01     93.26    diag

 Final occupancy:  30

 !RHF STATE 1.1 Energy               -573.133291089990
  RHF One-electron energy           -1499.643319070791
  RHF Two-electron energy             566.667354161109
  RHF Kinetic energy                  572.700874768610
  RHF Nuclear energy                  359.842673819692
  RHF Virial quotient                  -1.000755047426

 !RHF STATE 1.1 Dipole moment          -0.24264712    -0.36791626     0.00000000
 Dipole moment /Debye                  -0.61674747    -0.93514985     0.00000000

 Orbital energies:

           1.1          2.1          3.1          4.1          5.1          6.1          7.1          8.1          9.1         10.1
    -79.941643   -11.249443   -11.249416   -11.232661   -11.231430   -11.228443   -11.227212    -7.482894    -5.376774    -5.376142

          11.1         12.1         13.1         14.1         15.1         16.1         17.1         18.1         19.1         20.1
     -5.375528    -1.132784    -1.014297    -0.962450    -0.901283    -0.794087    -0.744186    -0.712380    -0.683203    -0.625213

          21.1         22.1         23.1         24.1         25.1         26.1         27.1         28.1         29.1         30.1
     -0.570148    -0.551461    -0.538367    -0.532318    -0.504546    -0.484875    -0.459813    -0.353085    -0.317169    -0.301027

          31.1         32.1
      0.099268     0.124216


 HOMO     30.1    -0.301027 =      -8.1914eV
 LUMO     31.1     0.099268 =       2.7012eV
 LUMO-HOMO         0.400295 =      10.8926eV

 Orbitals saved in record  2100.2


 **********************************************************************************************************************************
 DATASETS  * FILE   NREC   LENGTH (MB)   RECORD NAMES
              1      19     5004.28       500      610      700      900      950      970     1000      129      960     1100   
                                          VAR    BASINP    GEOM    SYMINP    ZMAT    AOBASIS   BASIS     P2S    ABASIS      S 
                                         1400     1410     1200     1210     1080     1600     1650     1300     1700   
                                           T        V       H0       H01     AOSYM     SMH    MOLCAS    ERIS     OPER   

              2       4        2.44       700     1000      520     2100   
                                         GEOM     BASIS   MCVARS     RHF  

 PROGRAMS   *        TOTAL    HF-SCF       INT
 CPU TIMES  *       155.32     93.25     61.97
 REAL TIME  *       236.11 SEC
 DISK USED  *        21.64 GB
 **********************************************************************************************************************************


 PROGRAM * MP2 (Closed-shell)     Authors: C. Hampel, H.-J. Werner, 1991, M. Deegan, P.J. Knowles, 1992


 Convergence thresholds:  THRVAR = 1.00D-08  THRDEN = 1.00D-06

 Number of core orbitals:          11 (  11 )
 Number of closed-shell orbitals:  19 (  19 )
 Number of external orbitals:     310 ( 310 )

 Molecular orbitals read from record     2100.2  Type=RHF/CANONICAL  

 Number of N-1 electron functions:              19
 Number of N-2 electron functions:             190
 Number of singly external CSFs:              5890
 Number of doubly external CSFs:          17348995
 Total number of CSFs:                    17354886

 Length of J-op  integral file:               0.00 MB
 Length of K-op  integral file:               8.00 MB

 Integral transformation finished. Total CPU:  24.64 sec, npass=  1  Memory used:  38.14 MW

 Memory needed for MP2:                      0.55 MW

 SCS-MP2 correlation energy:           -1.164410728947   (PS=  1.200000  PT=  0.333333)
 SCS-MP2 total energy:               -574.297701818937


  Reference energy                   -573.133291089990
  MP2 singlet pair energy              -0.744635129843
  MP2 triplet pair energy              -0.435292349681
  MP2 correlation energy               -1.179927479524

 !MP2 total energy                   -574.313218569514


 **********************************************************************************************************************************
 DATASETS  * FILE   NREC   LENGTH (MB)   RECORD NAMES
              1      20     5257.66       500      610      700      900      950      970     1000      129      960     1100   
                                          VAR    BASINP    GEOM    SYMINP    ZMAT    AOBASIS   BASIS     P2S    ABASIS      S 
                                         1400     1410     1200     1210     1080     1600     1650     1300     1700     1380   
                                           T        V       H0       H01     AOSYM     SMH    MOLCAS    ERIS     OPER     JKOP   

              2       4        2.44       700     1000      520     2100   
                                         GEOM     BASIS   MCVARS     RHF  

 PROGRAMS   *        TOTAL       MP2    HF-SCF       INT
 CPU TIMES  *       181.38     26.05     93.25     61.97
 REAL TIME  *       269.96 SEC
 DISK USED  *        21.64 GB
 **********************************************************************************************************************************

 Dump information in style XML to xml output                                                                      

 Orbitals will not be exported.

 **********************************************************************************************************************************

 MP2/cc-pVTZ energy=   -574.313218569514

             MP2          HF-SCF
   -574.31321857   -573.13329109
 **********************************************************************************************************************************
 Molpro calculation terminated
