
 Working directory              : /var/folders/2v/xbgp75_9785319ghcgb4zr4r0000gp/T//molpro.XUUvL1m6J3/
 Global scratch directory       : /var/folders/2v/xbgp75_9785319ghcgb4zr4r0000gp/T//molpro.XUUvL1m6J3/
 Wavefunction directory         : /Users/sacpjk/wfu/
 Main file repository           : /var/folders/2v/xbgp75_9785319ghcgb4zr4r0000gp/T//molpro.XUUvL1m6J3/

 id        : peterk

 Nodes                        nprocs
 Cardiff-University-G34YLXT77Y    1
 GA implementation: MPI file
 GA implementation (serial work in mppx): MPI file

 Using customized tuning parameters: mindgm=1; mindgv=20; mindgc=4; mindgr=1; noblas=0; minvec=7
 default implementation of scratch files=df  


 Variables initialized (1032), CPU time= 0.00 sec
 
 symmetry,nosym
 
 
 geometry={
           13
     C         -1.23057941      0.50086096      0.10676486
     C         -1.21313991     -0.87689747      0.07966200
     N          1.04747730     -1.33943784     -0.09695831
     N          1.41930914     -0.13949867      0.31481262
     C          0.94113040      1.02188963     -0.16660748
     H         -1.55687399      1.05985239     -0.76315460
     H         -1.33110873      1.02587973      1.04980549
     H         -1.46424394     -1.41746083     -0.82546542
     H         -1.24165957     -1.45884030      0.99008609
     H          0.85567977     -1.25245686     -1.09541302
     H          1.69857786     -0.13681876      1.28956068
     H          1.24615647      1.92097778      0.35709063
     H          0.82927461      1.09195023     -1.24018353
 }
 basis=cc-pVDZ
 
 
 
 hf; hf; papt; mp3
 
 
 
 {put,xml;noorbitals,nobasis}
 Commands initialized (841), CPU time= 0.01 sec, 704 directives.
 Default parameters read. Elapsed time= 2.43 sec

 Checking input...
 Passed
1


                                         ***  PROGRAM SYSTEM MOLPRO  ***
                                       Copyright, TTI GmbH Stuttgart, 2015
                                    Version 2023.1 linked Tue Jun  6 09:54:11 2023


 **********************************************************************************************************************************
 LABEL *                                                                                                                                                                 
  64 bit serial version                                                                  DATE: 11-Jun-23          TIME: 12:36:13  
 **********************************************************************************************************************************

 SHA1:             8ebb0dd001088a5c915591db1a321413035db0b1
 **********************************************************************************************************************************

 Memory per process:       393 MW
 Total memory per node:    524 MW
 Total GA space:           131 MW

 GA preallocation disabled
 GA check enabled

 Variable memory set to 393.2 MW

 ZSYMEL=NOSYM


 Geometry recognized as XYZ

 SETTING BASIS          =    CC-PVDZ


 Recomputing integrals since basis changed


 Using spherical harmonics

 Library entry C      S cc-pVDZ              selected for orbital group  1
 Library entry C      P cc-pVDZ              selected for orbital group  1
 Library entry C      D cc-pVDZ              selected for orbital group  1
 Library entry N      S cc-pVDZ              selected for orbital group  2
 Library entry N      P cc-pVDZ              selected for orbital group  2
 Library entry N      D cc-pVDZ              selected for orbital group  2
 Library entry H      S cc-pVDZ              selected for orbital group  4
 Library entry H      P cc-pVDZ              selected for orbital group  4


 PROGRAM * SEWARD (Integral evaluation for generally contracted gaussian basis sets)     Author: Roland Lindh, 1990

 Geometry written to block  1 of record 700


 Point group  C1  



 ATOMIC COORDINATES

 NR  ATOM    CHARGE       X              Y              Z

   1  C       6.00   -2.325458060    0.946490041    0.201756345
   2  C       6.00   -2.292502181   -1.657096058    0.150539363
   3  N       7.00    1.979445219   -2.531170679   -0.183224651
   4  N       7.00    2.682105561   -0.263614281    0.594909632
   5  C       6.00    1.778478704    1.931091530   -0.314842508
   6  H       1.00   -2.942065452    2.002830750   -1.442153185
   7  H       1.00   -2.515430942    1.938631727    1.983844860
   8  H       1.00   -2.767020026   -2.678612761   -1.559903569
   9  H       1.00   -2.346396527   -2.756808627    1.870991550
  10  H       1.00    1.617000416   -2.366800448   -2.070030601
  11  H       1.00    3.209846957   -0.258549985    2.436916506
  12  H       1.00    2.354894437    3.630121896    0.674803492
  13  H       1.00    1.567101895    2.063486876   -2.343607216

 Bond lengths in Bohr (Angstrom)

 1-2  2.604298340  1-6  2.049023892  1-7  2.048480973  2-8  2.047993795  2-9  2.042603257
     ( 1.378135332)     ( 1.084296748)     ( 1.084009448)     ( 1.083751644)     ( 1.080899094)

  3- 4  2.498206664   3-10  1.928320642   4- 5  2.541834781   4-11  1.916122635   5-12  2.048989625
       ( 1.321994035)       ( 1.020423339)       ( 1.345081040)       ( 1.013968432)       ( 1.084278615)

  5-13  2.044038876
       ( 1.081658791)

 Bond angles

  1-2-8  120.80684342   1-2-9  121.42231228   2-1-6  120.22669767   2-1-7  120.16423616

  3- 4- 5  124.90687034   3- 4-11  112.29001037   4- 3-10  106.27617561   4- 5-12  116.30091049

  4- 5-13  116.61068639   5- 4-11  116.08463603   6- 1- 7  114.85732672   8- 2- 9  115.39163996

 12- 5-13  117.04985701

 NUCLEAR CHARGE:                   40
 NUMBER OF PRIMITIVE AOS:         191
 NUMBER OF SYMMETRY AOS:          186
 NUMBER OF CONTRACTIONS:          110   (  110A   )
 NUMBER OF INNER CORE ORBITALS:     0   (    0A   )
 NUMBER OF OUTER CORE ORBITALS:     5   (    5A   )
 NUMBER OF VALENCE ORBITALS:       28   (   28A   )


 NUCLEAR REPULSION ENERGY  179.06021503


 Eigenvalues of metric

         1 0.291E-02 0.471E-02 0.691E-02 0.125E-01 0.153E-01 0.183E-01 0.231E-01 0.236E-01


 Contracted 2-electron integrals neglected if value below      1.0D-11
 AO integral compression algorithm  1   Integral accuracy      1.0D-11

     84.410 MB (compressed) written to integral file ( 51.8%)


 NUMBER OF SORTED TWO-ELECTRON INTEGRALS:   18638565.     BUFFER LENGTH:  32768
 NUMBER OF SEGMENTS:   2  SEGMENT LENGTH:   15997996      RECORD LENGTH: 524288

 Memory used in sort:      16.56 MW

 SORT1 READ    20371538. AND WROTE    18427449. INTEGRALS IN     54 RECORDS. CPU TIME:     0.13 SEC, REAL TIME:     0.17 SEC
 SORT2 READ    18427449. AND WROTE    18638565. INTEGRALS IN    322 RECORDS. CPU TIME:     0.15 SEC, REAL TIME:     0.19 SEC

 FILE SIZES:   FILE 1:   115.1 MBYTE,  FILE 4:   226.6 MBYTE,   TOTAL:    341.6 MBYTE

 OPERATOR DM      FOR CENTER  0  COORDINATES:    0.000000    0.000000    0.000000


 **********************************************************************************************************************************
 DATASETS  * FILE   NREC   LENGTH (MB)   RECORD NAMES
              1      19      101.72       500      610      700      900      950      970     1000      129      960     1100   
                                          VAR    BASINP    GEOM    SYMINP    ZMAT    AOBASIS   BASIS     P2S    ABASIS      S 
                                         1400     1410     1200     1210     1080     1600     1650     1300     1700   
                                           T        V       H0       H01     AOSYM     SMH    MOLCAS    ERIS     OPER   

 PROGRAMS   *        TOTAL       INT
 CPU TIMES  *         1.20      1.10
 REAL TIME  *         7.06 SEC
 DISK USED  *       326.34 MB
 **********************************************************************************************************************************


 Program * Restricted Hartree-Fock

 Orbital guess generated from atomic densities. Full valence occupancy:   33

 Initial occupancy:  20

 NELEC=   40   SYM=1   MS2= 0   THRE=1.0D-08   THRD=3.2D-06   THRG=3.2D-06  HFMA2=F  DIIS_START=2   DIIS_MAX=10   DIIS_INCORE=F

 Level shifts:    0.00 (CLOSED)    0.00 (OPEN)    0.30 (GAP_MIN)

 ITER           ETOT              DE          GRAD        DDIFF     DIIS  NEXP   TIME(IT)  TIME(TOT)  DIAG
   1     -226.91242336    -226.91242336     0.00D+00     0.10D+00     0     0       0.07      0.14    start
   2     -226.97118140      -0.05875804     0.58D-02     0.13D-01     1     0       0.08      0.22    diag
   3     -226.99233855      -0.02115714     0.36D-02     0.53D-02     2     0       0.07      0.29    diag
   4     -226.99385809      -0.00151955     0.72D-03     0.15D-02     3     0       0.08      0.37    diag
   5     -226.99394805      -0.00008995     0.15D-03     0.35D-03     4     0       0.07      0.44    diag
   6     -226.99397062      -0.00002257     0.71D-04     0.16D-03     5     0       0.08      0.52    diag
   7     -226.99397915      -0.00000853     0.30D-04     0.11D-03     6     0       0.08      0.60    diag
   8     -226.99398212      -0.00000297     0.23D-04     0.70D-04     7     0       0.07      0.67    fixocc
   9     -226.99398281      -0.00000069     0.76D-05     0.40D-04     8     0       0.07      0.74    diag
  10     -226.99398288      -0.00000006     0.32D-05     0.12D-04     9     0       0.08      0.82    diag/orth
  11     -226.99398288      -0.00000001     0.95D-06     0.36D-05     9     0       0.08      0.90    diag
  12     -226.99398288      -0.00000000     0.30D-06     0.79D-06     9     0       0.07      0.97    diag
  13     -226.99398288      -0.00000000     0.91D-07     0.20D-06     0     0       0.07      1.04    diag

 Final occupancy:  20

 !RHF STATE 1.1 Energy               -226.993982881966
  RHF One-electron energy            -661.618873023755
  RHF Two-electron energy             255.564675110671
  RHF Kinetic energy                  226.586462731673
  RHF Nuclear energy                  179.060215031118
  RHF Virial quotient                  -1.001798519406

 !RHF STATE 1.1 Dipole moment           0.32774609     0.91287708     0.00360949
 Dipole moment /Debye                   0.83304748     2.32030211     0.00917441

 Orbital energies:

           1.1          2.1          3.1          4.1          5.1          6.1          7.1          8.1          9.1         10.1
    -15.655712   -15.565682   -11.282323   -11.224577   -11.217515    -1.338448    -1.051626    -1.008894    -0.879040    -0.780604

          11.1         12.1         13.1         14.1         15.1         16.1         17.1         18.1         19.1         20.1
     -0.703280    -0.665911    -0.622252    -0.583377    -0.561111    -0.557545    -0.487945    -0.441049    -0.327112    -0.290756

          21.1         22.1
      0.129693     0.176376


 HOMO     20.1    -0.290756 =      -7.9119eV
 LUMO     21.1     0.129693 =       3.5291eV
 LUMO-HOMO         0.420449 =      11.4410eV

 Orbitals saved in record  2100.2


 **********************************************************************************************************************************
 DATASETS  * FILE   NREC   LENGTH (MB)   RECORD NAMES
              1      19      101.72       500      610      700      900      950      970     1000      129      960     1100   
                                          VAR    BASINP    GEOM    SYMINP    ZMAT    AOBASIS   BASIS     P2S    ABASIS      S 
                                         1400     1410     1200     1210     1080     1600     1650     1300     1700   
                                           T        V       H0       H01     AOSYM     SMH    MOLCAS    ERIS     OPER   

              2       4        0.77       700     1000      520     2100   
                                         GEOM     BASIS   MCVARS     RHF  

 PROGRAMS   *        TOTAL    HF-SCF       INT
 CPU TIMES  *         2.25      1.05      1.10
 REAL TIME  *         8.97 SEC
 DISK USED  *       326.34 MB
 **********************************************************************************************************************************


 Program * Restricted Hartree-Fock

 Molecular orbitals read from record     2100.2  Type=RHF/CANONICAL  

 Initial occupancy:  20

 NELEC=   40   SYM=1   MS2= 0   THRE=1.0D-08   THRD=3.2D-06   THRG=3.2D-06  HFMA2=F  DIIS_START=2   DIIS_MAX=10   DIIS_INCORE=F

 Level shifts:    0.00 (CLOSED)    0.00 (OPEN)    0.30 (GAP_MIN)

 ITER           ETOT              DE          GRAD        DDIFF     DIIS  NEXP   TIME(IT)  TIME(TOT)  DIAG
   1     -226.99398288    -226.99398288     0.00D+00     0.11D+00     0     0       0.08      0.08    start
   2     -226.99398288      -0.00000000     0.44D-07     0.11D-06     1     0       0.08      0.16    diag

 Final occupancy:  20

 !RHF STATE 1.1 Energy               -226.993982881975
  RHF One-electron energy            -661.618878200522
  RHF Two-electron energy             255.564680287429
  RHF Kinetic energy                  226.586466890039
  RHF Nuclear energy                  179.060215031118
  RHF Virial quotient                  -1.001798501021

 !RHF STATE 1.1 Dipole moment           0.32773584     0.91288036     0.00360870
 Dipole moment /Debye                   0.83302143     2.32031043     0.00917241

 Orbital energies:

           1.1          2.1          3.1          4.1          5.1          6.1          7.1          8.1          9.1         10.1
    -15.655714   -15.565684   -11.282323   -11.224574   -11.217516    -1.338448    -1.051626    -1.008894    -0.879041    -0.780604

          11.1         12.1         13.1         14.1         15.1         16.1         17.1         18.1         19.1         20.1
     -0.703280    -0.665912    -0.622251    -0.583377    -0.561111    -0.557544    -0.487945    -0.441050    -0.327112    -0.290756

          21.1         22.1
      0.129692     0.176376


 HOMO     20.1    -0.290756 =      -7.9119eV
 LUMO     21.1     0.129692 =       3.5291eV
 LUMO-HOMO         0.420449 =      11.4410eV

 Orbitals saved in record  2101.2


 **********************************************************************************************************************************
 DATASETS  * FILE   NREC   LENGTH (MB)   RECORD NAMES
              1      19      101.72       500      610      700      900      950      970     1000      129      960     1100   
                                          VAR    BASINP    GEOM    SYMINP    ZMAT    AOBASIS   BASIS     P2S    ABASIS      S 
                                         1400     1410     1200     1210     1080     1600     1650     1300     1700   
                                           T        V       H0       H01     AOSYM     SMH    MOLCAS    ERIS     OPER   

              2       5        1.20       700     1000      520     2100     2101   
                                         GEOM     BASIS   MCVARS     RHF      RHF  

 PROGRAMS   *        TOTAL    HF-SCF    HF-SCF       INT
 CPU TIMES  *         2.41      0.16      1.05      1.10
 REAL TIME  *         9.50 SEC
 DISK USED  *       326.34 MB
 **********************************************************************************************************************************


 PROGRAM * PAPT (Closed-shell)     Authors: C. Hampel, H.-J. Werner, 1991, P.J. Knowles, 2021


 Convergence thresholds:  THRVAR = 1.00D-08  THRDEN = 1.00D-06

 Number of core orbitals:           5 (   5 )
 Number of closed-shell orbitals:  15 (  15 )
 Number of external orbitals:      90 (  90 )

 Molecular orbitals read from record     2101.2  Type=RHF/CANONICAL  

 Number of N-1 electron functions:              15
 Number of N-2 electron functions:             120
 Number of singly external CSFs:              1350
 Number of doubly external CSFs:            911925
 Total number of CSFs:                      913276

 Length of J-op  integral file:               0.00 MB
 Length of K-op  integral file:               0.89 MB

 Integral transformation finished. Total CPU:   0.20 sec, npass=  1  Memory used:   2.65 MW

 Reference energy:                   -226.99398288

                        CORR.ENERGY   TOTAL ENERGY   ENERGY CHANGE
 MP2:                   -0.80607477  -227.80005765    -0.80607477

 SCS-MP2 correlation energy:           -0.79075832   (PS=  1.200000  PT=  0.333333)
 SCS-MP2 total energy:               -227.78474120
 Iteration:   1     0.3414D+00
 Iteration:   2     0.2133D+01
 Iteration:   3     0.9683D-01
 Iteration:   4     0.1208D+00
 Iteration:   5     0.3893D-01
 Iteration:   6     0.4688D-01
 Iteration:   7     0.3846D-01
 Iteration:   8     0.1269D-01
 Iteration:   9     0.2039D-01
 Iteration:  10     0.7056D-02
 Iteration:  11     0.4139D-02
 Iteration:  12     0.7467D-02
 Iteration:  13     0.1324D-02
 Iteration:  14     0.3483D-02
 Iteration:  15     0.6264D-03
 Iteration:  16     0.5179D-03
 Iteration:  17     0.3170D-03
 Iteration:  18     0.1424D-03
 Iteration:  19     0.1695D-03
 Iteration:  20     0.3036D-04
 PAPT operator written to  7000.1
 PAPT orbitals and eigenvalues written to  7000.2

 MP3(D):                -0.83354368  -227.82752656    -0.02746891



 RESULTS
 =======

  Reference energy                   -226.993982881976
  MP3 singlet pair energy              -0.556279548950
  MP3 triplet pair energy              -0.277264127983
  MP3 correlation energy               -0.833543676933

 !MP3 total energy                   -227.827526558909

 Timing summary (sec):

 STEP                 CPU(USER)    SYS     CPU(TOT)    WALL
 Transformation          0.22      0.02      0.24      0.46
 CCSD iterations         6.35      0.14      6.49      5.40

 Program statistics:

 Available memory in ccsd:               393215080
 Min. memory needed in ccsd:               2449389
 Max. memory used in ccsd:                 3241239
 Max. memory used in cckext:               3066553 ( 1 integral passes)



 **********************************************************************************************************************************
 DATASETS  * FILE   NREC   LENGTH (MB)   RECORD NAMES
              1      21      118.62       500      610      700      900      950      970     1000      129      960     1100   
                                          VAR    BASINP    GEOM    SYMINP    ZMAT    AOBASIS   BASIS     P2S    ABASIS      S 
                                         1400     1410     1200     1210     1080     1600     1650     1300     1700     1380   
                                           T        V       H0       H01     AOSYM     SMH    MOLCAS    ERIS     OPER     JKOP   
                                         7000   
                                        PAPT AO    

              2       6        1.57       700     1000      520     2100     2101     7000   
                                         GEOM     BASIS   MCVARS     RHF      RHF     PAPT   

 PROGRAMS   *        TOTAL      PAPT    HF-SCF    HF-SCF       INT
 CPU TIMES  *         6.48      4.07      0.16      1.05      1.10
 REAL TIME  *        15.55 SEC
 DISK USED  *       326.34 MB
 **********************************************************************************************************************************


 PROGRAM * MP3 (Closed-shell)     Authors: C. Hampel, H.-J. Werner, 1991, M. Deegan, P.J. Knowles, 1992


 Convergence thresholds:  THRVAR = 1.00D-08  THRDEN = 1.00D-06

 Number of core orbitals:           5 (   5 )
 Number of closed-shell orbitals:  15 (  15 )
 Number of external orbitals:      90 (  90 )

 Molecular orbitals read from record     7000.2  Type=PAPT/CANONICAL (state 1.1)

 Number of N-1 electron functions:              15
 Number of N-2 electron functions:             120
 Number of singly external CSFs:              1350
 Number of doubly external CSFs:            911925
 Total number of CSFs:                      913276

 Length of J-op  integral file:               0.00 MB
 Length of K-op  integral file:               0.89 MB

 Integral transformation finished. Total CPU:   0.28 sec, npass=  1  Memory used:   2.65 MW
 Orbital energies read from record       7000.2  Type=PAPT/CANONICAL (state 1.1)

 Reference energy:                   -226.99398288

                        CORR.ENERGY   TOTAL ENERGY   ENERGY CHANGE
 MP2:                   -0.84291829  -227.83690118    -0.84291829

 SCS-MP2 correlation energy:           -0.83286964   (PS=  1.200000  PT=  0.333333)
 SCS-MP2 total energy:               -227.82685252

 MP3(D):                -0.84312777  -227.83711065    -0.00020947



 RESULTS
 =======

  Reference energy                   -226.993982881976
  MP3 singlet pair energy              -0.565489792450
  MP3 triplet pair energy              -0.277637976025
  MP3 correlation energy               -0.843127768475

 !MP3 total energy                   -227.837110650451

 Timing summary (sec):

 STEP                 CPU(USER)    SYS     CPU(TOT)    WALL
 Transformation          0.42      0.05      0.47      0.61
 CCSD iterations         7.61      0.04      7.65      1.38

 Program statistics:

 Available memory in ccsd:               393215080
 Min. memory needed in ccsd:               2449389
 Max. memory used in ccsd:                 3241239
 Max. memory used in cckext:               3066553 ( 1 integral passes)



 **********************************************************************************************************************************
 DATASETS  * FILE   NREC   LENGTH (MB)   RECORD NAMES
              1      21      118.62       500      610      700      900      950      970     1000      129      960     1100   
                                          VAR    BASINP    GEOM    SYMINP    ZMAT    AOBASIS   BASIS     P2S    ABASIS      S 
                                         1400     1410     1200     1210     1080     1600     1650     1300     1700     1380   
                                           T        V       H0       H01     AOSYM     SMH    MOLCAS    ERIS     OPER     JKOP   
                                         7000   
                                        PAPT AO    

              2       6        1.57       700     1000      520     2100     2101     7000   
                                         GEOM     BASIS   MCVARS     RHF      RHF     PAPT   

 PROGRAMS   *        TOTAL       MP3      PAPT    HF-SCF    HF-SCF       INT
 CPU TIMES  *         7.94      1.46      4.07      0.16      1.05      1.10
 REAL TIME  *        17.75 SEC
 DISK USED  *       326.34 MB
 **********************************************************************************************************************************

 Dump information in style XML to xml output                                                                      

 Orbitals will not be exported.

 **********************************************************************************************************************************

 MP3/cc-pVDZ energy=   -227.837110650451

             MP3            PAPT          HF-SCF          HF-SCF
   -227.83711065   -227.82752656   -226.99398288   -226.99398288
 **********************************************************************************************************************************
 Molpro calculation terminated
