
 Working directory              : /var/folders/2v/xbgp75_9785319ghcgb4zr4r0000gp/T//molpro.KVkEl423LE/
 Global scratch directory       : /var/folders/2v/xbgp75_9785319ghcgb4zr4r0000gp/T//molpro.KVkEl423LE/
 Wavefunction directory         : /Users/sacpjk/wfu/
 Main file repository           : /var/folders/2v/xbgp75_9785319ghcgb4zr4r0000gp/T//molpro.KVkEl423LE/

 id        : peterk

 Nodes                        nprocs
 Cardiff-University-G34YLXT77Y    1
 GA implementation: MPI file
 GA implementation (serial work in mppx): MPI file

 Using customized tuning parameters: mindgm=1; mindgv=20; mindgc=4; mindgr=1; noblas=0; minvec=7
 default implementation of scratch files=df  


 Variables initialized (1032), CPU time= 0.00 sec
 
 symmetry,nosym
 
 
 geometry={
            8
     O         -1.91840367      0.19998510      0.00000000
     S         -1.32245423     -0.36733302     -1.47185555
     O         -0.00713321      0.65483762     -1.66061440
     S          1.55660614      0.01258458     -1.47076583
     O          1.46436627     -0.80016345      0.00000000
     S          1.55660614      0.01258458      1.47076583
     O         -0.00713321      0.65483762      1.66061440
     S         -1.32245423     -0.36733302      1.47185555
 }
 basis=cc-pVTZ
 
 
 
 hf; hf; papt; mp3
 
 
 
 {put,xml;noorbitals,nobasis}
 Commands initialized (841), CPU time= 0.00 sec, 704 directives.
 Default parameters read. Elapsed time= 0.38 sec

 Checking input...
 Passed
1


                                         ***  PROGRAM SYSTEM MOLPRO  ***
                                       Copyright, TTI GmbH Stuttgart, 2015
                                    Version 2023.1 linked Tue Jun  6 09:54:11 2023


 **********************************************************************************************************************************
 LABEL *                                                                                                                                                                 
  64 bit serial version                                                                  DATE: 13-Jun-23          TIME: 06:44:37  
 **********************************************************************************************************************************

 SHA1:             8ebb0dd001088a5c915591db1a321413035db0b1
 **********************************************************************************************************************************

 Memory per process:       393 MW
 Total memory per node:    524 MW
 Total GA space:           131 MW

 GA preallocation disabled
 GA check enabled

 Variable memory set to 393.2 MW

 ZSYMEL=NOSYM


 Geometry recognized as XYZ

 SETTING BASIS          =    CC-PVTZ


 Recomputing integrals since basis changed


 Using spherical harmonics

 Library entry O      S cc-pVTZ              selected for orbital group  1
 Library entry O      P cc-pVTZ              selected for orbital group  1
 Library entry O      D cc-pVTZ              selected for orbital group  1
 Library entry O      F cc-pVTZ              selected for orbital group  1
 Library entry S      S cc-pVTZ              selected for orbital group  2
 Library entry S      P cc-pVTZ              selected for orbital group  2
 Library entry S      D cc-pVTZ              selected for orbital group  2
 Library entry S      F cc-pVTZ              selected for orbital group  2


 PROGRAM * SEWARD (Integral evaluation for generally contracted gaussian basis sets)     Author: Roland Lindh, 1990

 Geometry written to block  1 of record 700


 Point group  C1  



 ATOMIC COORDINATES

 NR  ATOM    CHARGE       X              Y              Z

   1  O       8.00   -3.625257533    0.377917068    0.000000000
   2  S      16.00   -2.499076307   -0.694158804   -2.781403885
   3  O       8.00   -0.013479813    1.237463758   -3.138106415
   4  S      16.00    2.941559289    0.023781410   -2.779344612
   5  O       8.00    2.767251196   -1.512089775    0.000000000
   6  S      16.00    2.941559289    0.023781410    2.779344612
   7  O       8.00   -0.013479813    1.237463758    3.138106415
   8  S      16.00   -2.499076307   -0.694158804    2.781403885

 Bond lengths in Bohr (Angstrom)

 1-2  3.186508810  1-8  3.186508810  2-3  3.168058135  2-4  5.487800841  3-4  3.214652542
     ( 1.686227845)     ( 1.686227845)     ( 1.676464168)     ( 2.904019143)     ( 1.701120866)

 4-5  3.180257864  5-6  3.180257864  6-7  3.214652542  6-8  5.487800841  7-8  3.168058135
     ( 1.682919986)     ( 1.682919986)     ( 1.701120866)     ( 2.904019143)     ( 1.676464168)

 Bond angles

  1-2-3   99.81294447   1-2-4  107.82084307   1-8-6  107.82084307   1-8-7   99.81294447

  2-1-8  121.58746966   2-3-4  118.58456359   2-4-3   30.45929611   2-4-5   83.26999558

  3-2-4   30.95614029   3-4-5  103.26659648   4-5-6  121.83880699   5-6-7  103.26659648

  5-6-8   83.26999558   6-7-8  118.58456359   6-8-7   30.95614029   7-6-8   30.45929611

 NUCLEAR CHARGE:                   96
 NUMBER OF PRIMITIVE AOS:         444
 NUMBER OF SYMMETRY AOS:          404
 NUMBER OF CONTRACTIONS:          256   (  256A   )
 NUMBER OF INNER CORE ORBITALS:     4   (    4A   )
 NUMBER OF OUTER CORE ORBITALS:    20   (   20A   )
 NUMBER OF VALENCE ORBITALS:       32   (   32A   )


 NUCLEAR REPULSION ENERGY  798.53403519


 Eigenvalues of metric

         1 0.224E-02 0.291E-02 0.299E-02 0.317E-02 0.322E-02 0.366E-02 0.389E-02 0.594E-02


 Contracted 2-electron integrals neglected if value below      1.0D-11
 AO integral compression algorithm  1   Integral accuracy      1.0D-11

     1686.110 MB (compressed) written to integral file ( 35.3%)


 NUMBER OF SORTED TWO-ELECTRON INTEGRALS:  541089856.     BUFFER LENGTH:  32768
 NUMBER OF SEGMENTS:  34  SEGMENT LENGTH:   15999762      RECORD LENGTH: 262144

 Memory used in sort:      16.29 MW

 SORT1 READ   597830731. AND WROTE   452357857. INTEGRALS IN   2607 RECORDS. CPU TIME:     4.59 SEC, REAL TIME:     5.97 SEC
 SORT2 READ   452357857. AND WROTE   541089856. INTEGRALS IN   6432 RECORDS. CPU TIME:     3.44 SEC, REAL TIME:     4.35 SEC

 FILE SIZES:   FILE 1:  1718.7 MBYTE,  FILE 4:  5467.3 MBYTE,   TOTAL:   7186.0 MBYTE

 OPERATOR DM      FOR CENTER  0  COORDINATES:    0.000000    0.000000    0.000000


 **********************************************************************************************************************************
 DATASETS  * FILE   NREC   LENGTH (MB)   RECORD NAMES
              1      19     1437.82       500      610      700      900      950      970     1000      129      960     1100   
                                          VAR    BASINP    GEOM    SYMINP    ZMAT    AOBASIS   BASIS     P2S    ABASIS      S 
                                         1400     1410     1200     1210     1080     1600     1650     1300     1700   
                                           T        V       H0       H01     AOSYM     SMH    MOLCAS    ERIS     OPER   

 PROGRAMS   *        TOTAL       INT
 CPU TIMES  *        23.26     23.17
 REAL TIME  *        31.01 SEC
 DISK USED  *         6.69 GB
 **********************************************************************************************************************************


 Program * Restricted Hartree-Fock

 Orbital guess generated from atomic densities. Full valence occupancy:   56

 Initial occupancy:  48

 NELEC=   96   SYM=1   MS2= 0   THRE=1.0D-08   THRD=3.2D-06   THRG=3.2D-06  HFMA2=F  DIIS_START=2   DIIS_MAX=10   DIIS_INCORE=F

 Level shifts:    0.00 (CLOSED)    0.00 (OPEN)    0.30 (GAP_MIN)

 ITER           ETOT              DE          GRAD        DDIFF     DIIS  NEXP   TIME(IT)  TIME(TOT)  DIAG
   1    -1889.40777770   -1889.40777770     0.00D+00     0.72D-01     0     0       2.43      4.74    start
   2    -1889.52349545      -0.11571774     0.34D-02     0.50D-02     1     0       2.42      7.16    diag
   3    -1889.53686734      -0.01337189     0.12D-02     0.13D-02     2     0       2.46      9.62    diag
   4    -1889.53883106      -0.00196372     0.40D-03     0.62D-03     3     0       2.49     12.11    diag
   5    -1889.53917679      -0.00034573     0.18D-03     0.23D-03     4     0       2.51     14.62    diag
   6    -1889.53921222      -0.00003543     0.45D-04     0.76D-04     5     0       2.48     17.10    diag
   7    -1889.53921711      -0.00000489     0.14D-04     0.33D-04     6     0       2.65     19.75    diag
   8    -1889.53921806      -0.00000095     0.68D-05     0.13D-04     7     0       2.61     22.36    fixocc
   9    -1889.53921835      -0.00000030     0.28D-05     0.89D-05     8     0       2.70     25.06    diag
  10    -1889.53921841      -0.00000006     0.10D-05     0.44D-05     9     0       2.49     27.55    diag/orth
  11    -1889.53921842      -0.00000001     0.50D-06     0.13D-05     9     0       2.63     30.18    diag
  12    -1889.53921842      -0.00000000     0.18D-06     0.39D-06     0     0       2.58     32.76    diag

 Final occupancy:  48

 !RHF STATE 1.1 Energy              -1889.539218417133
  RHF One-electron energy           -4203.118995447331
  RHF Two-electron energy            1515.045741845003
  RHF Kinetic energy                 1888.404680211732
  RHF Nuclear energy                  798.534035185194
  RHF Virial quotient                  -1.000600791884

 !RHF STATE 1.1 Dipole moment           0.41316257    -0.57369210    -0.00000000
 Dipole moment /Debye                   1.05015451    -1.45817988    -0.00000000

 Orbital energies:

           1.1          2.1          3.1          4.1          5.1          6.1          7.1          8.1          9.1         10.1
    -92.082270   -92.082270   -92.077500   -92.077500   -20.657562   -20.647933   -20.647931   -20.646284    -9.071997    -9.071987

          11.1         12.1         13.1         14.1         15.1         16.1         17.1         18.1         19.1         20.1
     -9.067245    -9.067236    -6.752538    -6.752534    -6.751114    -6.751113    -6.748989    -6.748987    -6.747797    -6.747794

          21.1         22.1         23.1         24.1         25.1         26.1         27.1         28.1         29.1         30.1
     -6.746532    -6.746532    -6.744462    -6.744461    -1.458830    -1.418547    -1.415445    -1.367260    -1.038663    -0.951044

          31.1         32.1         33.1         34.1         35.1         36.1         37.1         38.1         39.1         40.1
     -0.945854    -0.826740    -0.726944    -0.694019    -0.685030    -0.671939    -0.646736    -0.622004    -0.618930    -0.559106

          41.1         42.1         43.1         44.1         45.1         46.1         47.1         48.1         49.1         50.1
     -0.550258    -0.542736    -0.537638    -0.520672    -0.393492    -0.387170    -0.384596    -0.369476     0.079073     0.079977


 HOMO     48.1    -0.369476 =     -10.0540eV
 LUMO     49.1     0.079073 =       2.1517eV
 LUMO-HOMO         0.448549 =      12.2057eV

 Orbitals saved in record  2100.2


 **********************************************************************************************************************************
 DATASETS  * FILE   NREC   LENGTH (MB)   RECORD NAMES
              1      19     1437.82       500      610      700      900      950      970     1000      129      960     1100   
                                          VAR    BASINP    GEOM    SYMINP    ZMAT    AOBASIS   BASIS     P2S    ABASIS      S 
                                         1400     1410     1200     1210     1080     1600     1650     1300     1700   
                                           T        V       H0       H01     AOSYM     SMH    MOLCAS    ERIS     OPER   

              2       4        1.54       700     1000      520     2100   
                                         GEOM     BASIS   MCVARS     RHF  

 PROGRAMS   *        TOTAL    HF-SCF       INT
 CPU TIMES  *        56.03     32.77     23.17
 REAL TIME  *        68.33 SEC
 DISK USED  *         6.69 GB
 **********************************************************************************************************************************


 Program * Restricted Hartree-Fock

 Molecular orbitals read from record     2100.2  Type=RHF/CANONICAL  

 Initial occupancy:  48

 NELEC=   96   SYM=1   MS2= 0   THRE=1.0D-08   THRD=3.2D-06   THRG=3.2D-06  HFMA2=F  DIIS_START=2   DIIS_MAX=10   DIIS_INCORE=F

 Level shifts:    0.00 (CLOSED)    0.00 (OPEN)    0.30 (GAP_MIN)

 ITER           ETOT              DE          GRAD        DDIFF     DIIS  NEXP   TIME(IT)  TIME(TOT)  DIAG
   1    -1889.53921842   -1889.53921842     0.00D+00     0.73D-01     0     0       2.60      2.60    start
   2    -1889.53921842      -0.00000000     0.11D-06     0.25D-06     1     0       2.66      5.26    diag

 Final occupancy:  48

 !RHF STATE 1.1 Energy              -1889.539218417517
  RHF One-electron energy           -4203.119088282249
  RHF Two-electron energy            1515.045834679538
  RHF Kinetic energy                 1888.404727356228
  RHF Nuclear energy                  798.534035185194
  RHF Virial quotient                  -1.000600766904

 !RHF STATE 1.1 Dipole moment           0.41316416    -0.57369850    -0.00000000
 Dipole moment /Debye                   1.05015854    -1.45819614    -0.00000000

 Orbital energies:

           1.1          2.1          3.1          4.1          5.1          6.1          7.1          8.1          9.1         10.1
    -92.082268   -92.082268   -92.077500   -92.077500   -20.657573   -20.647943   -20.647941   -20.646279    -9.071996    -9.071987

          11.1         12.1         13.1         14.1         15.1         16.1         17.1         18.1         19.1         20.1
     -9.067246    -9.067236    -6.752537    -6.752533    -6.751114    -6.751112    -6.748988    -6.748986    -6.747797    -6.747794

          21.1         22.1         23.1         24.1         25.1         26.1         27.1         28.1         29.1         30.1
     -6.746533    -6.746532    -6.744463    -6.744461    -1.458832    -1.418548    -1.415449    -1.367262    -1.038664    -0.951045

          31.1         32.1         33.1         34.1         35.1         36.1         37.1         38.1         39.1         40.1
     -0.945855    -0.826741    -0.726946    -0.694021    -0.685033    -0.671941    -0.646737    -0.622006    -0.618933    -0.559108

          41.1         42.1         43.1         44.1         45.1         46.1         47.1         48.1         49.1         50.1
     -0.550260    -0.542738    -0.537639    -0.520673    -0.393492    -0.387171    -0.384596    -0.369477     0.079072     0.079976


 HOMO     48.1    -0.369477 =     -10.0540eV
 LUMO     49.1     0.079072 =       2.1517eV
 LUMO-HOMO         0.448550 =      12.2057eV

 Orbitals saved in record  2101.2


 **********************************************************************************************************************************
 DATASETS  * FILE   NREC   LENGTH (MB)   RECORD NAMES
              1      19     1437.82       500      610      700      900      950      970     1000      129      960     1100   
                                          VAR    BASINP    GEOM    SYMINP    ZMAT    AOBASIS   BASIS     P2S    ABASIS      S 
                                         1400     1410     1200     1210     1080     1600     1650     1300     1700   
                                           T        V       H0       H01     AOSYM     SMH    MOLCAS    ERIS     OPER   

              2       5        3.40       700     1000      520     2100     2101   
                                         GEOM     BASIS   MCVARS     RHF      RHF  

 PROGRAMS   *        TOTAL    HF-SCF    HF-SCF       INT
 CPU TIMES  *        61.30      5.27     32.77     23.17
 REAL TIME  *        74.67 SEC
 DISK USED  *         6.69 GB
 **********************************************************************************************************************************


 PROGRAM * PAPT (Closed-shell)     Authors: C. Hampel, H.-J. Werner, 1991, P.J. Knowles, 2021


 Convergence thresholds:  THRVAR = 1.00D-08  THRDEN = 1.00D-06

 Number of core orbitals:          24 (  24 )
 Number of closed-shell orbitals:  24 (  24 )
 Number of external orbitals:     208 ( 208 )

 Molecular orbitals read from record     2101.2  Type=RHF/CANONICAL  

 Number of N-1 electron functions:              24
 Number of N-2 electron functions:             300
 Number of singly external CSFs:              4992
 Number of doubly external CSFs:          12462528
 Total number of CSFs:                    12467521

 Length of J-op  integral file:               0.00 MB
 Length of K-op  integral file:               4.56 MB

 Integral transformation finished. Total CPU:   9.50 sec, npass=  1  Memory used:  32.94 MW

 Reference energy:                  -1889.53921842

                        CORR.ENERGY   TOTAL ENERGY   ENERGY CHANGE
 MP2:                   -1.63236529 -1891.17158371    -1.63236529

 SCS-MP2 correlation energy:           -1.58910905   (PS=  1.200000  PT=  0.333333)
 SCS-MP2 total energy:              -1891.12832747
 Iteration:   1     0.2611D+00
 Iteration:   2     0.4302D+00
 Iteration:   3     0.6201D-01
 Iteration:   4     0.5321D-01
 Iteration:   5     0.5413D-01
 Iteration:   6     0.1030D-01
 Iteration:   7     0.1493D-01
 Iteration:   8     0.4099D-02
 Iteration:   9     0.2797D-02
 Iteration:  10     0.3172D-02
 Iteration:  11     0.6798D-03
 Iteration:  12     0.7094D-02
 Iteration:  13     0.2999D-03
 Iteration:  14     0.5970D-03
 Iteration:  15     0.1259D-03
 Iteration:  16     0.2451D-03
 Iteration:  17     0.3876D-04
 PAPT operator written to  7000.1
 PAPT orbitals and eigenvalues written to  7000.2

 MP3(D):                -1.64339793 -1891.18261635    -0.01103264



 RESULTS
 =======

  Reference energy                  -1889.539218417523
  MP3 singlet pair energy              -1.070559704438
  MP3 triplet pair energy              -0.572838230237
  MP3 correlation energy               -1.643397934676

 !MP3 total energy                  -1891.182616352199

 Timing summary (sec):

 STEP                 CPU(USER)    SYS     CPU(TOT)    WALL
 Transformation         10.25      1.42     11.67     11.93
 CCSD iterations       171.89      2.91    174.80    118.87

 Program statistics:

 Available memory in ccsd:               393213648
 Min. memory needed in ccsd:              29901575
 Max. memory used in ccsd:                41312903
 Max. memory used in cckext:              40234285 ( 1 integral passes)



 **********************************************************************************************************************************
 DATASETS  * FILE   NREC   LENGTH (MB)   RECORD NAMES
              1      21     1664.37       500      610      700      900      950      970     1000      129      960     1100   
                                          VAR    BASINP    GEOM    SYMINP    ZMAT    AOBASIS   BASIS     P2S    ABASIS      S 
                                         1400     1410     1200     1210     1080     1600     1650     1300     1700     1380   
                                           T        V       H0       H01     AOSYM     SMH    MOLCAS    ERIS     OPER     JKOP   
                                         7000   
                                        PAPT AO    

              2       6        5.00       700     1000      520     2100     2101     7000   
                                         GEOM     BASIS   MCVARS     RHF      RHF     PAPT   

 PROGRAMS   *        TOTAL      PAPT    HF-SCF    HF-SCF       INT
 CPU TIMES  *       182.06    120.76      5.27     32.77     23.17
 REAL TIME  *       206.21 SEC
 DISK USED  *         6.69 GB
 **********************************************************************************************************************************


 PROGRAM * MP3 (Closed-shell)     Authors: C. Hampel, H.-J. Werner, 1991, M. Deegan, P.J. Knowles, 1992


 Convergence thresholds:  THRVAR = 1.00D-08  THRDEN = 1.00D-06

 Number of core orbitals:          24 (  24 )
 Number of closed-shell orbitals:  24 (  24 )
 Number of external orbitals:     208 ( 208 )

 Molecular orbitals read from record     7000.2  Type=PAPT/CANONICAL (state 1.1)

 Number of N-1 electron functions:              24
 Number of N-2 electron functions:             300
 Number of singly external CSFs:              4992
 Number of doubly external CSFs:          12462528
 Total number of CSFs:                    12467521

 Length of J-op  integral file:               0.00 MB
 Length of K-op  integral file:               4.56 MB

 Integral transformation finished. Total CPU:  12.30 sec, npass=  1  Memory used:  32.94 MW
 Orbital energies read from record       7000.2  Type=PAPT/CANONICAL (state 1.1)

 Reference energy:                  -1889.53921842

                        CORR.ENERGY   TOTAL ENERGY   ENERGY CHANGE
 MP2:                   -1.66570378 -1891.20492220    -1.66570378

 SCS-MP2 correlation energy:           -1.63247828   (PS=  1.200000  PT=  0.333333)
 SCS-MP2 total energy:              -1891.17169670

 MP3(D):                -1.66665941 -1891.20587783    -0.00095564



 RESULTS
 =======

  Reference energy                  -1889.539218417521
  MP3 singlet pair energy              -1.087291580211
  MP3 triplet pair energy              -0.579367834472
  MP3 correlation energy               -1.666659414683

 !MP3 total energy                  -1891.205877832204

 Timing summary (sec):

 STEP                 CPU(USER)    SYS     CPU(TOT)    WALL
 Transformation         16.69      1.70     18.39     18.98
 CCSD iterations       250.31      2.03    252.34     69.27

 Program statistics:

 Available memory in ccsd:               393213648
 Min. memory needed in ccsd:              29901575
 Max. memory used in ccsd:                41312903
 Max. memory used in cckext:              40234285 ( 1 integral passes)



 **********************************************************************************************************************************
 DATASETS  * FILE   NREC   LENGTH (MB)   RECORD NAMES
              1      21     1664.37       500      610      700      900      950      970     1000      129      960     1100   
                                          VAR    BASINP    GEOM    SYMINP    ZMAT    AOBASIS   BASIS     P2S    ABASIS      S 
                                         1400     1410     1200     1210     1080     1600     1650     1300     1700     1380   
                                           T        V       H0       H01     AOSYM     SMH    MOLCAS    ERIS     OPER     JKOP   
                                         7000   
                                        PAPT AO    

              2       6        5.00       700     1000      520     2100     2101     7000   
                                         GEOM     BASIS   MCVARS     RHF      RHF     PAPT   

 PROGRAMS   *        TOTAL       MP3      PAPT    HF-SCF    HF-SCF       INT
 CPU TIMES  *       266.92     84.86    120.76      5.27     32.77     23.17
 REAL TIME  *       294.69 SEC
 DISK USED  *         6.69 GB
 **********************************************************************************************************************************

 Dump information in style XML to xml output                                                                      

 Orbitals will not be exported.

 **********************************************************************************************************************************

 MP3/cc-pVTZ energy=  -1891.205877832204

             MP3            PAPT          HF-SCF          HF-SCF
  -1891.20587783  -1891.18261635  -1889.53921842  -1889.53921842
 **********************************************************************************************************************************
 Molpro calculation terminated
