
 Working directory              : /var/folders/2v/xbgp75_9785319ghcgb4zr4r0000gp/T//molpro.JmwSWcm7jW/
 Global scratch directory       : /var/folders/2v/xbgp75_9785319ghcgb4zr4r0000gp/T//molpro.JmwSWcm7jW/
 Wavefunction directory         : /Users/sacpjk/wfu/
 Main file repository           : /var/folders/2v/xbgp75_9785319ghcgb4zr4r0000gp/T//molpro.JmwSWcm7jW/

 id        : peterk

 Nodes                        nprocs
 Cardiff-University-G34YLXT77Y    1
 GA implementation: MPI file
 GA implementation (serial work in mppx): MPI file

 Using customized tuning parameters: mindgm=1; mindgv=20; mindgc=4; mindgr=1; noblas=0; minvec=7
 default implementation of scratch files=df  


 Variables initialized (1032), CPU time= 0.00 sec
 
 symmetry,nosym
 
 
 geometry={
            7
     F          2.24953292     -0.16163470     -0.00906451
     C          0.83989310      0.02030650      0.00310752
     H          0.35178382     -0.87134447     -0.36481550
     H          0.52242274      0.21318049      1.01958309
     H          0.60022397      0.86229312     -0.63454561
     O         -1.81896698     -0.15832046     -0.00598050
     H         -2.74488958      0.09551952     -0.00828450
 }
 basis=cc-pVTZ
 
 charge=-1
 
 hf; ccsd
 
 
 
 {put,xml;noorbitals,nobasis}
 Commands initialized (841), CPU time= 0.01 sec, 704 directives.
 Default parameters read. Elapsed time= 0.80 sec

 Checking input...
 Passed
1


                                         ***  PROGRAM SYSTEM MOLPRO  ***
                                       Copyright, TTI GmbH Stuttgart, 2015
                                    Version 2023.1 linked Tue Jun  6 09:54:11 2023


 **********************************************************************************************************************************
 LABEL *                                                                                                                                                                 
  64 bit serial version                                                                  DATE: 09-Jun-23          TIME: 15:35:12  
 **********************************************************************************************************************************

 SHA1:             8ebb0dd001088a5c915591db1a321413035db0b1
 **********************************************************************************************************************************

 Memory per process:       805 MW
 Total memory per node:   1074 MW
 Total GA space:           268 MW

 GA preallocation disabled
 GA check enabled

 Variable memory set to 805.3 MW

 ZSYMEL=NOSYM


 Geometry recognized as XYZ

 SETTING BASIS          =    CC-PVTZ
 SETTING CHARGE         =        -1.00000000                                  


 Recomputing integrals since basis changed


 Using spherical harmonics

 Library entry F      S cc-pVTZ              selected for orbital group  1
 Library entry F      P cc-pVTZ              selected for orbital group  1
 Library entry F      D cc-pVTZ              selected for orbital group  1
 Library entry F      F cc-pVTZ              selected for orbital group  1
 Library entry C      S cc-pVTZ              selected for orbital group  2
 Library entry C      P cc-pVTZ              selected for orbital group  2
 Library entry C      D cc-pVTZ              selected for orbital group  2
 Library entry C      F cc-pVTZ              selected for orbital group  2
 Library entry H      S cc-pVTZ              selected for orbital group  3
 Library entry H      P cc-pVTZ              selected for orbital group  3
 Library entry H      D cc-pVTZ              selected for orbital group  3
 Library entry O      S cc-pVTZ              selected for orbital group  4
 Library entry O      P cc-pVTZ              selected for orbital group  4
 Library entry O      D cc-pVTZ              selected for orbital group  4
 Library entry O      F cc-pVTZ              selected for orbital group  4


 PROGRAM * SEWARD (Integral evaluation for generally contracted gaussian basis sets)     Author: Roland Lindh, 1990

 Geometry written to block  1 of record 700


 Point group  C1  



 ATOMIC COORDINATES

 NR  ATOM    CHARGE       X              Y              Z

   1  F       9.00    4.251001127   -0.305445315   -0.017129441
   2  C       6.00    1.587167933    0.038373724    0.005872362
   3  H       1.00    0.664775075   -1.646602409   -0.689401381
   4  H       1.00    0.987235900    0.402852741    1.926732801
   5  H       1.00    1.134258917    1.629497836   -1.199117416
   6  O       8.00   -3.437349422   -0.299182309   -0.011301507
   7  H       1.00   -5.187089549    0.180505732   -0.015655436

 Bond lengths in Bohr (Angstrom)

 1-2  2.686028276  2-3  2.042880008  2-4  2.045108366  2-5  2.046656513  6-7  1.814307054
     ( 1.421384952)     ( 1.081045545)     ( 1.082224741)     ( 1.083043985)     ( 0.960089946)

 Bond angles

  1-2-3  109.83382105   1-2-4  108.77070472   1-2-5  108.29649717   3-2-4  109.52435453

  3-2-5  109.93347062   4-2-5  110.45808017

 NUCLEAR CHARGE:                   27
 NUMBER OF PRIMITIVE AOS:         209
 NUMBER OF SYMMETRY AOS:          190
 NUMBER OF CONTRACTIONS:          146   (  146A   )
 NUMBER OF INNER CORE ORBITALS:     0   (    0A   )
 NUMBER OF OUTER CORE ORBITALS:     3   (    3A   )
 NUMBER OF VALENCE ORBITALS:       16   (   16A   )


 NUCLEAR REPULSION ENERGY   67.43070998


 Eigenvalues of metric

         1 0.122E-02 0.184E-02 0.188E-02 0.248E-02 0.335E-02 0.522E-02 0.741E-02 0.101E-01


 Contracted 2-electron integrals neglected if value below      1.0D-11
 AO integral compression algorithm  1   Integral accuracy      1.0D-11

     194.249 MB (compressed) written to integral file ( 39.1%)


 NUMBER OF SORTED TWO-ELECTRON INTEGRALS:   57582546.     BUFFER LENGTH:  32768
 NUMBER OF SEGMENTS:   4  SEGMENT LENGTH:   15999503      RECORD LENGTH: 524288

 Memory used in sort:      16.56 MW

 SORT1 READ    62108967. AND WROTE    45659278. INTEGRALS IN    134 RECORDS. CPU TIME:     0.42 SEC, REAL TIME:     0.60 SEC
 SORT2 READ    45659278. AND WROTE    57582546. INTEGRALS IN    741 RECORDS. CPU TIME:     0.45 SEC, REAL TIME:     0.59 SEC

 FILE SIZES:   FILE 1:   225.1 MBYTE,  FILE 4:   562.1 MBYTE,   TOTAL:    787.2 MBYTE

 OPERATOR DM      FOR CENTER  0  COORDINATES:    0.000000    0.000000    0.000000


 **********************************************************************************************************************************
 DATASETS  * FILE   NREC   LENGTH (MB)   RECORD NAMES
              1      19      190.04       500      610      700      900      950      970     1000      129      960     1100   
                                          VAR    BASINP    GEOM    SYMINP    ZMAT    AOBASIS   BASIS     P2S    ABASIS      S 
                                         1400     1410     1200     1210     1080     1600     1650     1300     1700   
                                           T        V       H0       H01     AOSYM     SMH    MOLCAS    ERIS     OPER   

 PROGRAMS   *        TOTAL       INT
 CPU TIMES  *         2.32      2.23
 REAL TIME  *         4.41 SEC
 DISK USED  *       751.23 MB
 **********************************************************************************************************************************


 Program * Restricted Hartree-Fock

 Orbital guess generated from atomic densities. Full valence occupancy:   19

 Initial occupancy:  14

 NELEC=   28   SYM=1   MS2= 0   THRE=1.0D-08   THRD=3.2D-06   THRG=3.2D-06  HFMA2=F  DIIS_START=2   DIIS_MAX=10   DIIS_INCORE=F

 Level shifts:    0.00 (CLOSED)    0.00 (OPEN)    0.30 (GAP_MIN)

 ITER           ETOT              DE          GRAD        DDIFF     DIIS  NEXP   TIME(IT)  TIME(TOT)  DIAG
   1     -214.36047022    -214.36047022     0.00D+00     0.70D-01     0     0       0.25      0.49    start
   2     -214.44003655      -0.07956633     0.96D-02     0.14D-01     1     0       0.25      0.74    diag
   3     -214.50325756      -0.06322101     0.73D-02     0.58D-02     2     0       0.26      1.00    diag
   4     -214.50381978      -0.00056221     0.44D-03     0.59D-03     3     0       0.25      1.25    diag
   5     -214.50387462      -0.00005484     0.16D-03     0.21D-03     4     0       0.25      1.50    diag
   6     -214.50388116      -0.00000654     0.57D-04     0.67D-04     5     0       0.26      1.76    diag
   7     -214.50388189      -0.00000073     0.15D-04     0.26D-04     6     0       0.26      2.02    diag
   8     -214.50388196      -0.00000007     0.38D-05     0.88D-05     7     0       0.27      2.29    fixocc
   9     -214.50388196      -0.00000001     0.11D-05     0.24D-05     8     0       0.26      2.55    diag
  10     -214.50388196      -0.00000000     0.27D-06     0.48D-06     0     0       0.25      2.80    diag/orth

 Final occupancy:  14

 !RHF STATE 1.1 Energy               -214.503881963403
  RHF One-electron energy            -437.829008194645
  RHF Two-electron energy             155.894416255833
  RHF Kinetic energy                  214.528222508383
  RHF Nuclear energy                   67.430709975409
  RHF Virial quotient                  -0.999886539194

 !RHF STATE 1.1 Dipole moment           1.53520911     0.46923449     0.01607485
 Dipole moment /Debye                   3.90211235     1.19267512     0.04085819

 Orbital energies:

           1.1          2.1          3.1          4.1          5.1          6.1          7.1          8.1          9.1         10.1
    -26.092630   -20.149053   -11.104343    -1.397254    -0.891733    -0.757678    -0.506326    -0.504962    -0.480985    -0.345580

          11.1         12.1         13.1         14.1         15.1         16.1
     -0.342560    -0.239192    -0.104330    -0.103479     0.323263     0.393373


 HOMO     14.1    -0.103479 =      -2.8158eV
 LUMO     15.1     0.323263 =       8.7964eV
 LUMO-HOMO         0.426741 =      11.6122eV

 Orbitals saved in record  2100.2


 **********************************************************************************************************************************
 DATASETS  * FILE   NREC   LENGTH (MB)   RECORD NAMES
              1      19      190.04       500      610      700      900      950      970     1000      129      960     1100   
                                          VAR    BASINP    GEOM    SYMINP    ZMAT    AOBASIS   BASIS     P2S    ABASIS      S 
                                         1400     1410     1200     1210     1080     1600     1650     1300     1700   
                                           T        V       H0       H01     AOSYM     SMH    MOLCAS    ERIS     OPER   

              2       4        0.82       700     1000      520     2100   
                                         GEOM     BASIS   MCVARS     RHF  

 PROGRAMS   *        TOTAL    HF-SCF       INT
 CPU TIMES  *         5.12      2.80      2.23
 REAL TIME  *         7.85 SEC
 DISK USED  *       751.23 MB
 **********************************************************************************************************************************


 PROGRAM * CCSD (Closed-shell coupled cluster)     Authors: C. Hampel, H.-J. Werner, 1991, M. Deegan, P.J. Knowles, 1992


 Convergence thresholds:  THRVAR = 1.00D-08  THRDEN = 1.00D-06

 Number of core orbitals:           3 (   3 )
 Number of closed-shell orbitals:  11 (  11 )
 Number of external orbitals:     132 ( 132 )

 Molecular orbitals read from record     2100.2  Type=RHF/CANONICAL  

 Number of N-1 electron functions:              11
 Number of N-2 electron functions:              66
 Number of singly external CSFs:              1452
 Number of doubly external CSFs:           1054878
 Total number of CSFs:                     1056331

 Length of J-op  integral file:               0.00 MB
 Length of K-op  integral file:               1.53 MB
 Length of 3-ext integral record:             0.00 MB

 Integral transformation finished. Total CPU:   1.29 sec, npass=  1  Memory used:  21.61 MW

 Reference energy:                   -214.50388196

 MP2 singlet pair energy:              -0.44793611
 MP2 triplet pair energy:              -0.25614343
 MP2 correlation energy:               -0.70407954
 MP2 total energy:                   -215.20796151

 SCS-MP2 correlation energy:           -0.69690147   (PS=  1.200000  PT=  0.333333)
 SCS-MP2 total energy:               -215.20078343

 ITER.      SQ.NORM     CORR.ENERGY   TOTAL ENERGY   ENERGY CHANGE        DEN1      VAR(S)    VAR(P)  DIIS     TIME  TIME/IT
   1      1.16936150    -0.72031288  -215.22419485    -0.01623334     0.00013916  0.26D-02  0.28D-02  1  1     8.46     2.13
   2      1.18014511    -0.72100195  -215.22488391    -0.00068907    -0.01398289  0.26D-04  0.36D-03  2  2    10.41     2.23
   3      1.18406098    -0.72121741  -215.22509938    -0.00021546    -0.00247941  0.40D-04  0.17D-04  3  3    12.25     2.20
   4      1.18525357    -0.72116813  -215.22505010     0.00004928    -0.00061632  0.27D-05  0.27D-05  4  4    14.26     2.24
   5      1.18562554    -0.72116829  -215.22505026    -0.00000016    -0.00011564  0.12D-05  0.25D-06  5  5    16.26     2.25
   6      1.18574254    -0.72116360  -215.22504556     0.00000470    -0.00001734  0.29D-06  0.57D-07  6  6    17.97     2.20
   7      1.18579486    -0.72116057  -215.22504253     0.00000303    -0.00000337  0.57D-07  0.14D-07  6  1    19.70     2.17
   8      1.18582132    -0.72115944  -215.22504140     0.00000113    -0.00000502  0.88D-08  0.20D-08  6  2    21.44     2.14
   9      1.18582803    -0.72115938  -215.22504134     0.00000006     0.00000139  0.14D-08  0.37D-09  6  3    23.14     2.11
  10      1.18583032    -0.72115919  -215.22504115     0.00000019    -0.00000061  0.57D-09  0.72D-10  6  4    24.92     2.10

 Norm of t1 vector:      0.06639512      S-energy:     0.00000043      T1 diagnostic:  0.01000944
                                                                       D1 diagnostic:  0.02777181
                                                                       D2 diagnostic:  0.13590392 (internal)


 RESULTS
 =======

  Reference energy                   -214.503881963403
  CCSD singlet pair energy             -0.492006194902
  CCSD triplet pair energy             -0.229153419112
  CCSD correlation energy              -0.721159188255

 !CCSD total energy                  -215.225041151658

 Timing summary (sec):

 STEP                 CPU(USER)    SYS     CPU(TOT)    WALL
 Transformation          1.32      0.18      1.50      1.68
 CCSD iterations        23.63      1.04     24.67     21.16

 Program statistics:

 Available memory in ccsd:               805305870
 Min. memory needed in ccsd:               2884166
 Max. memory used in ccsd:                 3801126
 Max. memory used in cckext:               3021045 (10 integral passes)



 **********************************************************************************************************************************
 DATASETS  * FILE   NREC   LENGTH (MB)   RECORD NAMES
              1      20      303.74       500      610      700      900      950      970     1000      129      960     1100   
                                          VAR    BASINP    GEOM    SYMINP    ZMAT    AOBASIS   BASIS     P2S    ABASIS      S 
                                         1400     1410     1200     1210     1080     1600     1650     1300     1700     1380   
                                           T        V       H0       H01     AOSYM     SMH    MOLCAS    ERIS     OPER     JKOP   

              2       4        0.82       700     1000      520     2100   
                                         GEOM     BASIS   MCVARS     RHF  

 PROGRAMS   *        TOTAL      CCSD    HF-SCF       INT
 CPU TIMES  *        24.86     19.73      2.80      2.23
 REAL TIME  *        30.87 SEC
 DISK USED  *       751.23 MB
 **********************************************************************************************************************************

 Dump information in style XML to xml output                                                                      

 Orbitals will not be exported.

 **********************************************************************************************************************************

 CCSD/cc-pVTZ energy=   -215.225041151658

            CCSD          HF-SCF
   -215.22504115   -214.50388196
 **********************************************************************************************************************************
 Molpro calculation terminated
