
 Working directory              : /var/folders/2v/xbgp75_9785319ghcgb4zr4r0000gp/T//molpro.OF5ZtPo1s6/
 Global scratch directory       : /var/folders/2v/xbgp75_9785319ghcgb4zr4r0000gp/T//molpro.OF5ZtPo1s6/
 Wavefunction directory         : /Users/sacpjk/wfu/
 Main file repository           : /var/folders/2v/xbgp75_9785319ghcgb4zr4r0000gp/T//molpro.OF5ZtPo1s6/

 id        : peterk

 Nodes                        nprocs
 Cardiff-University-G34YLXT77Y    1
 GA implementation: MPI file
 GA implementation (serial work in mppx): MPI file

 Using customized tuning parameters: mindgm=1; mindgv=20; mindgc=4; mindgr=1; noblas=0; minvec=7
 default implementation of scratch files=df  


 Variables initialized (1032), CPU time= 0.00 sec
 
 symmetry,nosym
 
 
 geometry={
            6
     C         -0.13926933      0.33472048      0.00000000
     O         -0.13926933     -1.08341104      0.00000000
     H         -1.17980283      0.64759124      0.00000000
     H          0.76774408     -1.38539133      0.00000000
     H          0.34529870      0.74324532      0.88954166
     H          0.34529870      0.74324532     -0.88954166
 }
 basis=cc-pVTZ
 
 
 
 hf; ccsd(t)
 
 
 
 {put,xml;noorbitals,nobasis}
 Commands initialized (841), CPU time= 0.01 sec, 704 directives.
 Default parameters read. Elapsed time= 0.11 sec

 Checking input...
 Passed
1


                                         ***  PROGRAM SYSTEM MOLPRO  ***
                                       Copyright, TTI GmbH Stuttgart, 2015
                                    Version 2023.1 linked Tue Jun  6 09:54:11 2023


 **********************************************************************************************************************************
 LABEL *                                                                                                                                                                 
  64 bit serial version                                                                  DATE: 09-Jun-23          TIME: 15:39:58  
 **********************************************************************************************************************************

 SHA1:             8ebb0dd001088a5c915591db1a321413035db0b1
 **********************************************************************************************************************************

 Memory per process:       805 MW
 Total memory per node:   1074 MW
 Total GA space:           268 MW

 GA preallocation disabled
 GA check enabled

 Variable memory set to 805.3 MW

 ZSYMEL=NOSYM


 Geometry recognized as XYZ

 SETTING BASIS          =    CC-PVTZ


 Recomputing integrals since basis changed


 Using spherical harmonics

 Library entry C      S cc-pVTZ              selected for orbital group  1
 Library entry C      P cc-pVTZ              selected for orbital group  1
 Library entry C      D cc-pVTZ              selected for orbital group  1
 Library entry C      F cc-pVTZ              selected for orbital group  1
 Library entry O      S cc-pVTZ              selected for orbital group  2
 Library entry O      P cc-pVTZ              selected for orbital group  2
 Library entry O      D cc-pVTZ              selected for orbital group  2
 Library entry O      F cc-pVTZ              selected for orbital group  2
 Library entry H      S cc-pVTZ              selected for orbital group  3
 Library entry H      P cc-pVTZ              selected for orbital group  3
 Library entry H      D cc-pVTZ              selected for orbital group  3


 PROGRAM * SEWARD (Integral evaluation for generally contracted gaussian basis sets)     Author: Roland Lindh, 1990

 Geometry written to block  1 of record 700


 Point group  C1  



 ATOMIC COORDINATES

 NR  ATOM    CHARGE       X              Y              Z

   1  C       6.00   -0.263180891    0.632530036    0.000000000
   2  O       8.00   -0.263180891   -2.047350146    0.000000000
   3  H       1.00   -2.229504230    1.223770084    0.000000000
   4  H       1.00    1.450826045   -2.618010189    0.000000000
   5  H       1.00    0.652519974    1.404530098    1.680990114
   6  H       1.00    0.652519974    1.404530098   -1.680990114

 Bond lengths in Bohr (Angstrom)

 1-2  2.679880181  1-3  2.053288160  1-5  2.064030023  1-6  2.064030023  2-4  1.806508417
     ( 1.418131520)     ( 1.086553302)     ( 1.092237651)     ( 1.092237651)     ( 0.955963086)

 Bond angles

  1-2-4  108.41462081   2-1-3  106.73514063   2-1-5  111.96410162   2-1-6  111.96410162

  3-1-5  108.49107784   3-1-6  108.49107784   5-1-6  109.06037247

 NUCLEAR CHARGE:                   18
 NUMBER OF PRIMITIVE AOS:         162
 NUMBER OF SYMMETRY AOS:          148
 NUMBER OF CONTRACTIONS:          116   (  116A   )
 NUMBER OF INNER CORE ORBITALS:     0   (    0A   )
 NUMBER OF OUTER CORE ORBITALS:     2   (    2A   )
 NUMBER OF VALENCE ORBITALS:       12   (   12A   )


 NUCLEAR REPULSION ENERGY   40.39336013


 Eigenvalues of metric

         1 0.132E-02 0.180E-02 0.190E-02 0.232E-02 0.328E-02 0.458E-02 0.725E-02 0.996E-02


 Contracted 2-electron integrals neglected if value below      1.0D-11
 AO integral compression algorithm  1   Integral accuracy      1.0D-11

     92.275 MB (compressed) written to integral file ( 43.3%)


 NUMBER OF SORTED TWO-ELECTRON INTEGRALS:   23028291.     BUFFER LENGTH:  32768
 NUMBER OF SEGMENTS:   2  SEGMENT LENGTH:   15997996      RECORD LENGTH: 524288

 Memory used in sort:      16.56 MW

 SORT1 READ    26629611. AND WROTE    18694319. INTEGRALS IN     54 RECORDS. CPU TIME:     0.16 SEC, REAL TIME:     0.23 SEC
 SORT2 READ    18694319. AND WROTE    23028291. INTEGRALS IN    352 RECORDS. CPU TIME:     0.19 SEC, REAL TIME:     0.24 SEC

 FILE SIZES:   FILE 1:   122.9 MBYTE,  FILE 4:   226.6 MBYTE,   TOTAL:    349.4 MBYTE

 OPERATOR DM      FOR CENTER  0  COORDINATES:    0.000000    0.000000    0.000000


 **********************************************************************************************************************************
 DATASETS  * FILE   NREC   LENGTH (MB)   RECORD NAMES
              1      19      107.13       500      610      700      900      950      970     1000      129      960     1100   
                                          VAR    BASINP    GEOM    SYMINP    ZMAT    AOBASIS   BASIS     P2S    ABASIS      S 
                                         1400     1410     1200     1210     1080     1600     1650     1300     1700   
                                           T        V       H0       H01     AOSYM     SMH    MOLCAS    ERIS     OPER   

 PROGRAMS   *        TOTAL       INT
 CPU TIMES  *         1.06      0.96
 REAL TIME  *         2.81 SEC
 DISK USED  *       333.65 MB
 **********************************************************************************************************************************


 Program * Restricted Hartree-Fock

 Orbital guess generated from atomic densities. Full valence occupancy:   14

 Initial occupancy:   9

 NELEC=   18   SYM=1   MS2= 0   THRE=1.0D-08   THRD=3.2D-06   THRG=3.2D-06  HFMA2=F  DIIS_START=2   DIIS_MAX=10   DIIS_INCORE=F

 Level shifts:    0.00 (CLOSED)    0.00 (OPEN)    0.30 (GAP_MIN)

 ITER           ETOT              DE          GRAD        DDIFF     DIIS  NEXP   TIME(IT)  TIME(TOT)  DIAG
   1     -115.05367149    -115.05367149     0.00D+00     0.71D-01     0     0       0.09      0.18    start
   2     -115.08195454      -0.02828304     0.63D-02     0.79D-02     1     0       0.10      0.28    diag
   3     -115.08897280      -0.00701827     0.34D-02     0.26D-02     2     0       0.10      0.38    diag
   4     -115.08947535      -0.00050255     0.66D-03     0.69D-03     3     0       0.09      0.47    diag
   5     -115.08950547      -0.00003012     0.13D-03     0.18D-03     4     0       0.09      0.56    diag
   6     -115.08950678      -0.00000131     0.24D-04     0.48D-04     5     0       0.09      0.65    diag
   7     -115.08950683      -0.00000005     0.52D-05     0.90D-05     6     0       0.10      0.75    diag
   8     -115.08950684      -0.00000000     0.16D-05     0.24D-05     7     0       0.09      0.84    fixocc
   9     -115.08950684      -0.00000000     0.42D-06     0.62D-06     0     0       0.09      0.93    diag

 Final occupancy:   9

 !RHF STATE 1.1 Energy               -115.089506838027
  RHF One-electron energy            -237.070768263939
  RHF Two-electron energy              81.587901292235
  RHF Kinetic energy                  114.963335892207
  RHF Nuclear energy                   40.393360133677
  RHF Virial quotient                  -1.001097488559

 !RHF STATE 1.1 Dipole moment           0.56426571     0.40864146    -0.00000000
 Dipole moment /Debye                   1.43422037     1.03866298    -0.00000000

 Orbital energies:

           1.1          2.1          3.1          4.1          5.1          6.1          7.1          8.1          9.1         10.1
    -20.551137   -11.268603    -1.354815    -0.924183    -0.688854    -0.618741    -0.591171    -0.501238    -0.448707     0.138794

          11.1
      0.178965


 HOMO      9.1    -0.448707 =     -12.2100eV
 LUMO     10.1     0.138794 =       3.7768eV
 LUMO-HOMO         0.587502 =      15.9867eV

 Orbitals saved in record  2100.2


 **********************************************************************************************************************************
 DATASETS  * FILE   NREC   LENGTH (MB)   RECORD NAMES
              1      19      107.13       500      610      700      900      950      970     1000      129      960     1100   
                                          VAR    BASINP    GEOM    SYMINP    ZMAT    AOBASIS   BASIS     P2S    ABASIS      S 
                                         1400     1410     1200     1210     1080     1600     1650     1300     1700   
                                           T        V       H0       H01     AOSYM     SMH    MOLCAS    ERIS     OPER   

              2       4        0.68       700     1000      520     2100   
                                         GEOM     BASIS   MCVARS     RHF  

 PROGRAMS   *        TOTAL    HF-SCF       INT
 CPU TIMES  *         1.99      0.94      0.96
 REAL TIME  *         4.60 SEC
 DISK USED  *       333.65 MB
 **********************************************************************************************************************************


 PROGRAM * CCSD (Closed-shell coupled cluster)     Authors: C. Hampel, H.-J. Werner, 1991, M. Deegan, P.J. Knowles, 1992


 Convergence thresholds:  THRVAR = 1.00D-08  THRDEN = 1.00D-06

 CCSD(T)     terms to be evaluated (factor= 1.000)


 Number of core orbitals:           2 (   2 )
 Number of closed-shell orbitals:   7 (   7 )
 Number of external orbitals:     107 ( 107 )

 Molecular orbitals read from record     2100.2  Type=RHF/CANONICAL  

 Number of N-1 electron functions:               7
 Number of N-2 electron functions:              28
 Number of singly external CSFs:               749
 Number of doubly external CSFs:            280875
 Total number of CSFs:                      281625

 Length of J-op  integral file:               0.00 MB
 Length of K-op  integral file:               0.99 MB
 Length of 3-ext integral record:             0.00 MB

 Memory could be reduced to 12.54 Mwords without degradation in triples

 Integral transformation finished. Total CPU:   0.35 sec, npass=  1  Memory used:   7.22 MW

 Reference energy:                   -115.08950684

 MP2 singlet pair energy:              -0.28074758
 MP2 triplet pair energy:              -0.14716792
 MP2 correlation energy:               -0.42791550
 MP2 total energy:                   -115.51742233

 SCS-MP2 correlation energy:           -0.42846824   (PS=  1.200000  PT=  0.333333)
 SCS-MP2 total energy:               -115.51797508

 ITER.      SQ.NORM     CORR.ENERGY   TOTAL ENERGY   ENERGY CHANGE        DEN1      VAR(S)    VAR(P)  DIIS     TIME  TIME/IT
   1      1.11762130    -0.44523913  -115.53474597    -0.01732364    -0.00704044  0.12D-02  0.18D-02  1  1     2.87     0.48
   2      1.12544196    -0.44642045  -115.53592729    -0.00118132    -0.00940192  0.16D-04  0.21D-03  2  2     3.22     0.46
   3      1.12799423    -0.44649483  -115.53600167    -0.00007438    -0.00176317  0.74D-05  0.10D-04  3  3     3.56     0.44
   4      1.12862318    -0.44649626  -115.53600310    -0.00000143    -0.00032798  0.35D-06  0.82D-06  4  4     3.86     0.43
   5      1.12872647    -0.44649800  -115.53600484    -0.00000174    -0.00003928  0.11D-06  0.64D-07  5  5     4.19     0.43
   6      1.12875099    -0.44649587  -115.53600271     0.00000213    -0.00000733  0.18D-07  0.49D-08  6  6     4.55     0.43
   7      1.12875454    -0.44649578  -115.53600262     0.00000009    -0.00000026  0.26D-08  0.89D-09  6  2     4.90     0.43
   8      1.12875588    -0.44649573  -115.53600257     0.00000005     0.00000002  0.42D-09  0.11D-09  6  1     5.27     0.44

 Norm of t1 vector:      0.04439157      S-energy:    -0.00000021      T1 diagnostic:  0.00838922
                                                                       D1 diagnostic:  0.01713774
                                                                       D2 diagnostic:  0.13688986 (internal)


 Total CPU time for triples:      3.55 sec


 RESULTS
 =======

  Reference energy                   -115.089506838027
  CCSD singlet pair energy             -0.312784914182
  CCSD triplet pair energy             -0.133710611970
  CCSD correlation energy              -0.446495732258

  Triples (T) contribution             -0.014721791501
  Total correlation energy             -0.461217523759

  CCSD total energy                  -115.536002570285
  CCSD[T] energy                     -115.551185038346
  CCSD-T energy                      -115.550461527066
 !CCSD(T) total energy               -115.550724361786

 Timing summary (sec):

 STEP                 CPU(USER)    SYS     CPU(TOT)    WALL
 Transformation          0.36      0.05      0.41      0.59
 CCSD iterations         4.92      0.24      5.16      3.88
 Triples                 3.55      0.18      3.73      3.98

 Program statistics:

 Available memory in ccsd:               805306163
 Min. memory needed in ccsd:                914097
 Max. memory used in ccsd:                 1141226
 Max. memory used in cckext:                867695 ( 8 integral passes)



 **********************************************************************************************************************************
 DATASETS  * FILE   NREC   LENGTH (MB)   RECORD NAMES
              1      20      144.68       500      610      700      900      950      970     1000      129      960     1100   
                                          VAR    BASINP    GEOM    SYMINP    ZMAT    AOBASIS   BASIS     P2S    ABASIS      S 
                                         1400     1410     1200     1210     1080     1600     1650     1300     1700     1380   
                                           T        V       H0       H01     AOSYM     SMH    MOLCAS    ERIS     OPER     JKOP   

              2       4        0.68       700     1000      520     2100   
                                         GEOM     BASIS   MCVARS     RHF  

 PROGRAMS   *        TOTAL   CCSD(T)    HF-SCF       INT
 CPU TIMES  *         8.75      6.75      0.94      0.96
 REAL TIME  *        13.30 SEC
 DISK USED  *       333.65 MB
 **********************************************************************************************************************************

 Dump information in style XML to xml output                                                                      

 Orbitals will not be exported.

 **********************************************************************************************************************************

 CCSD(T)/cc-pVTZ energy=   -115.550724361786

         CCSD(T)          HF-SCF
   -115.55072436   -115.08950684
 **********************************************************************************************************************************
 Molpro calculation terminated
