
 Working directory              : /var/folders/2v/xbgp75_9785319ghcgb4zr4r0000gp/T//molpro.wYqrkDTZ74/
 Global scratch directory       : /var/folders/2v/xbgp75_9785319ghcgb4zr4r0000gp/T//molpro.wYqrkDTZ74/
 Wavefunction directory         : /Users/sacpjk/wfu/
 Main file repository           : /var/folders/2v/xbgp75_9785319ghcgb4zr4r0000gp/T//molpro.wYqrkDTZ74/

 id        : peterk

 Nodes                        nprocs
 Cardiff-University-G34YLXT77Y    1
 GA implementation: MPI file
 GA implementation (serial work in mppx): MPI file

 Using customized tuning parameters: mindgm=1; mindgv=20; mindgc=4; mindgr=1; noblas=0; minvec=7
 default implementation of scratch files=df  


 Variables initialized (1032), CPU time= 0.00 sec
 
 core,small
 angstrom
 
 geometry={
 C;O,C,1.12887680
 }
 basis=cc-pCVQZ
 
 
 
 hf; hf; papt; mp4
 
 
 
 {put,xml;noorbitals,nobasis}
 Commands initialized (841), CPU time= 0.01 sec, 704 directives.
 Default parameters read. Elapsed time= 2.90 sec

 Checking input...
 Passed
1


                                         ***  PROGRAM SYSTEM MOLPRO  ***
                                       Copyright, TTI GmbH Stuttgart, 2015
                                    Version 2023.1 linked Tue Jun  6 09:54:11 2023


 **********************************************************************************************************************************
 LABEL *                                                                                                                                                                 
  64 bit serial version                                                                  DATE: 12-Jun-23          TIME: 10:52:50  
 **********************************************************************************************************************************

 SHA1:             8ebb0dd001088a5c915591db1a321413035db0b1
 **********************************************************************************************************************************

 Memory per process:       393 MW
 Total memory per node:    524 MW
 Total GA space:           131 MW

 GA preallocation disabled
 GA check enabled

 Variable memory set to 393.2 MW

 ZUNIT=ANG

 SETTING BASIS          =    CC-PCVQZ


 Recomputing integrals since basis changed


 Using spherical harmonics

 Library entry C      S cc-pCVQZ             selected for orbital group  1
 Library entry C      P cc-pCVQZ             selected for orbital group  1
 Library entry C      D cc-pCVQZ             selected for orbital group  1
 Library entry C      F cc-pCVQZ             selected for orbital group  1
 Library entry C      G cc-pCVQZ             selected for orbital group  1
 Library entry O      S cc-pCVQZ             selected for orbital group  2
 Library entry O      P cc-pCVQZ             selected for orbital group  2
 Library entry O      D cc-pCVQZ             selected for orbital group  2
 Library entry O      F cc-pCVQZ             selected for orbital group  2
 Library entry O      G cc-pCVQZ             selected for orbital group  2


 PROGRAM * SEWARD (Integral evaluation for generally contracted gaussian basis sets)     Author: Roland Lindh, 1990

 Geometry written to block  1 of record 700

 Orientation using atomic masses  
 Molecule type: Linear
 Symmetry elements: X,Y
 Rotational constants:      57.8043525     57.8043525      0.0000000 GHz  (calculated with average atomic masses)

 Point group  C2v 



 ATOMIC COORDINATES

 NR  ATOM    CHARGE       X              Y              Z

   1  C       6.00    0.000000000    0.000000000   -1.218511971
   2  O       8.00    0.000000000    0.000000000    0.914756009

 Bond lengths in Bohr (Angstrom)

 1-2  2.133267980
     ( 1.128876800)

 NUCLEAR CHARGE:                   14
 NUMBER OF PRIMITIVE AOS:         234
 NUMBER OF SYMMETRY AOS:          194
 NUMBER OF CONTRACTIONS:          168   (   68A1  +   40B1  +   40B2  +   20A2  )
 NUMBER OF INNER CORE ORBITALS:     0   (    0A1  +    0B1  +    0B2  +    0A2  )
 NUMBER OF OUTER CORE ORBITALS:     2   (    2A1  +    0B1  +    0B2  +    0A2  )
 NUMBER OF VALENCE ORBITALS:        8   (    4A1  +    2B1  +    2B2  +    0A2  )


 NUCLEAR REPULSION ENERGY   22.50068929

 EXTRA SYMMETRY OF AOS IN SYMMETRY 1:   1 1 1 1 1 1 1 1 1 1   1 1 1 1 1 1 2 1 2 1   2 1 2 1 2 1 2 1 2 1   2 1 3 2 1 1 1 1 1 1
                                        1 1 1 1 1 1 1 1 1 1   2 1 2 1 2 1 2 1 2 1   2 1 2 1 2 1 3 2
 EXTRA SYMMETRY OF AOS IN SYMMETRY 2:   1 1 1 1 1 1 1 1 1 1   1 1 1 2 1 2 1 2 1 2   1 1 1 1 1 1 1 1 1 1   1 1 1 2 1 2 1 2 1 2
 EXTRA SYMMETRY OF AOS IN SYMMETRY 3:   1 1 1 1 1 1 1 1 1 1   1 1 1 2 1 2 1 2 1 2   1 1 1 1 1 1 1 1 1 1   1 1 1 2 1 2 1 2 1 2
 EXTRA SYMMETRY OF AOS IN SYMMETRY 4:   1 1 1 1 1 1 1 1 1 2   1 1 1 1 1 1 1 1 1 2

 Eigenvalues of metric

         1 0.259E-04 0.280E-04 0.348E-03 0.117E-02 0.133E-02 0.200E-02 0.250E-02 0.622E-02
         2 0.160E-02 0.249E-02 0.688E-02 0.415E-01 0.937E-01 0.114E+00 0.119E+00 0.142E+00
         3 0.160E-02 0.249E-02 0.688E-02 0.415E-01 0.937E-01 0.114E+00 0.119E+00 0.142E+00
         4 0.970E-01 0.140E+00 0.191E+00 0.376E+00 0.456E+00 0.459E+00 0.584E+00 0.750E+00


 Contracted 2-electron integrals neglected if value below      1.0D-12
 AO integral compression algorithm  1   Integral accuracy      1.0D-12

     110.625 MB (compressed) written to integral file ( 41.7%)


 NUMBER OF SORTED TWO-ELECTRON INTEGRALS:   26047106.     BUFFER LENGTH:  32768
 NUMBER OF SEGMENTS:   2  SEGMENT LENGTH:   15997160      RECORD LENGTH: 524288

 Memory used in sort:      16.55 MW

 SORT1 READ    33119514. AND WROTE    16766534. INTEGRALS IN     49 RECORDS. CPU TIME:     0.27 SEC, REAL TIME:     0.32 SEC
 SORT2 READ    16766534. AND WROTE    26047106. INTEGRALS IN    422 RECORDS. CPU TIME:     0.24 SEC, REAL TIME:     0.28 SEC

 FILE SIZES:   FILE 1:   141.3 MBYTE,  FILE 4:   205.6 MBYTE,   TOTAL:    346.9 MBYTE

 OPERATOR DM      FOR CENTER  0  COORDINATES:    0.000000    0.000000    0.000000


 **********************************************************************************************************************************
 DATASETS  * FILE   NREC   LENGTH (MB)   RECORD NAMES
              1      19      110.47       500      610      700      900      950      970     1000      129      960     1100   
                                          VAR    BASINP    GEOM    SYMINP    ZMAT    AOBASIS   BASIS     P2S    ABASIS      S 
                                         1400     1410     1200     1210     1080     1600     1650     1300     1700   
                                           T        V       H0       H01     AOSYM     SMH    MOLCAS    ERIS     OPER   

 PROGRAMS   *        TOTAL       INT
 CPU TIMES  *         2.59      2.48
 REAL TIME  *         7.98 SEC
 DISK USED  *       331.16 MB
 **********************************************************************************************************************************


 Program * Restricted Hartree-Fock

 Orbital guess generated from atomic densities. Full valence occupancy:    6   2   2   0

 Initial occupancy:   5   1   1   0

 NELEC=   14   SYM=1   MS2= 0   THRE=1.0D-08   THRD=3.2D-06   THRG=3.2D-06  HFMA2=F  DIIS_START=2   DIIS_MAX=10   DIIS_INCORE=F

 Level shifts:    0.00 (CLOSED)    0.00 (OPEN)    0.30 (GAP_MIN)

 ITER           ETOT              DE          GRAD        DDIFF     DIIS  NEXP   TIME(IT)  TIME(TOT)  DIAG
   1     -112.76872693    -112.76872693     0.00D+00     0.78D-01     0     0       0.06      0.12    start
   2     -112.78105975      -0.01233282     0.80D-02     0.81D-02     1     0       0.06      0.18    diag
   3     -112.78869899      -0.00763924     0.54D-02     0.33D-02     2     0       0.06      0.24    diag
   4     -112.78899587      -0.00029688     0.10D-02     0.66D-03     3     0       0.06      0.30    diag
   5     -112.78901191      -0.00001604     0.16D-03     0.21D-03     4     0       0.06      0.36    diag
   6     -112.78901289      -0.00000097     0.33D-04     0.60D-04     5     0       0.07      0.43    diag
   7     -112.78901291      -0.00000002     0.57D-05     0.82D-05     6     0       0.06      0.49    diag
   8     -112.78901291      -0.00000000     0.12D-05     0.17D-05     7     0       0.06      0.55    fixocc
   9     -112.78901291      -0.00000000     0.28D-06     0.26D-06     0     0       0.06      0.61    diag

 Final occupancy:   5   1   1   0

 !RHF STATE 1.1 Energy               -112.789012907413
  RHF One-electron energy            -198.211733258304
  RHF Two-electron energy              62.922031061020
  RHF Kinetic energy                  112.636604059501
  RHF Nuclear energy                   22.500689289871
  RHF Virial quotient                  -1.001353102299

 !RHF STATE 1.1 Dipole moment           0.00000000     0.00000000    -0.10569863
 Dipole moment /Debye                   0.00000000     0.00000000    -0.26865912

 Orbital energies:

           1.1          2.1          3.1          4.1          5.1          6.1          7.1
    -20.664696   -11.360015    -1.520851    -0.804212    -0.554702     0.216142     0.313401

           1.2          2.2          3.2
     -0.639676     0.128322     0.345880

           1.3          2.3          3.3
     -0.639676     0.128322     0.345880

           1.4          2.4
      0.601296     1.305971


 HOMO      5.1    -0.554702 =     -15.0942eV
 LUMO      2.2     0.128322 =       3.4918eV
 LUMO-HOMO         0.683024 =      18.5860eV

 Orbitals saved in record  2100.2


 **********************************************************************************************************************************
 DATASETS  * FILE   NREC   LENGTH (MB)   RECORD NAMES
              1      19      110.47       500      610      700      900      950      970     1000      129      960     1100   
                                          VAR    BASINP    GEOM    SYMINP    ZMAT    AOBASIS   BASIS     P2S    ABASIS      S 
                                         1400     1410     1200     1210     1080     1600     1650     1300     1700   
                                           T        V       H0       H01     AOSYM     SMH    MOLCAS    ERIS     OPER   

              2       4        0.53       700     1000      520     2100   
                                         GEOM     BASIS   MCVARS     RHF  

 PROGRAMS   *        TOTAL    HF-SCF       INT
 CPU TIMES  *         3.21      0.61      2.48
 REAL TIME  *        10.26 SEC
 DISK USED  *       331.16 MB
 **********************************************************************************************************************************


 Program * Restricted Hartree-Fock

 Molecular orbitals read from record     2100.2  Type=RHF/CANONICAL  

 Initial occupancy:   5   1   1   0

 NELEC=   14   SYM=1   MS2= 0   THRE=1.0D-08   THRD=3.2D-06   THRG=3.2D-06  HFMA2=F  DIIS_START=2   DIIS_MAX=10   DIIS_INCORE=F

 Level shifts:    0.00 (CLOSED)    0.00 (OPEN)    0.30 (GAP_MIN)

 ITER           ETOT              DE          GRAD        DDIFF     DIIS  NEXP   TIME(IT)  TIME(TOT)  DIAG
   1     -112.78901291    -112.78901291     0.00D+00     0.79D-01     0     0       0.07      0.07    start
   2     -112.78901291      -0.00000000     0.13D-06     0.14D-06     1     0       0.06      0.13    diag

 Final occupancy:   5   1   1   0

 !RHF STATE 1.1 Energy               -112.789012907419
  RHF One-electron energy            -198.211750908609
  RHF Two-electron energy              62.922048711319
  RHF Kinetic energy                  112.636621951610
  RHF Nuclear energy                   22.500689289871
  RHF Virial quotient                  -1.001352943236

 !RHF STATE 1.1 Dipole moment           0.00000000     0.00000000    -0.10570751
 Dipole moment /Debye                   0.00000000     0.00000000    -0.26868169

 Orbital energies:

           1.1          2.1          3.1          4.1          5.1          6.1          7.1
    -20.664701   -11.360012    -1.520852    -0.804214    -0.554701     0.216142     0.313402

           1.2          2.2          3.2
     -0.639677     0.128322     0.345880

           1.3          2.3          3.3
     -0.639677     0.128322     0.345880

           1.4          2.4
      0.601296     1.305970


 HOMO      5.1    -0.554701 =     -15.0942eV
 LUMO      2.2     0.128322 =       3.4918eV
 LUMO-HOMO         0.683024 =      18.5860eV

 Orbitals saved in record  2101.2


 **********************************************************************************************************************************
 DATASETS  * FILE   NREC   LENGTH (MB)   RECORD NAMES
              1      19      110.47       500      610      700      900      950      970     1000      129      960     1100   
                                          VAR    BASINP    GEOM    SYMINP    ZMAT    AOBASIS   BASIS     P2S    ABASIS      S 
                                         1400     1410     1200     1210     1080     1600     1650     1300     1700   
                                           T        V       H0       H01     AOSYM     SMH    MOLCAS    ERIS     OPER   

              2       5        0.85       700     1000      520     2100     2101   
                                         GEOM     BASIS   MCVARS     RHF      RHF  

 PROGRAMS   *        TOTAL    HF-SCF    HF-SCF       INT
 CPU TIMES  *         3.34      0.13      0.61      2.48
 REAL TIME  *        10.74 SEC
 DISK USED  *       331.16 MB
 **********************************************************************************************************************************


 PROGRAM * PAPT (Closed-shell)     Authors: C. Hampel, H.-J. Werner, 1991, P.J. Knowles, 2021


 CORETYPE=SMALL

 Convergence thresholds:  THRVAR = 1.00D-08  THRDEN = 1.00D-06

 Number of closed-shell orbitals:   7 (   5   1   1   0 )
 Number of external orbitals:     161 (  63  39  39  20 )

 Molecular orbitals read from record     2101.2  Type=RHF/CANONICAL  

 Number of N-1 electron functions:               7
 Number of N-2 electron functions:              28
 Number of singly external CSFs:               393
 Number of doubly external CSFs:            170914
 Total number of CSFs:                      171308

 Length of J-op  integral file:               0.00 MB
 Length of K-op  integral file:               0.63 MB

 Integral transformation finished. Total CPU:   0.13 sec, npass=  1  Memory used:   0.33 MW

 Reference energy:                   -112.78901291

                        CORR.ENERGY   TOTAL ENERGY   ENERGY CHANGE
 MP2:                   -0.49302743  -113.28204034    -0.49302743

 SCS-MP2 correlation energy:           -0.49982900   (PS=  1.200000  PT=  0.333333)
 SCS-MP2 total energy:               -113.28884190
 Iteration:   1     0.4095D+00
 Iteration:   2     0.6197D+00
 Iteration:   3     0.2012D+00
 Iteration:   4     0.1081D+00
 Iteration:   5     0.5567D+00
 Iteration:   6     0.3216D-01
 Iteration:   7     0.4497D-01
 Iteration:   8     0.3158D-01
 Iteration:   9     0.1127D-01
 Iteration:  10     0.2430D+00
 Iteration:  11     0.2897D-02
 Iteration:  12     0.2395D-02
 Iteration:  13     0.3757D-02
 Iteration:  14     0.6291D-03
 Iteration:  15     0.1147D-02
 Iteration:  16     0.3275D-03
 Iteration:  17     0.6788D-04
 PAPT operator written to  7000.1
 PAPT orbitals and eigenvalues written to  7000.2

 MP3(D):                -0.48912077  -113.27813367     0.00390667



 RESULTS
 =======

  Reference energy                   -112.789012907419

  Correlated core orbitals:             1.1       2.1
  Orbital energies:                   -20.6647  -11.3600

  MP3 core-core energy                 -0.080719685647
  MP3 core-valence energy              -0.032531330241
  MP3 valence correlation energy       -0.375869751253

  MP3 singlet pair energy              -0.348129295576
  MP3 triplet pair energy              -0.140991471565
  MP3 correlation energy               -0.489120767141

 !MP3 total energy                   -113.278133674560

 Timing summary (sec):

 STEP                 CPU(USER)    SYS     CPU(TOT)    WALL
 Transformation          0.14      0.01      0.15      0.26
 CCSD iterations         3.84      0.08      3.92      2.17

 Program statistics:

 Available memory in ccsd:               393215799
 Min. memory needed in ccsd:                555825
 Max. memory used in ccsd:                  697307
 Max. memory used in cckext:                722237 ( 1 integral passes)



 **********************************************************************************************************************************
 DATASETS  * FILE   NREC   LENGTH (MB)   RECORD NAMES
              1      21      113.12       500      610      700      900      950      970     1000      129      960     1100   
                                          VAR    BASINP    GEOM    SYMINP    ZMAT    AOBASIS   BASIS     P2S    ABASIS      S 
                                         1400     1410     1200     1210     1080     1600     1650     1300     1700     1380   
                                           T        V       H0       H01     AOSYM     SMH    MOLCAS    ERIS     OPER     JKOP   
                                         7000   
                                        PAPT AO    

              2       6        1.14       700     1000      520     2100     2101     7000   
                                         GEOM     BASIS   MCVARS     RHF      RHF     PAPT   

 PROGRAMS   *        TOTAL      PAPT    HF-SCF    HF-SCF       INT
 CPU TIMES  *         3.89      0.54      0.13      0.61      2.48
 REAL TIME  *        13.31 SEC
 DISK USED  *       331.16 MB
 **********************************************************************************************************************************


 PROGRAM * MP4 (Closed-shell)     Authors: C. Hampel, H.-J. Werner, 1991, M. Deegan, P.J. Knowles, 1992


 CORETYPE=SMALL

 Convergence thresholds:  THRVAR = 1.00D-08  THRDEN = 1.00D-06

 MP4(T)     terms to be evaluated (factor= 0.000)


 Number of closed-shell orbitals:   7 (   5   1   1   0 )
 Number of external orbitals:     161 (  63  39  39  20 )

 Molecular orbitals read from record     7000.2  Type=PAPT/CANONICAL (state 1.1)

 Number of N-1 electron functions:               7
 Number of N-2 electron functions:              28
 Number of singly external CSFs:               393
 Number of doubly external CSFs:            170914
 Total number of CSFs:                      171308

 Length of J-op  integral file:               0.00 MB
 Length of K-op  integral file:               0.63 MB

 Memory could be reduced to 10.17 Mwords without degradation in triples

 Integral transformation finished. Total CPU:   0.27 sec, npass=  1  Memory used:   1.49 MW
 Orbital energies read from record       7000.2  Type=PAPT/CANONICAL (state 1.1)

 Reference energy:                   -112.78901291

                        CORR.ENERGY   TOTAL ENERGY   ENERGY CHANGE
 MP2:                   -0.49528317  -113.28429607    -0.49528317

 SCS-MP2 correlation energy:           -0.50530829   (PS=  1.200000  PT=  0.333333)
 SCS-MP2 total energy:               -113.29432120

 MP3(D):                -0.49540442  -113.28441733    -0.00012125
 MP4(DQ):               -0.48961851  -113.27863142     0.00578591
 MP4(SDQ):              -0.49467713  -113.28369004    -0.00505862

 Norm of t1 vector:      0.05950840      S-energy:    -0.00505862      T1 diagnostic:  0.01124603

 Largest off-diagonal element in interal  block of Fock matrix:  0.17D+00
 Largest off-diagonal element in external block of Fock matrix:  0.28D+01


 Total CPU time for triples:      1.59 sec


 RESULTS
 =======

  Reference energy                   -112.789012907419

  Correlated core orbitals:             1.1       2.1
  Orbital energies:                   -19.1514  -10.4720

  MP4(SDQ) core-core energy            -0.081136550655
  MP4(SDQ) core-valence energy         -0.032332325198
  MP4(SDQ) valence correlation ener    -0.381208254119

  MP4(SDQ) singlet pair energy         -0.347478874567
  MP4(SDQ) triplet pair energy         -0.142139638250
  MP4(SDQ) correlation energy          -0.494677129972

  Triples contribution                 -0.021048256857
  Total correlation energy             -0.515725386829

  MP4(SDQ) total energy              -113.283690037391
 !MP4(SDTQ) total energy             -113.304738294248

 Timing summary (sec):

 STEP                 CPU(USER)    SYS     CPU(TOT)    WALL
 Transformation          0.39      0.07      0.46      0.67
 CCSD iterations         4.32      0.03      4.35      0.81
 Triples                 1.59      0.12      1.71      1.83

 Program statistics:

 Available memory in ccsd:               393215799
 Min. memory needed in ccsd:                555825
 Max. memory used in ccsd:                  697307
 Max. memory used in cckext:                722237 ( 1 integral passes)



 **********************************************************************************************************************************
 DATASETS  * FILE   NREC   LENGTH (MB)   RECORD NAMES
              1      22      141.98       500      610      700      900      950      970     1000      129      960     1100   
                                          VAR    BASINP    GEOM    SYMINP    ZMAT    AOBASIS   BASIS     P2S    ABASIS      S 
                                         1400     1410     1200     1210     1080     1600     1650     1300     1700     1380   
                                           T        V       H0       H01     AOSYM     SMH    MOLCAS    ERIS     OPER     JKOP   
                                         7000     1380(1)
                                        PAPT AO   JKOP   

              2       6        1.14       700     1000      520     2100     2101     7000   
                                         GEOM     BASIS   MCVARS     RHF      RHF     PAPT   

 PROGRAMS   *        TOTAL       MP4      PAPT    HF-SCF    HF-SCF       INT
 CPU TIMES  *         6.21      2.32      0.54      0.13      0.61      2.48
 REAL TIME  *        17.51 SEC
 DISK USED  *       331.16 MB
 **********************************************************************************************************************************

 Dump information in style XML to xml output                                                                      

 Orbitals will not be exported.

 **********************************************************************************************************************************

 MP4/cc-pCVQZ energy=   -113.304738294248

             MP4            PAPT          HF-SCF          HF-SCF
   -113.30473829   -113.27813367   -112.78901291   -112.78901291
 **********************************************************************************************************************************
 Molpro calculation terminated
