
 Working directory              : /var/folders/2v/xbgp75_9785319ghcgb4zr4r0000gp/T//molpro.eQIemO68Q3/
 Global scratch directory       : /var/folders/2v/xbgp75_9785319ghcgb4zr4r0000gp/T//molpro.eQIemO68Q3/
 Wavefunction directory         : /Users/sacpjk/wfu/
 Main file repository           : /var/folders/2v/xbgp75_9785319ghcgb4zr4r0000gp/T//molpro.eQIemO68Q3/

 id        : peterk

 Nodes                        nprocs
 Cardiff-University-G34YLXT77Y    1
 GA implementation: MPI file
 GA implementation (serial work in mppx): MPI file

 Using customized tuning parameters: mindgm=1; mindgv=20; mindgc=4; mindgr=1; noblas=0; minvec=7
 default implementation of scratch files=df  


 Variables initialized (1032), CPU time= 0.00 sec
 
 symmetry,nosym
 
 
 geometry={
           16
     H         -0.14488305      1.24400044      2.88882353
     C         -0.07937003      0.72142926      1.93826519
     C         -0.12869305      1.40898550      0.77551778
     C          0.07937003     -0.72142926      1.93826519
     C          0.12869305     -1.40898550      0.77551778
     H          0.14488305     -1.24400044      2.88882353
     H         -0.22121808      2.49234589      0.77554378
     C         -0.00672700      0.74846727     -0.52330869
     C          0.00672700     -0.74846727     -0.52330869
     H          0.22121808     -2.49234589      0.77554378
     C          0.12869305      1.49744753     -1.64147408
     C         -0.12869305     -1.49744753     -1.64147408
     H          0.08954603      2.58173092     -1.59097507
     H          0.29445710      1.06448038     -2.62239243
     H         -0.29445710     -1.06448038     -2.62239243
     H         -0.08954603     -2.58173092     -1.59097507
 }
 basis=cc-pVTZ
 
 
 
 hf; ccsd
 
 
 
 {put,xml;noorbitals,nobasis}
 Commands initialized (841), CPU time= 0.01 sec, 704 directives.
 Default parameters read. Elapsed time= 0.07 sec

 Checking input...
 Passed
1


                                         ***  PROGRAM SYSTEM MOLPRO  ***
                                       Copyright, TTI GmbH Stuttgart, 2015
                                    Version 2023.1 linked Tue Jun  6 09:54:11 2023


 **********************************************************************************************************************************
 LABEL *                                                                                                                                                                 
  64 bit serial version                                                                  DATE: 11-Jun-23          TIME: 07:36:02  
 **********************************************************************************************************************************

 SHA1:             8ebb0dd001088a5c915591db1a321413035db0b1
 **********************************************************************************************************************************

 Memory per process:       393 MW
 Total memory per node:    524 MW
 Total GA space:           131 MW

 GA preallocation disabled
 GA check enabled

 Variable memory set to 393.2 MW

 ZSYMEL=NOSYM


 Geometry recognized as XYZ

 SETTING BASIS          =    CC-PVTZ


 Recomputing integrals since basis changed


 Using spherical harmonics

 Library entry H      S cc-pVTZ              selected for orbital group  1
 Library entry H      P cc-pVTZ              selected for orbital group  1
 Library entry H      D cc-pVTZ              selected for orbital group  1
 Library entry C      S cc-pVTZ              selected for orbital group  2
 Library entry C      P cc-pVTZ              selected for orbital group  2
 Library entry C      D cc-pVTZ              selected for orbital group  2
 Library entry C      F cc-pVTZ              selected for orbital group  2


 PROGRAM * SEWARD (Integral evaluation for generally contracted gaussian basis sets)     Author: Roland Lindh, 1990

 Geometry written to block  1 of record 700


 Point group  C1  



 ATOMIC COORDINATES

 NR  ATOM    CHARGE       X              Y              Z

   1  H       1.00   -0.273789285    2.350820131    5.459085294
   2  C       6.00   -0.149987619    1.363303720    3.662790366
   3  C       6.00   -0.243194619    2.662596709    1.465516209
   4  C       6.00    0.149987619   -1.363303720    3.662790366
   5  C       6.00    0.243194619   -2.662596709    1.465516209
   6  H       1.00    0.273789285   -2.350820131    5.459085294
   7  H       1.00   -0.418041585    4.709851140    1.465565342
   8  C       6.00   -0.012712188    1.414398154   -0.988910103
   9  C       6.00    0.012712188   -1.414398154   -0.988910103
  10  H       1.00    0.418041585   -4.709851140    1.465565342
  11  C       6.00    0.243194619    2.829765718   -3.101936452
  12  C       6.00   -0.243194619   -2.829765718   -3.101936452
  13  H       1.00    0.169217472    4.878764366   -3.006507153
  14  H       1.00    0.556443274    2.011576383   -4.955603484
  15  H       1.00   -0.556443274   -2.011576383   -4.955603484
  16  H       1.00   -0.169217472   -4.878764366   -3.006507153

 Bond lengths in Bohr (Angstrom)

 1-2  2.053580040  2-3  2.554381243  2-4  2.743059108  3-7  2.054707320  3-8  2.763210145
     ( 1.086707758)     ( 1.351720342)     ( 1.451564368)     ( 1.087304289)     ( 1.462227837)

  4- 5  2.554381243   4- 6  2.053580040   5- 9  2.763210145   5-10  2.054707320   8- 9  2.828910558
       ( 1.351720342)       ( 1.086707758)       ( 1.462227837)       ( 1.087304289)       ( 1.496994999)

  8-11  2.556097413   9-12  2.556097413  11-13  2.052553247  11-14  2.050278023  12-15  2.050278023
       ( 1.352628500)       ( 1.352628500)       ( 1.086164402)       ( 1.084960406)       ( 1.084960406)

 12-16  2.052553247
       ( 1.086164402)

 Bond angles

  1-2-3  120.37310675   1-2-4  118.98523299   2-3-7  120.65665132   2-3-8  122.09063715

  2-4-5  120.63668491   2-4-6  118.98523299   3-2-4  120.63668491   3-8-9  116.90110185

  3- 8-11  119.50545488   4- 5- 9  122.09063715   4- 5-10  120.65665132   5- 4- 6  120.37310675

  5- 9- 8  116.90110185   5- 9-12  119.50545488   7- 3- 8  117.20664928   8- 9-12  123.55931298

  8-11-13  120.71185850   8-11-14  122.80045878   9- 5-10  117.20664928   9- 8-11  123.55931298

  9-12-15  122.80045878   9-12-16  120.71185850  13-11-14  116.48174274  15-12-16  116.48174274

 NUCLEAR CHARGE:                   56
 NUMBER OF PRIMITIVE AOS:         512
 NUMBER OF SYMMETRY AOS:          464
 NUMBER OF CONTRACTIONS:          352   (  352A   )
 NUMBER OF INNER CORE ORBITALS:     0   (    0A   )
 NUMBER OF OUTER CORE ORBITALS:     8   (    8A   )
 NUMBER OF VALENCE ORBITALS:       40   (   40A   )


 NUCLEAR REPULSION ENERGY  323.99277370


 Eigenvalues of metric

         1 0.339E-04 0.109E-03 0.239E-03 0.239E-03 0.339E-03 0.381E-03 0.521E-03 0.601E-03


 Contracted 2-electron integrals neglected if value below      1.0D-12
 AO integral compression algorithm  1   Integral accuracy      1.0D-12

     6199.968 MB (compressed) written to integral file ( 39.8%)


 NUMBER OF SORTED TWO-ELECTRON INTEGRALS: 1929975256.     BUFFER LENGTH:  32768
 NUMBER OF SEGMENTS:  61  SEGMENT LENGTH:   31999951      RECORD LENGTH: 524288

 Memory used in sort:      32.56 MW

 SORT1 READ  1947970047. AND WROTE  1530200188. INTEGRALS IN   4412 RECORDS. CPU TIME:    16.40 SEC, REAL TIME:    33.40 SEC
 SORT2 READ  1530200188. AND WROTE  1929975256. INTEGRALS IN  23651 RECORDS. CPU TIME:    11.15 SEC, REAL TIME:    29.65 SEC

 FILE SIZES:   FILE 1:  6234.8 MBYTE,  FILE 4: 18505.3 MBYTE,   TOTAL:  24740.1 MBYTE

 OPERATOR DM      FOR CENTER  0  COORDINATES:    0.000000    0.000000    0.000000


 **********************************************************************************************************************************
 DATASETS  * FILE   NREC   LENGTH (MB)   RECORD NAMES
              1      19     5545.89       500      610      700      900      950      970     1000      129      960     1100   
                                          VAR    BASINP    GEOM    SYMINP    ZMAT    AOBASIS   BASIS     P2S    ABASIS      S 
                                         1400     1410     1200     1210     1080     1600     1650     1300     1700   
                                           T        V       H0       H01     AOSYM     SMH    MOLCAS    ERIS     OPER   

 PROGRAMS   *        TOTAL       INT
 CPU TIMES  *        71.97     71.87
 REAL TIME  *       144.33 SEC
 DISK USED  *        23.04 GB
 **********************************************************************************************************************************


 Program * Restricted Hartree-Fock

 Orbital guess generated from atomic densities. Full valence occupancy:   48

 Initial occupancy:  28

 NELEC=   56   SYM=1   MS2= 0   THRE=1.0D-08   THRD=3.2D-06   THRG=3.2D-06  HFMA2=F  DIIS_START=2   DIIS_MAX=10   DIIS_INCORE=F

 Level shifts:    0.00 (CLOSED)    0.00 (OPEN)    0.30 (GAP_MIN)

 ITER           ETOT              DE          GRAD        DDIFF     DIIS  NEXP   TIME(IT)  TIME(TOT)  DIAG
   1     -307.55741192    -307.55741192     0.00D+00     0.40D-01     0     0      10.37     19.77    start
   2     -307.63119708      -0.07378516     0.23D-02     0.34D-02     1     0      10.34     30.11    diag
   3     -307.63881509      -0.00761801     0.77D-03     0.10D-02     2     0      10.30     40.41    diag
   4     -307.64017986      -0.00136477     0.30D-03     0.44D-03     3     0      10.10     50.51    diag
   5     -307.64031456      -0.00013471     0.10D-03     0.12D-03     4     0      10.15     60.66    diag
   6     -307.64034397      -0.00002940     0.28D-04     0.61D-04     5     0      10.36     71.02    diag
   7     -307.64034761      -0.00000364     0.86D-05     0.21D-04     6     0      10.25     81.27    diag
   8     -307.64034777      -0.00000016     0.24D-05     0.50D-05     7     0      10.31     91.58    fixocc
   9     -307.64034778      -0.00000001     0.90D-06     0.14D-05     8     0      10.74    102.32    diag
  10     -307.64034778      -0.00000000     0.21D-06     0.47D-06     9     0      10.71    113.03    diag/orth
  11     -307.64034778      -0.00000000     0.65D-07     0.12D-06     0     0      10.49    123.52    diag

 Final occupancy:  28

 !RHF STATE 1.1 Energy               -307.640347782966
  RHF One-electron energy           -1056.531042570555
  RHF Two-electron energy             424.897921083511
  RHF Kinetic energy                  307.098823009421
  RHF Nuclear energy                  323.992773704077
  RHF Virial quotient                  -1.001763356721

 !RHF STATE 1.1 Dipole moment          -0.00000000    -0.00000000     0.02864031
 Dipole moment /Debye                  -0.00000000    -0.00000000     0.07279641

 Orbital energies:

           1.1          2.1          3.1          4.1          5.1          6.1          7.1          8.1          9.1         10.1
    -11.252055   -11.251349   -11.237542   -11.237293   -11.235980   -11.235378   -11.230718   -11.230707    -1.152531    -1.056042

          11.1         12.1         13.1         14.1         15.1         16.1         17.1         18.1         19.1         20.1
     -1.045898    -0.953572    -0.877299    -0.801545    -0.771359    -0.682957    -0.657797    -0.647311    -0.589308    -0.585092

          21.1         22.1         23.1         24.1         25.1         26.1         27.1         28.1         29.1         30.1
     -0.566497    -0.543828    -0.509080    -0.498751    -0.475162    -0.388710    -0.387849    -0.265998     0.053553     0.149266


 HOMO     28.1    -0.265998 =      -7.2382eV
 LUMO     29.1     0.053553 =       1.4573eV
 LUMO-HOMO         0.319551 =       8.6954eV

 Orbitals saved in record  2100.2


 **********************************************************************************************************************************
 DATASETS  * FILE   NREC   LENGTH (MB)   RECORD NAMES
              1      19     5545.89       500      610      700      900      950      970     1000      129      960     1100   
                                          VAR    BASINP    GEOM    SYMINP    ZMAT    AOBASIS   BASIS     P2S    ABASIS      S 
                                         1400     1410     1200     1210     1080     1600     1650     1300     1700   
                                           T        V       H0       H01     AOSYM     SMH    MOLCAS    ERIS     OPER   

              2       4        2.57       700     1000      520     2100   
                                         GEOM     BASIS   MCVARS     RHF  

 PROGRAMS   *        TOTAL    HF-SCF       INT
 CPU TIMES  *       195.50    123.53     71.87
 REAL TIME  *       371.89 SEC
 DISK USED  *        23.04 GB
 **********************************************************************************************************************************


 PROGRAM * CCSD (Closed-shell coupled cluster)     Authors: C. Hampel, H.-J. Werner, 1991, M. Deegan, P.J. Knowles, 1992


 Convergence thresholds:  THRVAR = 1.00D-08  THRDEN = 1.00D-06

 Number of core orbitals:           8 (   8 )
 Number of closed-shell orbitals:  20 (  20 )
 Number of external orbitals:     324 ( 324 )

 Molecular orbitals read from record     2100.2  Type=RHF/CANONICAL  

 Number of N-1 electron functions:              20
 Number of N-2 electron functions:             210
 Number of singly external CSFs:              6480
 Number of doubly external CSFs:          20998440
 Total number of CSFs:                    21004921

 Length of J-op  integral file:               0.00 MB
 Length of K-op  integral file:               8.57 MB
 Length of 3-ext integral record:             0.00 MB

 Multipassing necessary in transformation. To avoid, increase memory by 110.26 Mwords.

 Integral transformation finished. Total CPU: 121.96 sec, npass=  2  Memory used: 377.95 MW

 Reference energy:                   -307.64034778

 MP2 singlet pair energy:              -0.80362627
 MP2 triplet pair energy:              -0.46463564
 MP2 correlation energy:               -1.26826190
 MP2 total energy:                   -308.90860968

 SCS-MP2 correlation energy:           -1.25345814   (PS=  1.200000  PT=  0.333333)
 SCS-MP2 total energy:               -308.89380592

 ITER.      SQ.NORM     CORR.ENERGY   TOTAL ENERGY   ENERGY CHANGE        DEN1      VAR(S)    VAR(P)  DIIS     TIME  TIME/IT
   1      1.44680673    -1.30410195  -308.94444973    -0.03584005    -0.00017622  0.64D-02  0.87D-02  1  1   529.53   295.68
   2      1.48140897    -1.30916895  -308.94951673    -0.00506700    -0.03165822  0.10D-03  0.14D-02  2  2   744.16   299.40
   3      1.49684099    -1.30945615  -308.94980393    -0.00028721    -0.00696208  0.62D-04  0.16D-03  3  3   963.06   313.03
   4      1.50371132    -1.30963142  -308.94997920    -0.00017527    -0.00192365  0.35D-05  0.32D-04  4  4  1187.45   326.04
   5      1.50666678    -1.30968720  -308.95003498    -0.00005578    -0.00057340  0.16D-05  0.46D-05  5  5  1404.44   329.73
   6      1.50762792    -1.30967446  -308.95002224     0.00001274    -0.00010809  0.25D-06  0.72D-06  6  6  1622.40   332.82
   7      1.50785522    -1.30967473  -308.95002252    -0.00000027    -0.00001146  0.15D-06  0.12D-06  6  2  1843.53   337.50
   8      1.50793426    -1.30967502  -308.95002280    -0.00000028    -0.00000317  0.37D-07  0.20D-07  6  1  2061.68   339.11
   9      1.50796474    -1.30967487  -308.95002265     0.00000015    -0.00000049  0.77D-08  0.31D-08  6  3  2284.32   340.88
  10      1.50797221    -1.30967484  -308.95002262     0.00000003     0.00000108  0.17D-08  0.61D-09  6  4  2509.45   340.12

 Norm of t1 vector:      0.10798879      S-energy:    -0.00000053      T1 diagnostic:  0.01207351
                                                                       D1 diagnostic:  0.03876275
                                                                       D2 diagnostic:  0.22688441 (internal)

 Doubles amplitudes (print threshold =  0.500E-01):

         I         J         SYM. A    SYM. B    A         B      T(IJ, AB)

        20        18         1         1         6         1      0.05080341
        20        20         1         1         1         1     -0.09624160


 RESULTS
 =======

  Reference energy                   -307.640347782967
  CCSD singlet pair energy             -0.893693995623
  CCSD triplet pair energy             -0.415980310343
  CCSD correlation energy              -1.309674837292

 !CCSD total energy                  -308.950022620259

 Timing summary (sec):

 STEP                 CPU(USER)    SYS     CPU(TOT)    WALL
 Transformation        123.67     10.65    134.32    210.59
 CCSD iterations      2387.17     97.00   2484.17   3403.80

 Program statistics:

 Available memory in ccsd:               393214372
 Min. memory needed in ccsd:              49443403
 Max. memory used in ccsd:                69016763
 Max. memory used in cckext:              53351270 (10 integral passes)



 **********************************************************************************************************************************
 DATASETS  * FILE   NREC   LENGTH (MB)   RECORD NAMES
              1      20     8448.77       500      610      700      900      950      970     1000      129      960     1100   
                                          VAR    BASINP    GEOM    SYMINP    ZMAT    AOBASIS   BASIS     P2S    ABASIS      S 
                                         1400     1410     1200     1210     1080     1600     1650     1300     1700     1380   
                                           T        V       H0       H01     AOSYM     SMH    MOLCAS    ERIS     OPER     JKOP   

              2       4        2.57       700     1000      520     2100   
                                         GEOM     BASIS   MCVARS     RHF  

 PROGRAMS   *        TOTAL      CCSD    HF-SCF       INT
 CPU TIMES  *      2510.76   2315.26    123.53     71.87
 REAL TIME  *      3986.86 SEC
 DISK USED  *        23.04 GB
 **********************************************************************************************************************************

 Dump information in style XML to xml output                                                                      

 Orbitals will not be exported.

 **********************************************************************************************************************************

 CCSD/cc-pVTZ energy=   -308.950022620259

            CCSD          HF-SCF
   -308.95002262   -307.64034778
 **********************************************************************************************************************************
 Molpro calculation terminated
