
 Working directory              : /tmp/peterk/molpro.jb8vFvMOGk/
 Global scratch directory       : /tmp/peterk/molpro.jb8vFvMOGk/
 Wavefunction directory         : /home/peterk/wfu/
 Main file repository           : /tmp/peterk/molpro.jb8vFvMOGk/

 id        : peterk

 Nodes     nprocs
 marat        1
 GA implementation: MPI file
 GA implementation (serial work in mppx): MPI file

 Using customized tuning parameters: mindgm=1; mindgv=20; mindgc=4; mindgr=1; noblas=0; minvec=7
 default implementation of scratch files=df  


 Variables initialized (1032), CPU time= 0.01 sec
 
 symmetry,nosym
 
 
 geometry={
           18
     SI         1.91873897     -1.10778446      0.38779602
     SI         1.91873897      1.10778446     -0.38779602
     SI         0.00000000      2.21556892      0.38779602
     SI        -1.91873897      1.10778446     -0.38779602
     SI        -1.91873897     -1.10778446      0.38779602
     SI         0.00000000     -2.21556892     -0.38779602
     H          1.89826779     -1.09596542      1.87596105
     H          3.15145900     -1.81949570     -0.04784335
     H          3.15145900      1.81949570      0.04784335
     H          1.89826779      1.09596542     -1.87596105
     H          0.00000000      3.63899140     -0.04784335
     H          0.00000000      2.19193084      1.87596105
     H         -3.15145900      1.81949570      0.04784335
     H         -1.89826779      1.09596542     -1.87596105
     H         -3.15145900     -1.81949570     -0.04784335
     H         -1.89826779     -1.09596542      1.87596105
     H          0.00000000     -2.19193084     -1.87596105
     H          0.00000000     -3.63899140      0.04784335
 }
 basis=cc-pVDZ
 
 
 
 hf; ccsd(t)
 
 
 
 {put,xml;noorbitals,nobasis}
 Commands initialized (841), CPU time= 0.00 sec, 708 directives.
 Default parameters read. Elapsed time= 0.05 sec

 Checking input...
 Passed
1


                                         ***  PROGRAM SYSTEM MOLPRO  ***
                                       Copyright, TTI GmbH Stuttgart, 2015
                                    Version 2023.1 linked Sat Jun 10 08:01:27 2023


 **********************************************************************************************************************************
 LABEL *                                                                                                                                                                 
  (16 PROC) 64 bit serial version                                                        DATE: 13-Jun-23          TIME: 11:40:10  
 **********************************************************************************************************************************

 SHA1:             8376d659ba1296ca7ee514c57770fe2c96af278c
 **********************************************************************************************************************************

 Memory per process:      1074 MW
 Total memory per node:   1074 MW

 GA preallocation disabled
 GA check disabled

 Variable memory set to 1073.7 MW

 ZSYMEL=NOSYM


 Geometry recognized as XYZ

 SETTING BASIS          =    CC-PVDZ


 Recomputing integrals since basis changed


 Using spherical harmonics

 Library entry SI     S cc-pVDZ              selected for orbital group  1
 Library entry SI     P cc-pVDZ              selected for orbital group  1
 Library entry SI     D cc-pVDZ              selected for orbital group  1
 Library entry H      S cc-pVDZ              selected for orbital group  2
 Library entry H      P cc-pVDZ              selected for orbital group  2


 PROGRAM * SEWARD (Integral evaluation for generally contracted gaussian basis sets)     Author: Roland Lindh, 1990

 Geometry written to block  1 of record 700


 Point group  C1  



 ATOMIC COORDINATES

 NR  ATOM    CHARGE       X              Y              Z

   1  SI     14.00    3.625891158   -2.093409235    0.732828270
   2  SI     14.00    3.625891158    2.093409235   -0.732828270
   3  SI     14.00    0.000000000    4.186818469    0.732828270
   4  SI     14.00   -3.625891158    2.093409235   -0.732828270
   5  SI     14.00   -3.625891158   -2.093409235    0.732828270
   6  SI     14.00    0.000000000   -4.186818469   -0.732828270
   7  H       1.00    3.587206234   -2.071074486    3.545052605
   8  H       1.00    5.955394403   -3.438348558   -0.090410828
   9  H       1.00    5.955394403    3.438348558    0.090410828
  10  H       1.00    3.587206234    2.071074486   -3.545052605
  11  H       1.00    0.000000000    6.876697116   -0.090410828
  12  H       1.00    0.000000000    4.142148972    3.545052605
  13  H       1.00   -5.955394403    3.438348558    0.090410828
  14  H       1.00   -3.587206234    2.071074486   -3.545052605
  15  H       1.00   -5.955394403   -3.438348558   -0.090410828
  16  H       1.00   -3.587206234   -2.071074486    3.545052605
  17  H       1.00    0.000000000   -4.142148972   -3.545052605
  18  H       1.00    0.000000000   -6.876697116    0.090410828

 Bond lengths in Bohr (Angstrom)

 1-2  4.435943866  1-6  4.435943869  1-7  2.812579079  1-8  2.813035685  2-3  4.435943869
     ( 2.347400403)     ( 2.347400404)     ( 1.488352752)     ( 1.488594378)     ( 2.347400404)

  2- 9  2.813035685   2-10  2.812579079   3- 4  4.435943869   3-11  2.813035682   3-12  2.812579079
       ( 1.488594378)       ( 1.488352752)       ( 2.347400404)       ( 1.488594376)       ( 1.488352752)

  4- 5  4.435943866   4-13  2.813035685   4-14  2.812579079   5- 6  4.435943869   5-15  2.813035685
       ( 2.347400403)       ( 1.488594378)       ( 1.488352752)       ( 2.347400404)       ( 1.488594378)

  5-16  2.812579079   6-17  2.812579079   6-18  2.813035682
       ( 1.488352752)       ( 1.488352752)       ( 1.488594376)

 Bond angles

  1- 2- 3  109.64851526   1- 2- 9  110.76680076   1- 2-10  108.83645485   1- 6- 5  109.64851531

  1- 6-17  108.83645484   1- 6-18  110.76680078   2- 1- 6  109.64851526   2- 1- 7  108.83645485

  2- 1- 8  110.76680076   2- 3- 4  109.64851531   2- 3-11  110.76680078   2- 3-12  108.83645484

  3- 2- 9  110.76680085   3- 2-10  108.83645476   3- 4- 5  109.64851526   3- 4-13  110.76680085

  3- 4-14  108.83645476   4- 3-11  110.76680078   4- 3-12  108.83645484   4- 5- 6  109.64851526

  4- 5-15  110.76680076   4- 5-16  108.83645485   5- 4-13  110.76680076   5- 4-14  108.83645485

  5- 6-17  108.83645484   5- 6-18  110.76680078   6- 1- 7  108.83645476   6- 1- 8  110.76680085

  6- 5-15  110.76680085   6- 5-16  108.83645476   7- 1- 8  107.92677630   9- 2-10  107.92677630

 11- 3-12  107.92677624  13- 4-14  107.92677630  15- 5-16  107.92677630  17- 6-18  107.92677624

 NUCLEAR CHARGE:                   96
 NUMBER OF PRIMITIVE AOS:         336
 NUMBER OF SYMMETRY AOS:          330
 NUMBER OF CONTRACTIONS:          168   (  168A   )
 NUMBER OF INNER CORE ORBITALS:     6   (    6A   )
 NUMBER OF OUTER CORE ORBITALS:    24   (   24A   )
 NUMBER OF VALENCE ORBITALS:       36   (   36A   )


 NUCLEAR REPULSION ENERGY  675.86517828


 Eigenvalues of metric

         1 0.304E-02 0.304E-02 0.305E-02 0.641E-02 0.641E-02 0.114E-01 0.118E-01 0.118E-01


 Contracted 2-electron integrals neglected if value below      1.0D-11
 AO integral compression algorithm  1   Integral accuracy      1.0D-11

     329.253 MB (compressed) written to integral file ( 39.7%)


 NUMBER OF SORTED TWO-ELECTRON INTEGRALS:  100770306.     BUFFER LENGTH:  32768
 NUMBER OF SEGMENTS:   7  SEGMENT LENGTH:   15999503      RECORD LENGTH: 524288

 Memory used in sort:      16.56 MW

 SORT1 READ   103662160. AND WROTE    86912208. INTEGRALS IN    252 RECORDS. CPU TIME:     0.92 SEC, REAL TIME:     1.58 SEC
 SORT2 READ    86912208. AND WROTE   100770306. INTEGRALS IN   1256 RECORDS. CPU TIME:     0.95 SEC, REAL TIME:     1.26 SEC

 FILE SIZES:   FILE 1:   360.6 MBYTE,  FILE 4:  1057.0 MBYTE,   TOTAL:   1417.7 MBYTE

 OPERATOR DM      FOR CENTER  0  COORDINATES:    0.000000    0.000000    0.000000


 **********************************************************************************************************************************
 DATASETS  * FILE   NREC   LENGTH (MB)   RECORD NAMES
              1      19      310.75       500      610      700      900      950      970     1000      129      960     1100   
                                          VAR    BASINP    GEOM    SYMINP    ZMAT    AOBASIS   BASIS     P2S    ABASIS      S 
                                         1400     1410     1200     1210     1080     1600     1650     1300     1700   
                                           T        V       H0       H01     AOSYM     SMH    MOLCAS    ERIS     OPER   

 PROGRAMS   *        TOTAL       INT
 CPU TIMES  *         8.41      8.32
 REAL TIME  *        10.54 SEC
 DISK USED  *         1.32 GB
 **********************************************************************************************************************************


 Program * Restricted Hartree-Fock

 Orbital guess generated from atomic densities. Full valence occupancy:   66

 Initial occupancy:  48

 NELEC=   96   SYM=1   MS2= 0   THRE=1.0D-08   THRD=3.2D-06   THRG=3.2D-06  HFMA2=F  DIIS_START=2   DIIS_MAX=10   DIIS_INCORE=F

 Level shifts:    0.00 (CLOSED)    0.00 (OPEN)    0.30 (GAP_MIN)

 ITER           ETOT              DE          GRAD        DDIFF     DIIS  NEXP   TIME(IT)  TIME(TOT)  DIAG
   1    -1740.51064430   -1740.51064430     0.00D+00     0.11D+00     0     0       0.61      1.22    start
   2    -1740.57446300      -0.06381870     0.20D-02     0.61D-02     1     0       0.59      1.81    diag
   3    -1740.58259169      -0.00812869     0.63D-03     0.22D-02     2     0       0.61      2.42    diag
   4    -1740.58296079      -0.00036910     0.16D-03     0.61D-03     3     0       0.61      3.03    diag
   5    -1740.58299117      -0.00003038     0.40D-04     0.19D-03     4     0       0.62      3.65    diag
   6    -1740.58299226      -0.00000109     0.69D-05     0.47D-04     5     0       0.60      4.25    diag
   7    -1740.58299230      -0.00000004     0.13D-05     0.91D-05     6     0       0.58      4.83    diag
   8    -1740.58299230      -0.00000000     0.19D-06     0.10D-05     7     0       0.62      5.45    fixocc
   9    -1740.58299230      -0.00000000     0.33D-07     0.13D-06     0     0       0.64      6.09    diag

 Final occupancy:  48

 !RHF STATE 1.1 Energy              -1740.582992299033
  RHF One-electron energy           -3762.308822548815
  RHF Two-electron energy            1345.860651968839
  RHF Kinetic energy                 1740.878735411208
  RHF Nuclear energy                  675.865178280942
  RHF Virial quotient                  -0.999830118488

 !RHF STATE 1.1 Dipole moment          -0.00000000    -0.00000000     0.00000000
 Dipole moment /Debye                  -0.00000000    -0.00000000     0.00000000

 Orbital energies:

           1.1          2.1          3.1          4.1          5.1          6.1          7.1          8.1          9.1         10.1
    -68.777170   -68.777170   -68.777170   -68.777169   -68.777169   -68.777168    -6.129331    -6.129289    -6.129289    -6.129178

          11.1         12.1         13.1         14.1         15.1         16.1         17.1         18.1         19.1         20.1
     -6.129178    -6.129096    -4.235187    -4.235100    -4.235100    -4.234989    -4.234989    -4.234989    -4.234856    -4.234812

          21.1         22.1         23.1         24.1         25.1         26.1         27.1         28.1         29.1         30.1
     -4.234812    -4.234783    -4.234783    -4.234751    -4.234476    -4.234476    -4.234471    -4.234374    -4.234374    -4.234288

          31.1         32.1         33.1         34.1         35.1         36.1         37.1         38.1         39.1         40.1
     -0.797906    -0.747683    -0.747683    -0.663168    -0.663168    -0.626010    -0.507133    -0.505051    -0.495543    -0.495543

          41.1         42.1         43.1         44.1         45.1         46.1         47.1         48.1         49.1         50.1
     -0.478572    -0.478572    -0.443423    -0.425924    -0.425924    -0.379638    -0.379638    -0.369188     0.095025     0.101985


 HOMO     48.1    -0.369188 =     -10.0461eV
 LUMO     49.1     0.095025 =       2.5858eV
 LUMO-HOMO         0.464213 =      12.6319eV

 Orbitals saved in record  2100.2


 **********************************************************************************************************************************
 DATASETS  * FILE   NREC   LENGTH (MB)   RECORD NAMES
              1      19      310.75       500      610      700      900      950      970     1000      129      960     1100   
                                          VAR    BASINP    GEOM    SYMINP    ZMAT    AOBASIS   BASIS     P2S    ABASIS      S 
                                         1400     1410     1200     1210     1080     1600     1650     1300     1700   
                                           T        V       H0       H01     AOSYM     SMH    MOLCAS    ERIS     OPER   

              2       4        1.12       700     1000      520     2100   
                                         GEOM     BASIS   MCVARS     RHF  

 PROGRAMS   *        TOTAL    HF-SCF       INT
 CPU TIMES  *        14.50      6.09      8.32
 REAL TIME  *        17.02 SEC
 DISK USED  *         1.32 GB
 **********************************************************************************************************************************


 PROGRAM * CCSD (Closed-shell coupled cluster)     Authors: C. Hampel, H.-J. Werner, 1991, M. Deegan, P.J. Knowles, 1992


 Convergence thresholds:  THRVAR = 1.00D-08  THRDEN = 1.00D-06

 CCSD(T)     terms to be evaluated (factor= 1.000)


 Number of core orbitals:          30 (  30 )
 Number of closed-shell orbitals:  18 (  18 )
 Number of external orbitals:     120 ( 120 )

 Molecular orbitals read from record     2100.2  Type=RHF/CANONICAL  

 Number of N-1 electron functions:              18
 Number of N-2 electron functions:             171
 Number of singly external CSFs:              2160
 Number of doubly external CSFs:           2333880
 Total number of CSFs:                     2336041

 Length of J-op  integral file:               0.00 MB
 Length of K-op  integral file:               2.00 MB
 Length of 3-ext integral record:             0.00 MB

 Memory could be reduced to 41.35 Mwords without degradation in triples

 Integral transformation finished. Total CPU:   4.74 sec, npass=  1  Memory used:  53.78 MW

 Reference energy:                  -1740.58299230

 MP2 singlet pair energy:              -0.44050029
 MP2 triplet pair energy:              -0.16014936
 MP2 correlation energy:               -0.60064964
 MP2 total energy:                  -1741.18364194

 SCS-MP2 correlation energy:           -0.62824883   (PS=  1.200000  PT=  0.333333)
 SCS-MP2 total energy:              -1741.21124113

 ITER.      SQ.NORM     CORR.ENERGY   TOTAL ENERGY   ENERGY CHANGE        DEN1      VAR(S)    VAR(P)  DIIS     TIME  TIME/IT
   1      1.38927978    -0.71011126 -1741.29310355    -0.10946161    -0.07849738  0.41D-02  0.82D-02  1  1    34.32    14.64
   2      1.44370025    -0.71915282 -1741.30214512    -0.00904157    -0.03584490  0.13D-03  0.47D-03  2  2    48.42    14.47
   3      1.45384959    -0.71924886 -1741.30224116    -0.00009604    -0.00327410  0.70D-04  0.30D-04  3  3    62.76    14.50
   4      1.45753507    -0.71929190 -1741.30228420    -0.00004303    -0.00076513  0.77D-05  0.29D-05  4  4    77.66    14.66
   5      1.45868770    -0.71927651 -1741.30226881     0.00001538    -0.00018791  0.39D-06  0.40D-06  5  5    92.36    14.71
   6      1.45890995    -0.71925626 -1741.30224856     0.00002025    -0.00003465  0.41D-07  0.37D-07  6  6   106.31    14.62
   7      1.45895339    -0.71925486 -1741.30224716     0.00000140    -0.00000261  0.30D-08  0.43D-08  6  1   120.60    14.61
   8      1.45895940    -0.71925487 -1741.30224717    -0.00000000     0.00000012  0.44D-09  0.38D-09  6  2   135.19    14.63
   9      1.45895970    -0.71925496 -1741.30224726    -0.00000010     0.00000061  0.85D-10  0.60D-10  6  3   150.15    14.69

 Norm of t1 vector:      0.12225621      S-energy:     0.00000013      T1 diagnostic:  0.01440803
                                                                       D1 diagnostic:  0.03392789
                                                                       D2 diagnostic:  0.16547168 (internal)


 Total CPU time for triples:    136.49 sec


 RESULTS
 =======

  Reference energy                  -1740.582992299033
  CCSD singlet pair energy             -0.551451729244
  CCSD triplet pair energy             -0.167803365657
  CCSD correlation energy              -0.719254961971

  Triples (T) contribution             -0.023561447719
  Total correlation energy             -0.742816409691

  CCSD total energy                 -1741.302247261005
  CCSD[T] energy                    -1741.326465003271
  CCSD-T energy                     -1741.325532854650
 !CCSD(T) total energy              -1741.325808708724

 Timing summary (sec):

 STEP                 CPU(USER)    SYS     CPU(TOT)    WALL
 Transformation          4.92      0.44      5.36      5.36
 CCSD iterations       145.39      1.96    147.35    132.45
 Triples               136.49      3.19    139.68    139.68

 Program statistics:

 Available memory in ccsd:              1073740480
 Min. memory needed in ccsd:               6134740
 Max. memory used in ccsd:                 8091268
 Max. memory used in cckext:              10022512 ( 9 integral passes)



 **********************************************************************************************************************************
 DATASETS  * FILE   NREC   LENGTH (MB)   RECORD NAMES
              1      20      486.17       500      610      700      900      950      970     1000      129      960     1100   
                                          VAR    BASINP    GEOM    SYMINP    ZMAT    AOBASIS   BASIS     P2S    ABASIS      S 
                                         1400     1410     1200     1210     1080     1600     1650     1300     1700     1380   
                                           T        V       H0       H01     AOSYM     SMH    MOLCAS    ERIS     OPER     JKOP   

              2       4        1.12       700     1000      520     2100   
                                         GEOM     BASIS   MCVARS     RHF  

 PROGRAMS   *        TOTAL   CCSD(T)    HF-SCF       INT
 CPU TIMES  *       286.42    271.92      6.09      8.32
 REAL TIME  *       294.59 SEC
 DISK USED  *         1.32 GB
 **********************************************************************************************************************************

 Dump information in style XML to xml output                                                                      

 Orbitals will not be exported.

 **********************************************************************************************************************************

 CCSD(T)/cc-pVDZ energy=  -1741.325808708724

         CCSD(T)          HF-SCF
  -1741.32580871  -1740.58299230
 **********************************************************************************************************************************
 Molpro calculation terminated
