
 Working directory              : /tmp/peterk/molpro.FlOjx9FScu/
 Global scratch directory       : /tmp/peterk/molpro.FlOjx9FScu/
 Wavefunction directory         : /home/peterk/wfu/
 Main file repository           : /tmp/peterk/molpro.FlOjx9FScu/

 id        : peterk

 Nodes     nprocs
 marat        1
 GA implementation: MPI file
 GA implementation (serial work in mppx): MPI file

 Using customized tuning parameters: mindgm=1; mindgv=20; mindgc=4; mindgr=1; noblas=0; minvec=7
 default implementation of scratch files=df  


 Variables initialized (1032), CPU time= 0.00 sec
 
 core,small
 angstrom
 
 geometry={
 N1;X,N1,10;H1,N1,1.01116937,X,112.42635522;H2,N1,1.01116937,X,112.42635522,H1,120;H3,N1,1.01116937,X,112.42635522,H2,120
 }
 basis=cc-pCV5Z
 
 
 
 hf
 
 
 
 {put,xml;noorbitals,nobasis}
 Commands initialized (841), CPU time= 0.01 sec, 708 directives.
 Default parameters read. Elapsed time= 0.05 sec

 Checking input...
 Passed
1


                                         ***  PROGRAM SYSTEM MOLPRO  ***
                                       Copyright, TTI GmbH Stuttgart, 2015
                                    Version 2023.1 linked Sat Jun 10 08:01:27 2023


 **********************************************************************************************************************************
 LABEL *                                                                                                                                                                 
  (16 PROC) 64 bit serial version                                                        DATE: 12-Jun-23          TIME: 11:05:56  
 **********************************************************************************************************************************

 SHA1:             8376d659ba1296ca7ee514c57770fe2c96af278c
 **********************************************************************************************************************************

 Memory per process:      1074 MW
 Total memory per node:   1074 MW

 GA preallocation disabled
 GA check disabled

 Variable memory set to 1073.7 MW

 ZUNIT=ANG

 SETTING BASIS          =    CC-PCV5Z


 Recomputing integrals since basis changed


 Using spherical harmonics

 Library entry N      S cc-pCV5Z             selected for orbital group  1
 Library entry N      P cc-pCV5Z             selected for orbital group  1
 Library entry N      D cc-pCV5Z             selected for orbital group  1
 Library entry N      F cc-pCV5Z             selected for orbital group  1
 Library entry N      G cc-pCV5Z             selected for orbital group  1
 Library entry N      H cc-pCV5Z             selected for orbital group  1
 Library entry H      S cc-pV5Z              selected for orbital group  2
 Library entry H      P cc-pV5Z              selected for orbital group  2
 Library entry H      D cc-pV5Z              selected for orbital group  2
 Library entry H      F cc-pV5Z              selected for orbital group  2
 Library entry H      G cc-pV5Z              selected for orbital group  2


 PROGRAM * SEWARD (Integral evaluation for generally contracted gaussian basis sets)     Author: Roland Lindh, 1990

 Geometry written to block  1 of record 700

 Orientation using atomic masses  
 Molecule type: Symmetric top,     Order of principal axis = 3
 Symmetry elements: Y
 Rotational constants:     298.8703436    298.8703436    191.3027215 GHz  (calculated with average atomic masses)

 Point group  Cs  



 ATOMIC COORDINATES

 NR  ATOM    CHARGE       X              Y              Z

   1  N1      7.00    0.000000000    0.000000000    0.129431608
   2  H1      1.00    0.883159051   -1.529676348   -0.599542866
   3  H3      1.00    0.883159051    1.529676348   -0.599542866
   4  H2      1.00   -1.766318102    0.000000000   -0.599542866

 Bond lengths in Bohr (Angstrom)

 1-2  1.910833175  1-3  1.910833175  1-4  1.910833175
     ( 1.011169370)     ( 1.011169370)     ( 1.011169370)

 Bond angles

  2-1-3  106.36119335   2-1-4  106.36119335   3-1-4  106.36119335

 NUCLEAR CHARGE:                   10
 NUMBER OF PRIMITIVE AOS:         431
 NUMBER OF SYMMETRY AOS:          336
 NUMBER OF CONTRACTIONS:          310   (  180A'  +  130A"  )
 NUMBER OF INNER CORE ORBITALS:     0   (    0A'  +    0A"  )
 NUMBER OF OUTER CORE ORBITALS:     1   (    1A'  +    0A"  )
 NUMBER OF VALENCE ORBITALS:        7   (    5A'  +    2A"  )


 NUCLEAR REPULSION ENERGY   11.97056997


 Eigenvalues of metric

         1 0.276E-05 0.352E-04 0.479E-04 0.218E-03 0.249E-03 0.295E-03 0.363E-03 0.430E-03
         2 0.479E-04 0.218E-03 0.430E-03 0.577E-03 0.954E-03 0.147E-02 0.171E-02 0.190E-02


 Contracted 2-electron integrals neglected if value below      1.0D-12
 AO integral compression algorithm  1   Integral accuracy      1.0D-12

     2943.091 MB (compressed) written to integral file ( 52.5%)


 NUMBER OF SORTED TWO-ELECTRON INTEGRALS:  585075115.     BUFFER LENGTH:  32768
 NUMBER OF SEGMENTS:  19  SEGMENT LENGTH:   31996000      RECORD LENGTH: 524288

 Memory used in sort:      32.55 MW

 SORT1 READ   700705662. AND WROTE   533566558. INTEGRALS IN   1538 RECORDS. CPU TIME:     5.73 SEC, REAL TIME:    10.39 SEC
 SORT2 READ   533566558. AND WROTE   585075115. INTEGRALS IN  11227 RECORDS. CPU TIME:     6.03 SEC, REAL TIME:     8.42 SEC

 FILE SIZES:   FILE 1:  2975.6 MBYTE,  FILE 4:  6450.9 MBYTE,   TOTAL:   9426.5 MBYTE

 OPERATOR DM      FOR CENTER  0  COORDINATES:    0.000000    0.000000    0.000000


 **********************************************************************************************************************************
 DATASETS  * FILE   NREC   LENGTH (MB)   RECORD NAMES
              1      19     2426.11       500      610      700      900      950      970     1000      129      960     1100   
                                          VAR    BASINP    GEOM    SYMINP    ZMAT    AOBASIS   BASIS     P2S    ABASIS      S 
                                         1400     1410     1200     1210     1080     1600     1650     1300     1700   
                                           T        V       H0       H01     AOSYM     SMH    MOLCAS    ERIS     OPER   

 PROGRAMS   *        TOTAL       INT
 CPU TIMES  *        44.77     44.67
 REAL TIME  *        55.64 SEC
 DISK USED  *         8.78 GB
 **********************************************************************************************************************************


 Program * Restricted Hartree-Fock

 Orbital guess generated from atomic densities. Full valence occupancy:    6   2

 Initial occupancy:   4   1

 NELEC=   10   SYM=1   MS2= 0   THRE=1.0D-08   THRD=3.2D-06   THRG=3.2D-06  HFMA2=F  DIIS_START=2   DIIS_MAX=10   DIIS_INCORE=F

 Level shifts:    0.00 (CLOSED)    0.00 (OPEN)    0.30 (GAP_MIN)

 ITER           ETOT              DE          GRAD        DDIFF     DIIS  NEXP   TIME(IT)  TIME(TOT)  DIAG
   1      -56.19886443     -56.19886443     0.00D+00     0.29D-01     0     0       2.41      4.79    start
   2      -56.21949022      -0.02062580     0.56D-02     0.42D-02     1     0       2.60      7.39    diag
   3      -56.22450051      -0.00501029     0.28D-02     0.14D-02     2     0       2.58      9.97    diag
   4      -56.22472895      -0.00022844     0.43D-03     0.25D-03     3     0       2.58     12.55    diag
   5      -56.22474374      -0.00001479     0.10D-03     0.79D-04     4     0       2.54     15.09    diag
   6      -56.22474438      -0.00000064     0.17D-04     0.34D-04     5     0       2.53     17.62    diag
   7      -56.22474440      -0.00000002     0.28D-05     0.10D-04     6     0       2.56     20.18    diag
   8      -56.22474441      -0.00000000     0.75D-06     0.23D-05     7     0       2.55     22.73    fixocc
   9      -56.22474441      -0.00000000     0.11D-06     0.25D-06     0     0       2.54     25.27    diag

 Final occupancy:   4   1

 !RHF STATE 1.1 Energy                -56.224744405239
  RHF One-electron energy             -99.652306595322
  RHF Two-electron energy              31.456992216116
  RHF Kinetic energy                   56.165844591682
  RHF Nuclear energy                   11.970569973967
  RHF Virial quotient                  -1.001048676718

 !RHF STATE 1.1 Dipole moment           0.00000000     0.00000000    -0.64595977
 Dipole moment /Debye                   0.00000000     0.00000000    -1.64186597

 Orbital energies:

           1.1          2.1          3.1          4.1          5.1          6.1
    -15.539075    -1.142843    -0.628323    -0.430595     0.092348     0.143153

           1.2          2.2          3.2
     -0.628323     0.143153     0.283040


 HOMO      4.1    -0.430595 =     -11.7171eV
 LUMO      5.1     0.092348 =       2.5129eV
 LUMO-HOMO         0.522944 =      14.2300eV

 Orbitals saved in record  2100.2


 **********************************************************************************************************************************
 DATASETS  * FILE   NREC   LENGTH (MB)   RECORD NAMES
              1      19     2426.11       500      610      700      900      950      970     1000      129      960     1100   
                                          VAR    BASINP    GEOM    SYMINP    ZMAT    AOBASIS   BASIS     P2S    ABASIS      S 
                                         1400     1410     1200     1210     1080     1600     1650     1300     1700   
                                           T        V       H0       H01     AOSYM     SMH    MOLCAS    ERIS     OPER   

              2       4        1.22       700     1000      520     2100   
                                         GEOM     BASIS   MCVARS     RHF  

 PROGRAMS   *        TOTAL    HF-SCF       INT
 CPU TIMES  *        70.04     25.27     44.67
 REAL TIME  *        84.78 SEC
 DISK USED  *         8.78 GB
 **********************************************************************************************************************************

 Dump information in style XML to xml output                                                                      

 Orbitals will not be exported.

 **********************************************************************************************************************************

 HF/cc-pCV5Z energy=    -56.224744405239

          HF-SCF
    -56.22474441
 **********************************************************************************************************************************
 Molpro calculation terminated
