
 Working directory              : /var/folders/2v/xbgp75_9785319ghcgb4zr4r0000gp/T//molpro.cP0XMxIkWy/
 Global scratch directory       : /var/folders/2v/xbgp75_9785319ghcgb4zr4r0000gp/T//molpro.cP0XMxIkWy/
 Wavefunction directory         : /Users/sacpjk/wfu/
 Main file repository           : /var/folders/2v/xbgp75_9785319ghcgb4zr4r0000gp/T//molpro.cP0XMxIkWy/

 id        : peterk

 Nodes                        nprocs
 Cardiff-University-G34YLXT77Y    1
 GA implementation: MPI file
 GA implementation (serial work in mppx): MPI file

 Using customized tuning parameters: mindgm=1; mindgv=20; mindgc=4; mindgr=1; noblas=0; minvec=7
 default implementation of scratch files=df  


 Variables initialized (1032), CPU time= 0.00 sec
 
 symmetry,nosym
 
 
 geometry={
           14
     C         -0.29185967     -2.89452203      0.00000000
     H          0.66835967     -3.40596421      0.00000000
     H         -1.17802099     -3.52183225      0.00000000
     C         -0.37379871     -1.55391455      0.00000000
     H         -1.35953406     -1.09227639      0.00000000
     C          0.78456671     -0.67768724      0.00000000
     H          1.75028705     -1.18240342      0.00000000
     C          0.78456671      0.67768724      0.00000000
     H          1.75028705      1.18240342      0.00000000
     C         -0.37379870      1.55391455      0.00000000
     H         -1.35953406      1.09227639      0.00000000
     C         -0.29185967      2.89452203      0.00000000
     H          0.66835967      3.40596421      0.00000000
     H         -1.17802099      3.52183225      0.00000000
 }
 basis=cc-pVDZ
 
 
 
 hf
 
 
 
 {put,xml;noorbitals,nobasis}
 Commands initialized (841), CPU time= 0.01 sec, 704 directives.
 Default parameters read. Elapsed time= 0.28 sec

 Checking input...
 Passed
1


                                         ***  PROGRAM SYSTEM MOLPRO  ***
                                       Copyright, TTI GmbH Stuttgart, 2015
                                    Version 2023.1 linked Tue Jun  6 09:54:11 2023


 **********************************************************************************************************************************
 LABEL *                                                                                                                                                                 
  64 bit serial version                                                                  DATE: 10-Jun-23          TIME: 14:40:35  
 **********************************************************************************************************************************

 SHA1:             8ebb0dd001088a5c915591db1a321413035db0b1
 **********************************************************************************************************************************

 Memory per process:       805 MW
 Total memory per node:   1074 MW
 Total GA space:           268 MW

 GA preallocation disabled
 GA check enabled

 Variable memory set to 805.3 MW

 ZSYMEL=NOSYM


 Geometry recognized as XYZ

 SETTING BASIS          =    CC-PVDZ


 Recomputing integrals since basis changed


 Using spherical harmonics

 Library entry C      S cc-pVDZ              selected for orbital group  1
 Library entry C      P cc-pVDZ              selected for orbital group  1
 Library entry C      D cc-pVDZ              selected for orbital group  1
 Library entry H      S cc-pVDZ              selected for orbital group  2
 Library entry H      P cc-pVDZ              selected for orbital group  2


 PROGRAM * SEWARD (Integral evaluation for generally contracted gaussian basis sets)     Author: Roland Lindh, 1990

 Geometry written to block  1 of record 700


 Point group  C1  



 ATOMIC COORDINATES

 NR  ATOM    CHARGE       X              Y              Z

   1  C       6.00   -0.551534843   -5.469853898    0.000000000
   2  H       1.00    1.263016729   -6.436339547    0.000000000
   3  H       1.00   -2.226137040   -6.655298409    0.000000000
   4  C       6.00   -0.706377188   -2.936472921    0.000000000
   5  H       1.00   -2.569147031   -2.064103229    0.000000000
   6  C       6.00    1.482616208   -1.280643282    0.000000000
   7  H       1.00    3.307563164   -2.234418633    0.000000000
   8  C       6.00    1.482616208    1.280643282    0.000000000
   9  H       1.00    3.307563164    2.234418633    0.000000000
  10  C       6.00   -0.706377169    2.936472921    0.000000000
  11  H       1.00   -2.569147031    2.064103229    0.000000000
  12  C       6.00   -0.551534843    5.469853898    0.000000000
  13  H       1.00    1.263016729    6.436339547    0.000000000
  14  H       1.00   -2.226137040    6.655298409    0.000000000

 Bond lengths in Bohr (Angstrom)

 1-2  2.055892000  1-3  2.051723960  1-4  2.538108613  4-5  2.056924978  4-6  2.744715628
     ( 1.087931195)     ( 1.085725563)     ( 1.343109237)     ( 1.088477823)     ( 1.452440961)

  6- 7  2.059154878   6- 8  2.561286564   8- 9  2.059154878   8-10  2.744715613  10-11  2.056924995
       ( 1.089657835)       ( 1.355374480)       ( 1.089657835)       ( 1.452440953)       ( 1.088477832)

 10-12  2.538108612  12-13  2.055892000  12-14  2.051723960
       ( 1.343109236)       ( 1.087931195)       ( 1.085725563)

 Bond angles

  1-4-5  118.59217940   1-4-6  123.60749590   2-1-3  116.66433886   2-1-4  121.53874401

  3-1-4  121.79691713   4-6-7  115.30188927   4-6-8  127.10511034   5-4-6  117.80032471

  6- 8- 9  117.59300039   6- 8-10  127.10511057   7- 6- 8  117.59300039   8-10-11  117.80032469

  8-10-12  123.60749656   9- 8-10  115.30188903  10-12-13  121.53874359  10-12-14  121.79691755

 11-10-12  118.59217875  13-12-14  116.66433886

 NUCLEAR CHARGE:                   44
 NUMBER OF PRIMITIVE AOS:         218
 NUMBER OF SYMMETRY AOS:          212
 NUMBER OF CONTRACTIONS:          124   (  124A   )
 NUMBER OF INNER CORE ORBITALS:     0   (    0A   )
 NUMBER OF OUTER CORE ORBITALS:     6   (    6A   )
 NUMBER OF VALENCE ORBITALS:       32   (   32A   )


 NUCLEAR REPULSION ENERGY  196.23621796

 EXTRA SYMMETRY OF AOS IN SYMMETRY 1:   1 1 1 1 1 2 1 1 2 1   1 2 1 2 1 1 1 1 2 1   1 1 1 2 1 1 1 1 1 2   1 1 2 1 1 2 1 2 1 1
                                        1 1 2 1 1 1 1 1 2 1   1 2 1 1 2 1 2 1 1 1   1 2 1 1 1 1 1 2 1 1   2 1 1 2 1 2 1 1 1 1
                                        2 1 1 1 1 1 2 1 1 2   1 1 2 1 2 1 1 1 1 2   1 1 1 1 1 2 1 1 2 1   1 2 1 2 1 1 1 1 2 1
                                        1 1 1 2

 Eigenvalues of metric

         1 0.873E-03 0.163E-02 0.257E-02 0.259E-02 0.434E-02 0.979E-02 0.149E-01 0.154E-01


 Contracted 2-electron integrals neglected if value below      1.0D-11
 AO integral compression algorithm  1   Integral accuracy      1.0D-11

     65.536 MB (compressed) written to integral file ( 26.9%)


 NUMBER OF SORTED TWO-ELECTRON INTEGRALS:   30035125.     BUFFER LENGTH:  32768
 NUMBER OF SEGMENTS:   2  SEGMENT LENGTH:   15997996      RECORD LENGTH: 524288

 Memory used in sort:      16.56 MW

 SORT1 READ    30522299. AND WROTE    13926297. INTEGRALS IN     40 RECORDS. CPU TIME:     0.19 SEC, REAL TIME:     0.24 SEC
 SORT2 READ    13926297. AND WROTE    30035125. INTEGRALS IN    250 RECORDS. CPU TIME:     0.20 SEC, REAL TIME:     0.24 SEC

 FILE SIZES:   FILE 1:    96.3 MBYTE,  FILE 4:   167.8 MBYTE,   TOTAL:    264.2 MBYTE

 OPERATOR DM      FOR CENTER  0  COORDINATES:    0.000000    0.000000    0.000000


 **********************************************************************************************************************************
 DATASETS  * FILE   NREC   LENGTH (MB)   RECORD NAMES
              1      19       82.23       500      610      700      900      950      970     1000      129      960     1100   
                                          VAR    BASINP    GEOM    SYMINP    ZMAT    AOBASIS   BASIS     P2S    ABASIS      S 
                                         1400     1410     1200     1210     1080     1600     1650     1300     1700   
                                           T        V       H0       H01     AOSYM     SMH    MOLCAS    ERIS     OPER   

 PROGRAMS   *        TOTAL       INT
 CPU TIMES  *         1.82      1.72
 REAL TIME  *         3.32 SEC
 DISK USED  *       252.50 MB
 **********************************************************************************************************************************


 Program * Restricted Hartree-Fock

 Orbital guess generated from atomic densities. Full valence occupancy:   38

 Initial occupancy:  22

 NELEC=   44   SYM=1   MS2= 0   THRE=1.0D-08   THRD=3.2D-06   THRG=3.2D-06  HFMA2=F  DIIS_START=2   DIIS_MAX=10   DIIS_INCORE=F

 Level shifts:    0.00 (CLOSED)    0.00 (OPEN)    0.30 (GAP_MIN)

 ITER           ETOT              DE          GRAD        DDIFF     DIIS  NEXP   TIME(IT)  TIME(TOT)  DIAG
   1     -231.76282099    -231.76282099     0.00D+00     0.96D-01     0     0       0.12      0.24    start
   2     -231.81967512      -0.05685413     0.39D-02     0.91D-02     1     0       0.13      0.37    diag
   3     -231.82502369      -0.00534857     0.12D-02     0.31D-02     2     0       0.13      0.50    diag
   4     -231.82569953      -0.00067584     0.40D-03     0.11D-02     3     0       0.14      0.64    diag
   5     -231.82572955      -0.00003002     0.86D-04     0.19D-03     4     0       0.13      0.77    diag
   6     -231.82573590      -0.00000634     0.32D-04     0.74D-04     5     0       0.13      0.90    diag
   7     -231.82573646      -0.00000056     0.87D-05     0.21D-04     6     0       0.12      1.02    diag
   8     -231.82573650      -0.00000004     0.28D-05     0.63D-05     7     0       0.13      1.15    fixocc
   9     -231.82573650      -0.00000000     0.57D-06     0.16D-05     8     0       0.13      1.28    diag
  10     -231.82573650      -0.00000000     0.14D-06     0.33D-06     0     0       0.13      1.41    diag/orth

 Final occupancy:  22

 !RHF STATE 1.1 Energy               -231.825736500771
  RHF One-electron energy            -699.899236265300
  RHF Two-electron energy             271.837281807203
  RHF Kinetic energy                  231.465284008412
  RHF Nuclear energy                  196.236217957326
  RHF Virial quotient                  -1.001557263734

 !RHF STATE 1.1 Dipole moment          -0.02373404     0.00000000     0.00000000
 Dipole moment /Debye                  -0.06032592     0.00000001     0.00000000

 Orbital energies:

           1.1          2.1          3.1          4.1          5.1          6.1          7.1          8.1          9.1         10.1
    -11.245212   -11.245074   -11.244273   -11.242945   -11.238151   -11.238151    -1.108234    -1.055029    -0.982318    -0.843572

          11.1         12.1         13.1         14.1         15.1         16.1         17.1         18.1         19.1         20.1
     -0.792198    -0.724455    -0.669671    -0.630421    -0.595861    -0.562302    -0.543238    -0.523208    -0.478074    -0.464440

          21.1         22.1         23.1         24.1
     -0.392981    -0.292532     0.091688     0.182071


 HOMO     22.1    -0.292532 =      -7.9602eV
 LUMO     23.1     0.091688 =       2.4950eV
 LUMO-HOMO         0.384220 =      10.4552eV

 Orbitals saved in record  2100.2


 **********************************************************************************************************************************
 DATASETS  * FILE   NREC   LENGTH (MB)   RECORD NAMES
              1      19       82.23       500      610      700      900      950      970     1000      129      960     1100   
                                          VAR    BASINP    GEOM    SYMINP    ZMAT    AOBASIS   BASIS     P2S    ABASIS      S 
                                         1400     1410     1200     1210     1080     1600     1650     1300     1700   
                                           T        V       H0       H01     AOSYM     SMH    MOLCAS    ERIS     OPER   

              2       4        0.84       700     1000      520     2100   
                                         GEOM     BASIS   MCVARS     RHF  

 PROGRAMS   *        TOTAL    HF-SCF       INT
 CPU TIMES  *         3.23      1.41      1.72
 REAL TIME  *         5.41 SEC
 DISK USED  *       252.50 MB
 **********************************************************************************************************************************

 Dump information in style XML to xml output                                                                      

 Orbitals will not be exported.

 **********************************************************************************************************************************

 HF/cc-pVDZ energy=   -231.825736500771

          HF-SCF
   -231.82573650
 **********************************************************************************************************************************
 Molpro calculation terminated
