
 Working directory              : /var/folders/2v/xbgp75_9785319ghcgb4zr4r0000gp/T//molpro.8ciERrYyHz/
 Global scratch directory       : /var/folders/2v/xbgp75_9785319ghcgb4zr4r0000gp/T//molpro.8ciERrYyHz/
 Wavefunction directory         : /Users/sacpjk/wfu/
 Main file repository           : /var/folders/2v/xbgp75_9785319ghcgb4zr4r0000gp/T//molpro.8ciERrYyHz/

 id        : peterk

 Nodes                        nprocs
 Cardiff-University-G34YLXT77Y    1
 GA implementation: MPI file
 GA implementation (serial work in mppx): MPI file

 Using customized tuning parameters: mindgm=1; mindgv=20; mindgc=4; mindgr=1; noblas=0; minvec=7
 default implementation of scratch files=df  


 Variables initialized (1032), CPU time= 0.01 sec
 
 symmetry,nosym
 
 
 geometry={
           16
     C          0.48462430     -0.55755495      1.43729151
     C          0.48462430     -0.55755495     -1.43729151
     C         -0.27595797     -1.44977527      0.70359025
     C         -0.27595797     -1.44977527     -0.70359025
     C         -0.27595797      1.45086377      0.69299925
     C         -0.27595797      1.45086377     -0.69299925
     H          0.37292526     -0.50748993      2.51767690
     H          1.44526264     -0.21636383      1.06867438
     H          0.37292526     -0.50748993     -2.51767690
     H          1.44526264     -0.21636383     -1.06867438
     H         -1.05536225     -2.01444047      1.21328943
     H         -1.05536225     -2.01444047     -1.21328943
     H          0.51071931      1.96707995      1.23581344
     H         -1.20625330      1.32768072      1.23591744
     H          0.51071931      1.96707995     -1.23581344
     H         -1.20625330      1.32768072     -1.23591744
 }
 basis=cc-pVTZ
 
 
 
 hf; hf; papt; mp2
 
 
 
 {put,xml;noorbitals,nobasis}
 Commands initialized (841), CPU time= 0.00 sec, 704 directives.
 Default parameters read. Elapsed time= 0.12 sec

 Checking input...
 Passed
1


                                         ***  PROGRAM SYSTEM MOLPRO  ***
                                       Copyright, TTI GmbH Stuttgart, 2015
                                    Version 2023.1 linked Tue Jun  6 09:54:11 2023


 **********************************************************************************************************************************
 LABEL *                                                                                                                                                                 
  64 bit serial version                                                                  DATE: 11-Jun-23          TIME: 09:28:12  
 **********************************************************************************************************************************

 SHA1:             8ebb0dd001088a5c915591db1a321413035db0b1
 **********************************************************************************************************************************

 Memory per process:       393 MW
 Total memory per node:    524 MW
 Total GA space:           131 MW

 GA preallocation disabled
 GA check enabled

 Variable memory set to 393.2 MW

 ZSYMEL=NOSYM


 Geometry recognized as XYZ

 SETTING BASIS          =    CC-PVTZ


 Recomputing integrals since basis changed


 Using spherical harmonics

 Library entry C      S cc-pVTZ              selected for orbital group  1
 Library entry C      P cc-pVTZ              selected for orbital group  1
 Library entry C      D cc-pVTZ              selected for orbital group  1
 Library entry C      F cc-pVTZ              selected for orbital group  1
 Library entry H      S cc-pVTZ              selected for orbital group  2
 Library entry H      P cc-pVTZ              selected for orbital group  2
 Library entry H      D cc-pVTZ              selected for orbital group  2


 PROGRAM * SEWARD (Integral evaluation for generally contracted gaussian basis sets)     Author: Roland Lindh, 1990

 Geometry written to block  1 of record 700


 Point group  C1  



 ATOMIC COORDINATES

 NR  ATOM    CHARGE       X              Y              Z

   1  C       6.00    0.915807200   -1.053626155    2.716087315
   2  C       6.00    0.915807200   -1.053626155   -2.716087315
   3  C       6.00   -0.521484985   -2.739678203    1.329592876
   4  C       6.00   -0.521484985   -2.739678203   -1.329592876
   5  C       6.00   -0.521484985    2.741735169    1.309578787
   6  C       6.00   -0.521484985    2.741735169   -1.309578787
   7  H       1.00    0.704726606   -0.959016979    4.757719811
   8  H       1.00    2.731150568   -0.408868382    2.019501895
   9  H       1.00    0.704726606   -0.959016979   -4.757719811
  10  H       1.00    2.731150568   -0.408868382   -2.019501895
  11  H       1.00   -1.994345615   -3.806740783    2.292784733
  12  H       1.00   -1.994345615   -3.806740783   -2.292784733
  13  H       1.00    0.965119622    3.717242371    2.335348943
  14  H       1.00   -2.279488374    2.508952942    2.335545474
  15  H       1.00    0.965119622    3.717242371   -2.335348943
  16  H       1.00   -2.279488374    2.508952942   -2.335545474

 Bond lengths in Bohr (Angstrom)

 1-3  2.613608074  1-7  2.054694421  1-8  2.048515408  2-4  2.613608074  2-9  2.054694421
     ( 1.383061831)     ( 1.087297463)     ( 1.084027670)     ( 1.383061831)     ( 1.087297463)

  2-10  2.048515408   3- 4  2.659185753   3-11  2.058076659   4-12  2.058076659   5- 6  2.619157574
       ( 1.084027670)       ( 1.407180500)       ( 1.089087266)       ( 1.089087266)       ( 1.385998500)

  5-13  2.052757163   5-14  2.048748673   6-15  2.052757163   6-16  2.048748673
       ( 1.086272310)       ( 1.084151108)       ( 1.086272310)       ( 1.084151108)

 Bond angles

  1- 3- 4  122.03860671   1- 3-11  118.66926903   2- 4- 3  122.03860671   2- 4-12  118.66926903

  3- 1- 7  120.02169320   3- 1- 8  120.66275757   3- 4-12  117.90492772   4- 2- 9  120.02169320

  4- 2-10  120.66275757   4- 3-11  117.90492772   5- 6-15  119.98039263   5- 6-16  120.05143452

  6- 5-13  119.98039263   6- 5-14  120.05143452   7- 1- 8  114.48326129   9- 2-10  114.48326129

 13- 5-14  115.16206745  15- 6-16  115.16206745

 NUCLEAR CHARGE:                   46
 NUMBER OF PRIMITIVE AOS:         452
 NUMBER OF SYMMETRY AOS:          412
 NUMBER OF CONTRACTIONS:          320   (  320A   )
 NUMBER OF INNER CORE ORBITALS:     0   (    0A   )
 NUMBER OF OUTER CORE ORBITALS:     6   (    6A   )
 NUMBER OF VALENCE ORBITALS:       34   (   34A   )


 NUCLEAR REPULSION ENERGY  223.96110073


 Eigenvalues of metric

         1 0.150E-03 0.351E-03 0.544E-03 0.727E-03 0.764E-03 0.835E-03 0.105E-02 0.111E-02


 Contracted 2-electron integrals neglected if value below      1.0D-11
 AO integral compression algorithm  1   Integral accuracy      1.0D-11

     4214.751 MB (compressed) written to integral file ( 38.5%)


 NUMBER OF SORTED TWO-ELECTRON INTEGRALS: 1318950480.     BUFFER LENGTH:  32768
 NUMBER OF SEGMENTS:  42  SEGMENT LENGTH:   31998710      RECORD LENGTH: 524288

 Memory used in sort:      32.56 MW

 SORT1 READ  1368857533. AND WROTE  1105986179. INTEGRALS IN   3186 RECORDS. CPU TIME:    12.76 SEC, REAL TIME:    29.43 SEC
 SORT2 READ  1105986179. AND WROTE  1318950480. INTEGRALS IN  16078 RECORDS. CPU TIME:     8.91 SEC, REAL TIME:    22.07 SEC

 FILE SIZES:   FILE 1:  4248.8 MBYTE,  FILE 4: 13363.1 MBYTE,   TOTAL:  17611.9 MBYTE

 OPERATOR DM      FOR CENTER  0  COORDINATES:    0.000000    0.000000    0.000000


 **********************************************************************************************************************************
 DATASETS  * FILE   NREC   LENGTH (MB)   RECORD NAMES
              1      19     3780.14       500      610      700      900      950      970     1000      129      960     1100   
                                          VAR    BASINP    GEOM    SYMINP    ZMAT    AOBASIS   BASIS     P2S    ABASIS      S 
                                         1400     1410     1200     1210     1080     1600     1650     1300     1700   
                                           T        V       H0       H01     AOSYM     SMH    MOLCAS    ERIS     OPER   

 PROGRAMS   *        TOTAL       INT
 CPU TIMES  *        56.54     56.43
 REAL TIME  *       147.04 SEC
 DISK USED  *        16.40 GB
 **********************************************************************************************************************************


 Program * Restricted Hartree-Fock

 Orbital guess generated from atomic densities. Full valence occupancy:   40

 Initial occupancy:  23

 NELEC=   46   SYM=1   MS2= 0   THRE=1.0D-08   THRD=3.2D-06   THRG=3.2D-06  HFMA2=F  DIIS_START=2   DIIS_MAX=10   DIIS_INCORE=F

 Level shifts:    0.00 (CLOSED)    0.00 (OPEN)    0.30 (GAP_MIN)

 ITER           ETOT              DE          GRAD        DDIFF     DIIS  NEXP   TIME(IT)  TIME(TOT)  DIAG
   1     -232.89534337    -232.89534337     0.00D+00     0.41D-01     0     0       7.39     14.29    start
   2     -232.95498565      -0.05964228     0.25D-02     0.37D-02     1     0       7.22     21.51    diag
   3     -232.96262768      -0.00764203     0.97D-03     0.11D-02     2     0       7.41     28.92    diag
   4     -232.96405447      -0.00142679     0.35D-03     0.48D-03     3     0       7.44     36.36    diag
   5     -232.96415611      -0.00010164     0.75D-04     0.11D-03     4     0       7.26     43.62    diag
   6     -232.96419826      -0.00004215     0.37D-04     0.66D-04     5     0       7.15     50.77    diag
   7     -232.96421484      -0.00001658     0.18D-04     0.45D-04     6     0       7.07     57.84    diag
   8     -232.96421851      -0.00000367     0.78D-05     0.27D-04     7     0       6.99     64.83    fixocc
   9     -232.96421864      -0.00000013     0.17D-05     0.54D-05     8     0       7.00     71.83    diag
  10     -232.96421865      -0.00000001     0.54D-06     0.11D-05     9     0       7.00     78.83    diag/orth
  11     -232.96421865      -0.00000000     0.20D-06     0.34D-06     0     0       7.01     85.84    diag

 Final occupancy:  23

 !RHF STATE 1.1 Energy               -232.964218648231
  RHF One-electron energy            -757.022770340688
  RHF Two-electron energy             300.097450966655
  RHF Kinetic energy                  232.546637902514
  RHF Nuclear energy                  223.961100725802
  RHF Virial quotient                  -1.001795686016

 !RHF STATE 1.1 Dipole moment           0.00941170     0.19261491     0.00000000
 Dipole moment /Debye                   0.02392214     0.48957828     0.00000000

 Orbital energies:

           1.1          2.1          3.1          4.1          5.1          6.1          7.1          8.1          9.1         10.1
    -11.235726   -11.235709   -11.227773   -11.226488   -11.221326   -11.220209    -1.090475    -1.011796    -0.975111    -0.848116

          11.1         12.1         13.1         14.1         15.1         16.1         17.1         18.1         19.1         20.1
     -0.793315    -0.713900    -0.666616    -0.634247    -0.593296    -0.567886    -0.564926    -0.516964    -0.503628    -0.487063

          21.1         22.1         23.1         24.1         25.1
     -0.471187    -0.305443    -0.302759     0.108304     0.138513


 HOMO     23.1    -0.302759 =      -8.2385eV
 LUMO     24.1     0.108304 =       2.9471eV
 LUMO-HOMO         0.411063 =      11.1856eV

 Orbitals saved in record  2100.2


 **********************************************************************************************************************************
 DATASETS  * FILE   NREC   LENGTH (MB)   RECORD NAMES
              1      19     3780.14       500      610      700      900      950      970     1000      129      960     1100   
                                          VAR    BASINP    GEOM    SYMINP    ZMAT    AOBASIS   BASIS     P2S    ABASIS      S 
                                         1400     1410     1200     1210     1080     1600     1650     1300     1700   
                                           T        V       H0       H01     AOSYM     SMH    MOLCAS    ERIS     OPER   

              2       4        2.24       700     1000      520     2100   
                                         GEOM     BASIS   MCVARS     RHF  

 PROGRAMS   *        TOTAL    HF-SCF       INT
 CPU TIMES  *       142.40     85.86     56.43
 REAL TIME  *       331.18 SEC
 DISK USED  *        16.40 GB
 **********************************************************************************************************************************


 Program * Restricted Hartree-Fock

 Molecular orbitals read from record     2100.2  Type=RHF/CANONICAL  

 Initial occupancy:  23

 NELEC=   46   SYM=1   MS2= 0   THRE=1.0D-08   THRD=3.2D-06   THRG=3.2D-06  HFMA2=F  DIIS_START=2   DIIS_MAX=10   DIIS_INCORE=F

 Level shifts:    0.00 (CLOSED)    0.00 (OPEN)    0.30 (GAP_MIN)

 ITER           ETOT              DE          GRAD        DDIFF     DIIS  NEXP   TIME(IT)  TIME(TOT)  DIAG
   1     -232.96421865    -232.96421865     0.00D+00     0.42D-01     0     0       6.91      6.92    start
   2     -232.96421865      -0.00000000     0.10D-06     0.18D-06     1     0       6.85     13.77    diag

 Final occupancy:  23

 !RHF STATE 1.1 Energy               -232.964218648402
  RHF One-electron energy            -757.022746165829
  RHF Two-electron energy             300.097426791625
  RHF Kinetic energy                  232.546632346637
  RHF Nuclear energy                  223.961100725802
  RHF Virial quotient                  -1.001795709951

 !RHF STATE 1.1 Dipole moment           0.00942471     0.19258216    -0.00000000
 Dipole moment /Debye                   0.02395523     0.48949503    -0.00000000

 Orbital energies:

           1.1          2.1          3.1          4.1          5.1          6.1          7.1          8.1          9.1         10.1
    -11.235715   -11.235699   -11.227783   -11.226499   -11.221321   -11.220204    -1.090472    -1.011800    -0.975106    -0.848113

          11.1         12.1         13.1         14.1         15.1         16.1         17.1         18.1         19.1         20.1
     -0.793318    -0.713897    -0.666613    -0.634249    -0.593293    -0.567890    -0.564922    -0.516964    -0.503626    -0.487064

          21.1         22.1         23.1         24.1         25.1
     -0.471186    -0.305444    -0.302757     0.108305     0.138512


 HOMO     23.1    -0.302757 =      -8.2384eV
 LUMO     24.1     0.108305 =       2.9471eV
 LUMO-HOMO         0.411062 =      11.1856eV

 Orbitals saved in record  2101.2


 **********************************************************************************************************************************
 DATASETS  * FILE   NREC   LENGTH (MB)   RECORD NAMES
              1      19     3780.14       500      610      700      900      950      970     1000      129      960     1100   
                                          VAR    BASINP    GEOM    SYMINP    ZMAT    AOBASIS   BASIS     P2S    ABASIS      S 
                                         1400     1410     1200     1210     1080     1600     1650     1300     1700   
                                           T        V       H0       H01     AOSYM     SMH    MOLCAS    ERIS     OPER   

              2       5        5.08       700     1000      520     2100     2101   
                                         GEOM     BASIS   MCVARS     RHF      RHF  

 PROGRAMS   *        TOTAL    HF-SCF    HF-SCF       INT
 CPU TIMES  *       156.18     13.77     85.86     56.43
 REAL TIME  *       361.94 SEC
 DISK USED  *        16.40 GB
 **********************************************************************************************************************************


 PROGRAM * PAPT (Closed-shell)     Authors: C. Hampel, H.-J. Werner, 1991, P.J. Knowles, 2021


 Convergence thresholds:  THRVAR = 1.00D-08  THRDEN = 1.00D-06

 Number of core orbitals:           6 (   6 )
 Number of closed-shell orbitals:  17 (  17 )
 Number of external orbitals:     297 ( 297 )

 Molecular orbitals read from record     2101.2  Type=RHF/CANONICAL  

 Number of N-1 electron functions:              17
 Number of N-2 electron functions:             153
 Number of singly external CSFs:              5049
 Number of doubly external CSFs:          12748725
 Total number of CSFs:                    12753775

 Length of J-op  integral file:               0.00 MB
 Length of K-op  integral file:               7.09 MB

 Integral transformation finished. Total CPU:  20.70 sec, npass=  1  Memory used:  27.79 MW

 Reference energy:                   -232.96421865

                        CORR.ENERGY   TOTAL ENERGY   ENERGY CHANGE
 MP2:                   -1.04059695  -234.00481559    -1.04059695

 SCS-MP2 correlation energy:           -1.03514616   (PS=  1.200000  PT=  0.333333)
 SCS-MP2 total energy:               -233.99936481
 Iteration:   1     0.3326D+00
 Iteration:   2     0.5563D+00
 Iteration:   3     0.1077D+00
 Iteration:   4     0.1723D+00
 Iteration:   5     0.3954D-01
 Iteration:   6     0.2819D-01
 Iteration:   7     0.3399D-01
 Iteration:   8     0.5201D-02
 Iteration:   9     0.6621D-02
 Iteration:  10     0.1433D-02
 Iteration:  11     0.1009D-02
 Iteration:  12     0.8024D-03
 Iteration:  13     0.3344D-03
 Iteration:  14     0.5974D-03
 Iteration:  15     0.1056D-03
 Iteration:  16     0.3607D-03
 Iteration:  17     0.6726D-04
 PAPT operator written to  7000.1
 PAPT orbitals and eigenvalues written to  7000.2

 MP3(D):                -1.07770515  -234.04192380    -0.03710821



 RESULTS
 =======

  Reference energy                   -232.964218648404
  MP3 singlet pair energy              -0.734077020665
  MP3 triplet pair energy              -0.343628132526
  MP3 correlation energy               -1.077705153191

 !MP3 total energy                   -234.041923801595

 Timing summary (sec):

 STEP                 CPU(USER)    SYS     CPU(TOT)    WALL
 Transformation         21.61      1.15     22.76     40.14
 CCSD iterations       289.98      4.12    294.10    218.51

 Program statistics:

 Available memory in ccsd:               393214821
 Min. memory needed in ccsd:              30737753
 Max. memory used in ccsd:                42497979
 Max. memory used in cckext:              32340670 ( 1 integral passes)



 **********************************************************************************************************************************
 DATASETS  * FILE   NREC   LENGTH (MB)   RECORD NAMES
              1      21     3961.58       500      610      700      900      950      970     1000      129      960     1100   
                                          VAR    BASINP    GEOM    SYMINP    ZMAT    AOBASIS   BASIS     P2S    ABASIS      S 
                                         1400     1410     1200     1210     1080     1600     1650     1300     1700     1380   
                                           T        V       H0       H01     AOSYM     SMH    MOLCAS    ERIS     OPER     JKOP   
                                         7000   
                                        PAPT AO    

              2       6        7.53       700     1000      520     2100     2101     7000   
                                         GEOM     BASIS   MCVARS     RHF      RHF     PAPT   

 PROGRAMS   *        TOTAL      PAPT    HF-SCF    HF-SCF       INT
 CPU TIMES  *       311.48    155.30     13.77     85.86     56.43
 REAL TIME  *       620.66 SEC
 DISK USED  *        16.40 GB
 **********************************************************************************************************************************


 PROGRAM * MP2 (Closed-shell)     Authors: C. Hampel, H.-J. Werner, 1991, M. Deegan, P.J. Knowles, 1992


 Convergence thresholds:  THRVAR = 1.00D-08  THRDEN = 1.00D-06

 Number of core orbitals:           6 (   6 )
 Number of closed-shell orbitals:  17 (  17 )
 Number of external orbitals:     297 ( 297 )

 Molecular orbitals read from record     7000.2  Type=PAPT/CANONICAL (state 1.1)

 Number of N-1 electron functions:              17
 Number of N-2 electron functions:             153
 Number of singly external CSFs:              5049
 Number of doubly external CSFs:          12748725
 Total number of CSFs:                    12753775

 Length of J-op  integral file:               0.00 MB
 Length of K-op  integral file:               7.09 MB

 Integral transformation finished. Total CPU:  21.07 sec, npass=  1  Memory used:  27.79 MW
 Orbital energies read from record       7000.2  Type=PAPT/CANONICAL (state 1.1)

 Memory needed for MP2:                      0.50 MW

 SCS-MP2 correlation energy:           -1.089188705099   (PS=  1.200000  PT=  0.333333)
 SCS-MP2 total energy:               -234.053407353503


  Reference energy                   -232.964218648404
  MP2 singlet pair energy              -0.712579974713
  MP2 triplet pair energy              -0.376220467676
  MP2 correlation energy               -1.088800442389

 !MP2 total energy                   -234.053019090794


 **********************************************************************************************************************************
 DATASETS  * FILE   NREC   LENGTH (MB)   RECORD NAMES
              1      21     3961.58       500      610      700      900      950      970     1000      129      960     1100   
                                          VAR    BASINP    GEOM    SYMINP    ZMAT    AOBASIS   BASIS     P2S    ABASIS      S 
                                         1400     1410     1200     1210     1080     1600     1650     1300     1700     1380   
                                           T        V       H0       H01     AOSYM     SMH    MOLCAS    ERIS     OPER     JKOP   
                                         7000   
                                        PAPT AO    

              2       6        7.53       700     1000      520     2100     2101     7000   
                                         GEOM     BASIS   MCVARS     RHF      RHF     PAPT   

 PROGRAMS   *        TOTAL       MP2      PAPT    HF-SCF    HF-SCF       INT
 CPU TIMES  *       341.07     29.59    155.30     13.77     85.86     56.43
 REAL TIME  *       662.62 SEC
 DISK USED  *        16.40 GB
 **********************************************************************************************************************************

 Dump information in style XML to xml output                                                                      

 Orbitals will not be exported.

 **********************************************************************************************************************************

 MP2/cc-pVTZ energy=   -234.053019090794

             MP2            PAPT          HF-SCF          HF-SCF
   -234.05301909   -234.04192380   -232.96421865   -232.96421865
 **********************************************************************************************************************************
 Molpro calculation terminated
