
 Working directory              : /var/folders/2v/xbgp75_9785319ghcgb4zr4r0000gp/T//molpro.u7iwhClIf0/
 Global scratch directory       : /var/folders/2v/xbgp75_9785319ghcgb4zr4r0000gp/T//molpro.u7iwhClIf0/
 Wavefunction directory         : /Users/sacpjk/wfu/
 Main file repository           : /var/folders/2v/xbgp75_9785319ghcgb4zr4r0000gp/T//molpro.u7iwhClIf0/

 id        : peterk

 Nodes                        nprocs
 Cardiff-University-G34YLXT77Y    1
 GA implementation: MPI file
 GA implementation (serial work in mppx): MPI file

 Using customized tuning parameters: mindgm=1; mindgv=20; mindgc=4; mindgr=1; noblas=0; minvec=7
 default implementation of scratch files=df  


 Variables initialized (1032), CPU time= 0.00 sec
 
 core,small
 angstrom
 
 geometry={
 O1;C,O1,1.16039505;O2,C,1.16039505,O1,180
 }
 basis=cc-pCVQZ
 
 
 
 hf; hf; papt; mp3
 
 
 
 {put,xml;noorbitals,nobasis}
 Commands initialized (841), CPU time= 0.00 sec, 704 directives.
 Default parameters read. Elapsed time= 1.38 sec

 Checking input...
 Passed
1


                                         ***  PROGRAM SYSTEM MOLPRO  ***
                                       Copyright, TTI GmbH Stuttgart, 2015
                                    Version 2023.1 linked Tue Jun  6 09:54:11 2023


 **********************************************************************************************************************************
 LABEL *                                                                                                                                                                 
  64 bit serial version                                                                  DATE: 12-Jun-23          TIME: 10:51:04  
 **********************************************************************************************************************************

 SHA1:             8ebb0dd001088a5c915591db1a321413035db0b1
 **********************************************************************************************************************************

 Memory per process:       393 MW
 Total memory per node:    524 MW
 Total GA space:           131 MW

 GA preallocation disabled
 GA check enabled

 Variable memory set to 393.2 MW

 ZUNIT=ANG

 SETTING BASIS          =    CC-PCVQZ


 Recomputing integrals since basis changed


 Using spherical harmonics

 Library entry O      S cc-pCVQZ             selected for orbital group  1
 Library entry O      P cc-pCVQZ             selected for orbital group  1
 Library entry O      D cc-pCVQZ             selected for orbital group  1
 Library entry O      F cc-pCVQZ             selected for orbital group  1
 Library entry O      G cc-pCVQZ             selected for orbital group  1
 Library entry C      S cc-pCVQZ             selected for orbital group  2
 Library entry C      P cc-pCVQZ             selected for orbital group  2
 Library entry C      D cc-pCVQZ             selected for orbital group  2
 Library entry C      F cc-pCVQZ             selected for orbital group  2
 Library entry C      G cc-pCVQZ             selected for orbital group  2


 PROGRAM * SEWARD (Integral evaluation for generally contracted gaussian basis sets)     Author: Roland Lindh, 1990

 Geometry written to block  1 of record 700

 Orientation using atomic masses  
 Molecule type: Linear
 Symmetry elements: X,Y,Z
 Rotational constants:      11.7292910     11.7292910      0.0000000 GHz  (calculated with average atomic masses)

 Point group  D2h 



 ATOMIC COORDINATES

 NR  ATOM    CHARGE       X              Y              Z

   1  O1      8.00    0.000000000    0.000000000   -2.192828841
   2  O2      8.00    0.000000000    0.000000000    2.192828841
   3  C       6.00    0.000000000    0.000000000    0.000000000

 Bond lengths in Bohr (Angstrom)

 1-3  2.192828841  2-3  2.192828841
     ( 1.160395050)     ( 1.160395050)

 Bond angles

  1-3-2  179.99999879

 NUCLEAR CHARGE:                   22
 NUMBER OF PRIMITIVE AOS:         351
 NUMBER OF SYMMETRY AOS:          291
 NUMBER OF CONTRACTIONS:          252   (   55Ag  +   33B3u +   33B2u +   17B1g +   47B1u +   27B2g +   27B3g +   13Au  )
 NUMBER OF INNER CORE ORBITALS:     0   (    0Ag  +    0B3u +    0B2u +    0B1g +    0B1u +    0B2g +    0B3g +    0Au  )
 NUMBER OF OUTER CORE ORBITALS:     3   (    2Ag  +    0B3u +    0B2u +    0B1g +    1B1u +    0B2g +    0B3g +    0Au  )
 NUMBER OF VALENCE ORBITALS:       12   (    3Ag  +    2B3u +    2B2u +    0B1g +    3B1u +    1B2g +    1B3g +    0Au  )


 NUCLEAR REPULSION ENERGY   58.37208888

 EXTRA SYMMETRY OF AOS IN SYMMETRY 1:   1 1 1 1 1 1 1 1 1 1   1 1 1 1 1 1 2 1 2 1   2 1 2 1 2 1 2 1 2 1   2 1 3 2 1 1 1 1 1 1
                                        1 1 1 2 1 2 1 2 1 2   1 2 1 3 2
 EXTRA SYMMETRY OF AOS IN SYMMETRY 2:   1 1 1 1 1 1 1 1 1 1   1 1 1 2 1 2 1 2 1 2   1 1 1 1 1 1 1 1 2 1   2 1 2
 EXTRA SYMMETRY OF AOS IN SYMMETRY 3:   1 1 1 1 1 1 1 1 1 1   1 1 1 2 1 2 1 2 1 2   1 1 1 1 1 1 1 1 2 1   2 1 2
 EXTRA SYMMETRY OF AOS IN SYMMETRY 4:   1 1 1 1 1 1 1 1 1 2   1 1 1 1 1 1 2
 EXTRA SYMMETRY OF AOS IN SYMMETRY 5:   1 1 1 1 1 1 1 1 1 1   1 1 1 1 1 1 2 1 2 1   2 1 2 1 2 1 2 1 2 1   2 1 3 2 1 1 1 1 1 1
                                        1 1 2 1 2 1 2
 EXTRA SYMMETRY OF AOS IN SYMMETRY 6:   1 1 1 1 1 1 1 1 1 1   1 1 1 2 1 2 1 2 1 2   1 1 1 1 1 1 2
 EXTRA SYMMETRY OF AOS IN SYMMETRY 7:   1 1 1 1 1 1 1 1 1 1   1 1 1 2 1 2 1 2 1 2   1 1 1 1 1 1 2
 EXTRA SYMMETRY OF AOS IN SYMMETRY 8:   1 1 1 1 1 1 1 1 1 2   1 1 1

 Eigenvalues of metric

         1 0.257E-04 0.270E-04 0.342E-03 0.112E-02 0.118E-02 0.191E-02 0.553E-02 0.747E-02
         2 0.140E-02 0.249E-02 0.501E-02 0.481E-01 0.894E-01 0.123E+00 0.131E+00 0.145E+00
         3 0.140E-02 0.249E-02 0.501E-02 0.481E-01 0.894E-01 0.123E+00 0.131E+00 0.145E+00
         4 0.100E+00 0.135E+00 0.199E+00 0.379E+00 0.458E+00 0.562E+00 0.692E+00 0.922E+00
         5 0.259E-04 0.262E-03 0.789E-03 0.147E-02 0.192E-02 0.421E-02 0.844E-02 0.424E-01
         6 0.228E-02 0.420E-02 0.252E-01 0.105E+00 0.119E+00 0.155E+00 0.246E+00 0.312E+00
         7 0.228E-02 0.420E-02 0.252E-01 0.105E+00 0.119E+00 0.155E+00 0.246E+00 0.312E+00
         8 0.862E-01 0.183E+00 0.414E+00 0.461E+00 0.689E+00 0.937E+00 0.100E+01 0.100E+01


 Contracted 2-electron integrals neglected if value below      1.0D-12
 AO integral compression algorithm  1   Integral accuracy      1.0D-12

     306.446 MB (compressed) written to integral file ( 41.6%)


 NUMBER OF SORTED TWO-ELECTRON INTEGRALS:   65449763.     BUFFER LENGTH:  32768
 NUMBER OF SEGMENTS:   5  SEGMENT LENGTH:   15998862      RECORD LENGTH: 524288

 Memory used in sort:      16.56 MW

 SORT1 READ    92054103. AND WROTE    45783662. INTEGRALS IN    134 RECORDS. CPU TIME:     1.79 SEC, REAL TIME:     2.23 SEC
 SORT2 READ    45783662. AND WROTE    65449763. INTEGRALS IN   1169 RECORDS. CPU TIME:     0.75 SEC, REAL TIME:     0.87 SEC

 FILE SIZES:   FILE 1:   337.9 MBYTE,  FILE 4:   562.1 MBYTE,   TOTAL:    900.0 MBYTE

 OPERATOR DM      FOR CENTER  0  COORDINATES:    0.000000    0.000000    0.000000


 **********************************************************************************************************************************
 DATASETS  * FILE   NREC   LENGTH (MB)   RECORD NAMES
              1      19      246.88       500      610      700      900      950      970     1000      129      960     1100   
                                          VAR    BASINP    GEOM    SYMINP    ZMAT    AOBASIS   BASIS     P2S    ABASIS      S 
                                         1400     1410     1200     1210     1080     1600     1650     1300     1700   
                                           T        V       H0       H01     AOSYM     SMH    MOLCAS    ERIS     OPER   

 PROGRAMS   *        TOTAL       INT
 CPU TIMES  *         7.79      7.69
 REAL TIME  *        12.91 SEC
 DISK USED  *       858.74 MB
 **********************************************************************************************************************************


 Program * Restricted Hartree-Fock

 Orbital guess generated from atomic densities. Full valence occupancy:    5   2   2   0   4   1   1   0


 Initial occupancy:   4   1   1   0   3   1   1   0

 NELEC=   22   SYM=1   MS2= 0   THRE=1.0D-08   THRD=3.2D-06   THRG=3.2D-06  HFMA2=F  DIIS_START=2   DIIS_MAX=10   DIIS_INCORE=F

 Level shifts:    0.00 (CLOSED)    0.00 (OPEN)    0.30 (GAP_MIN)

 ITER           ETOT              DE          GRAD        DDIFF     DIIS  NEXP   TIME(IT)  TIME(TOT)  DIAG
   1     -187.65075761    -187.65075761     0.00D+00     0.90D-01     0     0       0.08      0.17    start
   2     -187.68923314      -0.03847553     0.15D-01     0.14D-01     1     0       0.09      0.26    diag
   3     -187.72174291      -0.03250976     0.10D-01     0.61D-02     2     0       0.09      0.35    diag
   4     -187.72202420      -0.00028129     0.87D-03     0.68D-03     3     0       0.08      0.43    diag
   5     -187.72205518      -0.00003098     0.26D-03     0.25D-03     4     0       0.09      0.52    diag
   6     -187.72205746      -0.00000228     0.65D-04     0.79D-04     5     0       0.09      0.61    diag
   7     -187.72205752      -0.00000006     0.81D-05     0.11D-04     6     0       0.08      0.69    diag
   8     -187.72205752      -0.00000000     0.15D-05     0.21D-05     7     0       0.09      0.78    fixocc
   9     -187.72205752      -0.00000000     0.20D-06     0.19D-06     0     0       0.09      0.87    diag

 Final occupancy:   4   1   1   0   3   1   1   0

 !RHF STATE 1.1 Energy               -187.722057522488
  RHF One-electron energy            -372.535631245176
  RHF Two-electron energy             126.441484841764
  RHF Kinetic energy                  187.449921119884
  RHF Nuclear energy                   58.372088880924
  RHF Virial quotient                  -1.001451781900

 !RHF STATE 1.1 Dipole moment           0.00000000     0.00000000     0.00000000
 Dipole moment /Debye                   0.00000000     0.00000000     0.00000000

 Orbital energies:

           1.1          2.1          3.1          4.1          5.1          6.1
    -20.649037   -11.458578    -1.530241    -0.800189     0.132676     0.434667

           1.2          2.2          3.2
     -0.715238     0.197931     0.297067

           1.3          2.3          3.3
     -0.715238     0.197931     0.297067

           1.4          2.4
      0.558071     1.460612

           1.5          2.5          3.5          4.5          5.5
    -20.649081    -1.477070    -0.743051     0.263770     0.509858

           1.6          2.6          3.6
     -0.544306     0.514315     1.017665

           1.7          2.7          3.7
     -0.544306     0.514315     1.017665

           1.8          2.8
      1.190259     2.301551


 HOMO      1.7    -0.544306 =     -14.8113eV
 LUMO      5.1     0.132676 =       3.6103eV
 LUMO-HOMO         0.676982 =      18.4216eV

 Orbitals saved in record  2100.2


 **********************************************************************************************************************************
 DATASETS  * FILE   NREC   LENGTH (MB)   RECORD NAMES
              1      19      246.88       500      610      700      900      950      970     1000      129      960     1100   
                                          VAR    BASINP    GEOM    SYMINP    ZMAT    AOBASIS   BASIS     P2S    ABASIS      S 
                                         1400     1410     1200     1210     1080     1600     1650     1300     1700   
                                           T        V       H0       H01     AOSYM     SMH    MOLCAS    ERIS     OPER   

              2       4        0.57       700     1000      520     2100   
                                         GEOM     BASIS   MCVARS     RHF  

 PROGRAMS   *        TOTAL    HF-SCF       INT
 CPU TIMES  *         8.67      0.87      7.69
 REAL TIME  *        15.70 SEC
 DISK USED  *       858.74 MB
 **********************************************************************************************************************************


 Program * Restricted Hartree-Fock

 Molecular orbitals read from record     2100.2  Type=RHF/CANONICAL  

 Initial occupancy:   4   1   1   0   3   1   1   0

 NELEC=   22   SYM=1   MS2= 0   THRE=1.0D-08   THRD=3.2D-06   THRG=3.2D-06  HFMA2=F  DIIS_START=2   DIIS_MAX=10   DIIS_INCORE=F

 Level shifts:    0.00 (CLOSED)    0.00 (OPEN)    0.30 (GAP_MIN)

 ITER           ETOT              DE          GRAD        DDIFF     DIIS  NEXP   TIME(IT)  TIME(TOT)  DIAG
   1     -187.72205752    -187.72205752     0.00D+00     0.91D-01     0     0       0.09      0.09    start
   2     -187.72205752      -0.00000000     0.72D-07     0.70D-07     1     0       0.10      0.19    diag

 Final occupancy:   4   1   1   0   3   1   1   0

 !RHF STATE 1.1 Energy               -187.722057522491
  RHF One-electron energy            -372.535634008244
  RHF Two-electron energy             126.441487604829
  RHF Kinetic energy                  187.449927210429
  RHF Nuclear energy                   58.372088880924
  RHF Virial quotient                  -1.001451749361

 !RHF STATE 1.1 Dipole moment           0.00000000     0.00000000     0.00000000
 Dipole moment /Debye                   0.00000000     0.00000000     0.00000000

 Orbital energies:

           1.1          2.1          3.1          4.1          5.1          6.1
    -20.649037   -11.458577    -1.530241    -0.800189     0.132677     0.434667

           1.2          2.2          3.2
     -0.715237     0.197931     0.297067

           1.3          2.3          3.3
     -0.715237     0.197931     0.297067

           1.4          2.4
      0.558071     1.460612

           1.5          2.5          3.5          4.5          5.5
    -20.649082    -1.477069    -0.743051     0.263770     0.509859

           1.6          2.6          3.6
     -0.544306     0.514315     1.017665

           1.7          2.7          3.7
     -0.544306     0.514315     1.017665

           1.8          2.8
      1.190259     2.301552


 HOMO      1.7    -0.544306 =     -14.8113eV
 LUMO      5.1     0.132677 =       3.6103eV
 LUMO-HOMO         0.676982 =      18.4216eV

 Orbitals saved in record  2101.2


 **********************************************************************************************************************************
 DATASETS  * FILE   NREC   LENGTH (MB)   RECORD NAMES
              1      19      246.88       500      610      700      900      950      970     1000      129      960     1100   
                                          VAR    BASINP    GEOM    SYMINP    ZMAT    AOBASIS   BASIS     P2S    ABASIS      S 
                                         1400     1410     1200     1210     1080     1600     1650     1300     1700   
                                           T        V       H0       H01     AOSYM     SMH    MOLCAS    ERIS     OPER   

              2       5        0.93       700     1000      520     2100     2101   
                                         GEOM     BASIS   MCVARS     RHF      RHF  

 PROGRAMS   *        TOTAL    HF-SCF    HF-SCF       INT
 CPU TIMES  *         8.86      0.20      0.87      7.69
 REAL TIME  *        16.80 SEC
 DISK USED  *       858.74 MB
 **********************************************************************************************************************************


 PROGRAM * PAPT (Closed-shell)     Authors: C. Hampel, H.-J. Werner, 1991, P.J. Knowles, 2021


 CORETYPE=SMALL

 Convergence thresholds:  THRVAR = 1.00D-08  THRDEN = 1.00D-06

 Number of closed-shell orbitals:  11 (   4   1   1   0   3   1   1   0 )
 Number of external orbitals:     241 (  51  32  32  17  44  26  26  13 )

 Molecular orbitals read from record     2101.2  Type=RHF/CANONICAL  

 Number of N-1 electron functions:              11
 Number of N-2 electron functions:              66
 Number of singly external CSFs:               452
 Number of doubly external CSFs:            466521
 Total number of CSFs:                      466974

 Length of J-op  integral file:               0.00 MB
 Length of K-op  integral file:               0.70 MB

 Integral transformation finished. Total CPU:   0.30 sec, npass=  1  Memory used:   0.68 MW

 Reference energy:                   -187.72205752

                        CORR.ENERGY   TOTAL ENERGY   ENERGY CHANGE
 MP2:                   -0.81837103  -188.54042855    -0.81837103

 SCS-MP2 correlation energy:           -0.81906399   (PS=  1.200000  PT=  0.333333)
 SCS-MP2 total energy:               -188.54112151
 Iteration:   1     0.3837D+00
 Iteration:   2     0.6615D+00
 Iteration:   3     0.1950D+00
 Iteration:   4     0.1134D+00
 Iteration:   5     0.4947D+00
 Iteration:   6     0.4186D-01
 Iteration:   7     0.8657D-01
 Iteration:   8     0.1407D-01
 Iteration:   9     0.1892D-01
 Iteration:  10     0.6853D-02
 Iteration:  11     0.3627D-02
 Iteration:  12     0.3806D-01
 Iteration:  13     0.5989D-03
 Iteration:  14     0.3134D-03
 Iteration:  15     0.1012D-02
 Iteration:  16     0.1312D-03
 Iteration:  17     0.4675D-04
 PAPT operator written to  7000.1
 PAPT orbitals and eigenvalues written to  7000.2

 MP3(D):                -0.80062032  -188.52267785     0.01775071



 RESULTS
 =======

  Reference energy                   -187.722057522491

  Correlated core orbitals:             1.1       2.1       1.5
  Orbital energies:                   -20.6490  -11.4586  -20.6491

  MP3 core-core energy                 -0.120889154963
  MP3 core-valence energy              -0.052540910931
  MP3 valence correlation energy       -0.627190256688

  MP3 singlet pair energy              -0.551007128130
  MP3 triplet pair energy              -0.249613194452
  MP3 correlation energy               -0.800620322582

 !MP3 total energy                   -188.522677845073

 Timing summary (sec):

 STEP                 CPU(USER)    SYS     CPU(TOT)    WALL
 Transformation          0.31      0.04      0.35      0.58
 CCSD iterations         9.80      0.08      9.88      3.04

 Program statistics:

 Available memory in ccsd:               393215512
 Min. memory needed in ccsd:               1257625
 Max. memory used in ccsd:                 1672925
 Max. memory used in cckext:               1373550 ( 1 integral passes)



 **********************************************************************************************************************************
 DATASETS  * FILE   NREC   LENGTH (MB)   RECORD NAMES
              1      21      253.54       500      610      700      900      950      970     1000      129      960     1100   
                                          VAR    BASINP    GEOM    SYMINP    ZMAT    AOBASIS   BASIS     P2S    ABASIS      S 
                                         1400     1410     1200     1210     1080     1600     1650     1300     1700     1380   
                                           T        V       H0       H01     AOSYM     SMH    MOLCAS    ERIS     OPER     JKOP   
                                         7000   
                                        PAPT AO    

              2       6        1.25       700     1000      520     2100     2101     7000   
                                         GEOM     BASIS   MCVARS     RHF      RHF     PAPT   

 PROGRAMS   *        TOTAL      PAPT    HF-SCF    HF-SCF       INT
 CPU TIMES  *        10.02      1.16      0.20      0.87      7.69
 REAL TIME  *        20.67 SEC
 DISK USED  *       858.74 MB
 **********************************************************************************************************************************


 PROGRAM * MP3 (Closed-shell)     Authors: C. Hampel, H.-J. Werner, 1991, M. Deegan, P.J. Knowles, 1992


 CORETYPE=SMALL

 Convergence thresholds:  THRVAR = 1.00D-08  THRDEN = 1.00D-06

 Number of closed-shell orbitals:  11 (   4   1   1   0   3   1   1   0 )
 Number of external orbitals:     241 (  51  32  32  17  44  26  26  13 )

 Molecular orbitals read from record     7000.2  Type=PAPT/CANONICAL (state 1.1)

 Number of N-1 electron functions:              11
 Number of N-2 electron functions:              66
 Number of singly external CSFs:               452
 Number of doubly external CSFs:            466521
 Total number of CSFs:                      466974

 Length of J-op  integral file:               0.00 MB
 Length of K-op  integral file:               0.70 MB

 Integral transformation finished. Total CPU:   0.33 sec, npass=  1  Memory used:   0.68 MW
 Orbital energies read from record       7000.2  Type=PAPT/CANONICAL (state 1.1)

 Reference energy:                   -187.72205752

                        CORR.ENERGY   TOTAL ENERGY   ENERGY CHANGE
 MP2:                   -0.80655439  -188.52861192    -0.80655439

 SCS-MP2 correlation energy:           -0.81028383   (PS=  1.200000  PT=  0.333333)
 SCS-MP2 total energy:               -188.53234135

 MP3(D):                -0.80661655  -188.52867407    -0.00006215



 RESULTS
 =======

  Reference energy                   -187.722057522491

  Correlated core orbitals:             1.1       2.1       1.5
  Orbital energies:                   -19.1230  -10.5863  -19.1224

  MP3 core-core energy                 -0.121702107050
  MP3 core-valence energy              -0.052043685194
  MP3 valence correlation energy       -0.632870755592

  MP3 singlet pair energy              -0.552768987162
  MP3 triplet pair energy              -0.253847560674
  MP3 correlation energy               -0.806616547836

 !MP3 total energy                   -188.528674070328

 Timing summary (sec):

 STEP                 CPU(USER)    SYS     CPU(TOT)    WALL
 Transformation          0.43      0.05      0.48      0.72
 CCSD iterations        10.67      0.04     10.71      0.99

 Program statistics:

 Available memory in ccsd:               393215512
 Min. memory needed in ccsd:               1257625
 Max. memory used in ccsd:                 1672925
 Max. memory used in cckext:               1373550 ( 1 integral passes)



 **********************************************************************************************************************************
 DATASETS  * FILE   NREC   LENGTH (MB)   RECORD NAMES
              1      21      253.54       500      610      700      900      950      970     1000      129      960     1100   
                                          VAR    BASINP    GEOM    SYMINP    ZMAT    AOBASIS   BASIS     P2S    ABASIS      S 
                                         1400     1410     1200     1210     1080     1600     1650     1300     1700     1380   
                                           T        V       H0       H01     AOSYM     SMH    MOLCAS    ERIS     OPER     JKOP   
                                         7000   
                                        PAPT AO    

              2       6        1.25       700     1000      520     2100     2101     7000   
                                         GEOM     BASIS   MCVARS     RHF      RHF     PAPT   

 PROGRAMS   *        TOTAL       MP3      PAPT    HF-SCF    HF-SCF       INT
 CPU TIMES  *        11.00      0.98      1.16      0.20      0.87      7.69
 REAL TIME  *        22.69 SEC
 DISK USED  *       858.74 MB
 **********************************************************************************************************************************

 Dump information in style XML to xml output                                                                      

 Orbitals will not be exported.

 **********************************************************************************************************************************

 MP3/cc-pCVQZ energy=   -188.528674070328

             MP3            PAPT          HF-SCF          HF-SCF
   -188.52867407   -188.52267785   -187.72205752   -187.72205752
 **********************************************************************************************************************************
 Molpro calculation terminated
