
 Working directory              : /var/folders/2v/xbgp75_9785319ghcgb4zr4r0000gp/T//molpro.75nPBZQDot/
 Global scratch directory       : /var/folders/2v/xbgp75_9785319ghcgb4zr4r0000gp/T//molpro.75nPBZQDot/
 Wavefunction directory         : /Users/sacpjk/wfu/
 Main file repository           : /var/folders/2v/xbgp75_9785319ghcgb4zr4r0000gp/T//molpro.75nPBZQDot/

 id        : peterk

 Nodes                        nprocs
 Cardiff-University-G34YLXT77Y    1
 GA implementation: MPI file
 GA implementation (serial work in mppx): MPI file

 Using customized tuning parameters: mindgm=1; mindgv=20; mindgc=4; mindgr=1; noblas=0; minvec=7
 default implementation of scratch files=df  


 Variables initialized (1032), CPU time= 0.00 sec
 
 symmetry,nosym
 
 
 geometry={
           12
     C          1.27609040     -0.77327344      0.00000000
     C          1.23134723      0.58905339      0.00000000
     C         -1.18192378      1.07324973      0.00000000
     N         -1.49435191     -0.19905547      0.00000000
     C         -1.06638519     -1.33840171      0.00000000
     H          1.42015815     -1.33084885     -0.91708935
     H          1.42015815     -1.33084885      0.91708935
     H          1.34536200      1.15022023     -0.91956788
     H          1.34536200      1.15022023      0.91956788
     H         -1.30031450      1.61932430      0.92900354
     H         -1.30031450      1.61932430     -0.92900354
     H         -1.69518802     -2.22896383      0.00000000
 }
 basis=cc-pVDZ
 
 
 
 hf; ccsd(t)
 
 
 
 {put,xml;noorbitals,nobasis}
 Commands initialized (841), CPU time= 0.01 sec, 704 directives.
 Default parameters read. Elapsed time= 1.34 sec

 Checking input...
 Passed
1


                                         ***  PROGRAM SYSTEM MOLPRO  ***
                                       Copyright, TTI GmbH Stuttgart, 2015
                                    Version 2023.1 linked Tue Jun  6 09:54:11 2023


 **********************************************************************************************************************************
 LABEL *                                                                                                                                                                 
  64 bit serial version                                                                  DATE: 11-Jun-23          TIME: 23:22:21  
 **********************************************************************************************************************************

 SHA1:             8ebb0dd001088a5c915591db1a321413035db0b1
 **********************************************************************************************************************************

 Memory per process:       393 MW
 Total memory per node:    524 MW
 Total GA space:           131 MW

 GA preallocation disabled
 GA check enabled

 Variable memory set to 393.2 MW

 ZSYMEL=NOSYM


 Geometry recognized as XYZ

 SETTING BASIS          =    CC-PVDZ


 Recomputing integrals since basis changed


 Using spherical harmonics

 Library entry C      S cc-pVDZ              selected for orbital group  1
 Library entry C      P cc-pVDZ              selected for orbital group  1
 Library entry C      D cc-pVDZ              selected for orbital group  1
 Library entry N      S cc-pVDZ              selected for orbital group  2
 Library entry N      P cc-pVDZ              selected for orbital group  2
 Library entry N      D cc-pVDZ              selected for orbital group  2
 Library entry H      S cc-pVDZ              selected for orbital group  4
 Library entry H      P cc-pVDZ              selected for orbital group  4


 PROGRAM * SEWARD (Integral evaluation for generally contracted gaussian basis sets)     Author: Roland Lindh, 1990

 Geometry written to block  1 of record 700


 Point group  C1  



 ATOMIC COORDINATES

 NR  ATOM    CHARGE       X              Y              Z

   1  C       6.00    2.411461366   -1.461275021    0.000000000
   2  C       6.00    2.326909029    1.113149580    0.000000000
   3  C       6.00   -2.233512244    2.028148053    0.000000000
   4  N       7.00   -2.823915844   -0.376160322    0.000000000
   5  C       6.00   -2.015175952   -2.529212677    0.000000000
   6  H       1.00    2.683709957   -2.514939840   -1.733047703
   7  H       1.00    2.683709957   -2.514939840    1.733047703
   8  H       1.00    2.542365718    2.173601218   -1.737731446
   9  H       1.00    2.542365718    2.173601218    1.737731446
  10  H       1.00   -2.457238281    3.060079434    1.755562259
  11  H       1.00   -2.457238281    3.060079434   -1.755562259
  12  H       1.00   -3.203441088   -4.212131180    0.000000000

 Bond lengths in Bohr (Angstrom)

 1-2  2.575812711  1-6  2.046407385  1-7  2.046407385  2-8  2.047117447  2-9  2.047117447
     ( 1.363061386)     ( 1.082912153)     ( 1.082912153)     ( 1.083287901)     ( 1.083287901)

  3- 4  2.475737299   3-10  2.048642126   3-11  2.048642126   4- 5  2.299933619   5-12  2.060142889
       ( 1.310103759)       ( 1.084094726)       ( 1.084094726)       ( 1.217072458)       ( 1.090180668)

 Bond angles

  1-2-8  120.94986755   1-2-9  120.94986755   2-1-6  121.26350260   2-1-7  121.26350260

  3- 4- 5  145.61597334   4- 3-10  117.58982266   4- 3-11  117.58982266   4- 5-12  124.18765139

  6- 1- 7  115.74639928   8- 2- 9  116.17740812  10- 3-11  117.94932410

 NUCLEAR CHARGE:                   38
 NUMBER OF PRIMITIVE AOS:         184
 NUMBER OF SYMMETRY AOS:          179
 NUMBER OF CONTRACTIONS:          105   (  105A   )
 NUMBER OF INNER CORE ORBITALS:     0   (    0A   )
 NUMBER OF OUTER CORE ORBITALS:     5   (    5A   )
 NUMBER OF VALENCE ORBITALS:       27   (   27A   )


 NUCLEAR REPULSION ENERGY  157.98626806


 Eigenvalues of metric

         1 0.276E-02 0.568E-02 0.768E-02 0.136E-01 0.150E-01 0.160E-01 0.212E-01 0.270E-01


 Contracted 2-electron integrals neglected if value below      1.0D-11
 AO integral compression algorithm  1   Integral accuracy      1.0D-11

     59.769 MB (compressed) written to integral file ( 44.2%)


 NUMBER OF SORTED TWO-ELECTRON INTEGRALS:   15487395.     BUFFER LENGTH:  32768
 NUMBER OF SEGMENTS:   1  SEGMENT LENGTH:   15487395      RECORD LENGTH: 524288

 Memory used in sort:      16.04 MW

 SORT1 READ    16910368. AND WROTE    13157178. INTEGRALS IN     38 RECORDS. CPU TIME:     0.11 SEC, REAL TIME:     0.15 SEC
 SORT2 READ    13157178. AND WROTE    15487395. INTEGRALS IN    228 RECORDS. CPU TIME:     0.14 SEC, REAL TIME:     0.18 SEC

 FILE SIZES:   FILE 1:    90.4 MBYTE,  FILE 4:   159.4 MBYTE,   TOTAL:    249.8 MBYTE

 OPERATOR DM      FOR CENTER  0  COORDINATES:    0.000000    0.000000    0.000000


 **********************************************************************************************************************************
 DATASETS  * FILE   NREC   LENGTH (MB)   RECORD NAMES
              1      19       80.27       500      610      700      900      950      970     1000      129      960     1100   
                                          VAR    BASINP    GEOM    SYMINP    ZMAT    AOBASIS   BASIS     P2S    ABASIS      S 
                                         1400     1410     1200     1210     1080     1600     1650     1300     1700   
                                           T        V       H0       H01     AOSYM     SMH    MOLCAS    ERIS     OPER   

 PROGRAMS   *        TOTAL       INT
 CPU TIMES  *         1.12      1.02
 REAL TIME  *         5.13 SEC
 DISK USED  *       238.77 MB
 **********************************************************************************************************************************


 Program * Restricted Hartree-Fock

 Orbital guess generated from atomic densities. Full valence occupancy:   32

 Initial occupancy:  19

 NELEC=   38   SYM=1   MS2= 0   THRE=1.0D-08   THRD=3.2D-06   THRG=3.2D-06  HFMA2=F  DIIS_START=2   DIIS_MAX=10   DIIS_INCORE=F

 Level shifts:    0.00 (CLOSED)    0.00 (OPEN)    0.30 (GAP_MIN)

 ITER           ETOT              DE          GRAD        DDIFF     DIIS  NEXP   TIME(IT)  TIME(TOT)  DIAG
   1     -209.75877715    -209.75877715     0.00D+00     0.10D+00     0     0       0.06      0.12    start
   2     -209.81488999      -0.05611284     0.50D-02     0.12D-01     1     0       0.07      0.19    diag
   3     -209.82893321      -0.01404322     0.27D-02     0.47D-02     2     0       0.07      0.26    diag
   4     -209.83148056      -0.00254734     0.72D-03     0.19D-02     3     0       0.07      0.33    diag
   5     -209.83196637      -0.00048582     0.33D-03     0.64D-03     4     0       0.07      0.40    diag
   6     -209.83236396      -0.00039758     0.18D-03     0.84D-03     5     0       0.07      0.47    diag
   7     -209.83243490      -0.00007094     0.81D-04     0.38D-03     6     0       0.06      0.53    diag
   8     -209.83244741      -0.00001251     0.47D-04     0.19D-03     7     0       0.07      0.60    fixocc
   9     -209.83244769      -0.00000028     0.91D-05     0.24D-04     8     0       0.07      0.67    diag
  10     -209.83244771      -0.00000002     0.23D-05     0.66D-05     9     0       0.07      0.74    diag/orth
  11     -209.83244771      -0.00000000     0.79D-06     0.22D-05     9     0       0.06      0.80    diag
  12     -209.83244771      -0.00000000     0.29D-06     0.67D-06     0     0       0.07      0.87    diag

 Final occupancy:  19

 !RHF STATE 1.1 Energy               -209.832447713226
  RHF One-electron energy            -595.596977562843
  RHF Two-electron energy             227.778261786458
  RHF Kinetic energy                  209.499178204571
  RHF Nuclear energy                  157.986268063159
  RHF Virial quotient                  -1.001590791484

 !RHF STATE 1.1 Dipole moment          -0.54333848     0.08977915    -0.00000000
 Dipole moment /Debye                  -1.38102867     0.22819584    -0.00000000

 Orbital energies:

           1.1          2.1          3.1          4.1          5.1          6.1          7.1          8.1          9.1         10.1
    -15.618400   -11.289309   -11.278037   -11.223331   -11.206478    -1.277151    -1.004009    -0.996722    -0.774073    -0.751424

          11.1         12.1         13.1         14.1         15.1         16.1         17.1         18.1         19.1         20.1
     -0.661243    -0.647696    -0.608647    -0.572291    -0.555608    -0.485470    -0.449188    -0.325263    -0.295906     0.128120

          21.1
      0.157604


 HOMO     19.1    -0.295906 =      -8.0520eV
 LUMO     20.1     0.128120 =       3.4863eV
 LUMO-HOMO         0.424027 =      11.5384eV

 Orbitals saved in record  2100.2


 **********************************************************************************************************************************
 DATASETS  * FILE   NREC   LENGTH (MB)   RECORD NAMES
              1      19       80.27       500      610      700      900      950      970     1000      129      960     1100   
                                          VAR    BASINP    GEOM    SYMINP    ZMAT    AOBASIS   BASIS     P2S    ABASIS      S 
                                         1400     1410     1200     1210     1080     1600     1650     1300     1700   
                                           T        V       H0       H01     AOSYM     SMH    MOLCAS    ERIS     OPER   

              2       4        0.74       700     1000      520     2100   
                                         GEOM     BASIS   MCVARS     RHF  

 PROGRAMS   *        TOTAL    HF-SCF       INT
 CPU TIMES  *         1.99      0.87      1.02
 REAL TIME  *         7.30 SEC
 DISK USED  *       238.77 MB
 **********************************************************************************************************************************


 PROGRAM * CCSD (Closed-shell coupled cluster)     Authors: C. Hampel, H.-J. Werner, 1991, M. Deegan, P.J. Knowles, 1992


 Convergence thresholds:  THRVAR = 1.00D-08  THRDEN = 1.00D-06

 CCSD(T)     terms to be evaluated (factor= 1.000)


 Number of core orbitals:           5 (   5 )
 Number of closed-shell orbitals:  14 (  14 )
 Number of external orbitals:      86 (  86 )

 Molecular orbitals read from record     2100.2  Type=RHF/CANONICAL  

 Number of N-1 electron functions:              14
 Number of N-2 electron functions:             105
 Number of singly external CSFs:              1204
 Number of doubly external CSFs:            725410
 Total number of CSFs:                      726615

 Length of J-op  integral file:               0.00 MB
 Length of K-op  integral file:               0.82 MB
 Length of 3-ext integral record:             0.00 MB

 Memory could be reduced to 12.46 Mwords without degradation in triples

 Integral transformation finished. Total CPU:   0.46 sec, npass=  1  Memory used:  10.92 MW

 Reference energy:                   -209.83244771

 MP2 singlet pair energy:              -0.46311003
 MP2 triplet pair energy:              -0.27869361
 MP2 correlation energy:               -0.74180364
 MP2 total energy:                   -210.57425136

 SCS-MP2 correlation energy:           -0.72914140   (PS=  1.200000  PT=  0.333333)
 SCS-MP2 total energy:               -210.56158911

 ITER.      SQ.NORM     CORR.ENERGY   TOTAL ENERGY   ENERGY CHANGE        DEN1      VAR(S)    VAR(P)  DIIS     TIME  TIME/IT
   1      1.29710208    -0.77552913  -210.60797685    -0.03372549    -0.00738527  0.64D-02  0.73D-02  1  1     3.63     1.44
   2      1.32694614    -0.78041013  -210.61285785    -0.00488100    -0.02387246  0.22D-03  0.12D-02  2  2     4.99     1.59
   3      1.34214064    -0.78114689  -210.61359460    -0.00073676    -0.00577469  0.27D-03  0.94D-04  3  3     6.12     1.50
   4      1.35019566    -0.78140979  -210.61385751    -0.00026290    -0.00174101  0.46D-04  0.22D-04  4  4     7.23     1.50
   5      1.35483952    -0.78147591  -210.61392362    -0.00006612    -0.00068850  0.14D-04  0.27D-05  5  5     8.32     1.52
   6      1.35665578    -0.78144774  -210.61389545     0.00002817    -0.00014309  0.16D-05  0.68D-06  6  6     9.50     1.49
   7      1.35728620    -0.78144631  -210.61389403     0.00000142    -0.00002951  0.22D-06  0.13D-06  6  2    10.63     1.46
   8      1.35742007    -0.78144406  -210.61389177     0.00000225    -0.00000423  0.22D-07  0.16D-07  6  1    11.83     1.46
   9      1.35747471    -0.78144239  -210.61389011     0.00000167    -0.00000368  0.51D-08  0.21D-08  6  3    13.06     1.45
  10      1.35746547    -0.78144288  -210.61389059    -0.00000049     0.00000308  0.10D-08  0.49D-09  6  5    14.26     1.44
  11      1.35747127    -0.78144289  -210.61389061    -0.00000001     0.00000020  0.28D-09  0.10D-09  6  4    15.56     1.45

 Norm of t1 vector:      0.15058628      S-energy:     0.00000023      T1 diagnostic:  0.02012294
                                                                       D1 diagnostic:  0.07555980
                                                                       D2 diagnostic:  0.20925642 (external, symmetry=1)

 Singles amplitudes (print threshold =  0.500E-01):

         I         SYM. A    A   T(IA)

        14         1         1     -0.06334724

 Doubles amplitudes (print threshold =  0.500E-01):

         I         J         SYM. A    SYM. B    A         B      T(IJ, AB)

        12        12         1         1         2         2     -0.06778034
        13        13         1         1         4         4     -0.07673939
        14        14         1         1         1         1     -0.11319445


 Total CPU time for triples:      9.86 sec


 RESULTS
 =======

  Reference energy                   -209.832447713226
  CCSD singlet pair energy             -0.536405063333
  CCSD triplet pair energy             -0.245038062436
  CCSD correlation energy              -0.781442892687

  Triples (T) contribution             -0.035142507375
  Total correlation energy             -0.816585400062

  CCSD total energy                  -210.613890605914
  CCSD[T] energy                     -210.650798772273
  CCSD-T energy                      -210.648636708495
 !CCSD(T) total energy               -210.649033113288

 Timing summary (sec):

 STEP                 CPU(USER)    SYS     CPU(TOT)    WALL
 Transformation          0.49      0.08      0.57      0.92
 CCSD iterations        15.11      0.68     15.79     16.43
 Triples                 9.86      0.56     10.42     10.89

 Program statistics:

 Available memory in ccsd:               393215197
 Min. memory needed in ccsd:               1977207
 Max. memory used in ccsd:                 2600641
 Max. memory used in cckext:               2458865 (11 integral passes)



 **********************************************************************************************************************************
 DATASETS  * FILE   NREC   LENGTH (MB)   RECORD NAMES
              1      20      128.09       500      610      700      900      950      970     1000      129      960     1100   
                                          VAR    BASINP    GEOM    SYMINP    ZMAT    AOBASIS   BASIS     P2S    ABASIS      S 
                                         1400     1410     1200     1210     1080     1600     1650     1300     1700     1380   
                                           T        V       H0       H01     AOSYM     SMH    MOLCAS    ERIS     OPER     JKOP   

              2       4        0.74       700     1000      520     2100   
                                         GEOM     BASIS   MCVARS     RHF  

 PROGRAMS   *        TOTAL   CCSD(T)    HF-SCF       INT
 CPU TIMES  *        25.37     23.37      0.87      1.02
 REAL TIME  *        37.24 SEC
 DISK USED  *       248.86 MB
 **********************************************************************************************************************************

 Dump information in style XML to xml output                                                                      

 Orbitals will not be exported.

 **********************************************************************************************************************************

 CCSD(T)/cc-pVDZ energy=   -210.649033113288

         CCSD(T)          HF-SCF
   -210.64903311   -209.83244771
 **********************************************************************************************************************************
 Molpro calculation terminated
