
 Working directory              : /var/folders/2v/xbgp75_9785319ghcgb4zr4r0000gp/T//molpro.iX76kKXl7g/
 Global scratch directory       : /var/folders/2v/xbgp75_9785319ghcgb4zr4r0000gp/T//molpro.iX76kKXl7g/
 Wavefunction directory         : /Users/sacpjk/wfu/
 Main file repository           : /var/folders/2v/xbgp75_9785319ghcgb4zr4r0000gp/T//molpro.iX76kKXl7g/

 id        : peterk

 Nodes                        nprocs
 Cardiff-University-G34YLXT77Y    1
 GA implementation: MPI file
 GA implementation (serial work in mppx): MPI file

 Using customized tuning parameters: mindgm=1; mindgv=20; mindgc=4; mindgr=1; noblas=0; minvec=7
 default implementation of scratch files=df  


 Variables initialized (1032), CPU time= 0.01 sec
 
 core,small
 angstrom
 
 geometry={
 C;O,C,1.20430342;H1,C,1.10077162,O,121.78046616;H2,C,1.10077162,O,121.78046616,H1,180
 }
 basis=cc-pCVQZ
 
 
 
 hf; hf; papt; mp2
 
 
 
 {put,xml;noorbitals,nobasis}
 Commands initialized (841), CPU time= 0.00 sec, 704 directives.
 Default parameters read. Elapsed time= 0.54 sec

 Checking input...
 Passed
1


                                         ***  PROGRAM SYSTEM MOLPRO  ***
                                       Copyright, TTI GmbH Stuttgart, 2015
                                    Version 2023.1 linked Tue Jun  6 09:54:11 2023


 **********************************************************************************************************************************
 LABEL *                                                                                                                                                                 
  64 bit serial version                                                                  DATE: 12-Jun-23          TIME: 10:48:30  
 **********************************************************************************************************************************

 SHA1:             8ebb0dd001088a5c915591db1a321413035db0b1
 **********************************************************************************************************************************

 Memory per process:       393 MW
 Total memory per node:    524 MW
 Total GA space:           131 MW

 GA preallocation disabled
 GA check enabled

 Variable memory set to 393.2 MW

 ZUNIT=ANG

 SETTING BASIS          =    CC-PCVQZ


 Recomputing integrals since basis changed


 Using spherical harmonics

 Library entry C      S cc-pCVQZ             selected for orbital group  1
 Library entry C      P cc-pCVQZ             selected for orbital group  1
 Library entry C      D cc-pCVQZ             selected for orbital group  1
 Library entry C      F cc-pCVQZ             selected for orbital group  1
 Library entry C      G cc-pCVQZ             selected for orbital group  1
 Library entry O      S cc-pCVQZ             selected for orbital group  2
 Library entry O      P cc-pCVQZ             selected for orbital group  2
 Library entry O      D cc-pCVQZ             selected for orbital group  2
 Library entry O      F cc-pCVQZ             selected for orbital group  2
 Library entry O      G cc-pCVQZ             selected for orbital group  2
 Library entry H      S cc-pVQZ              selected for orbital group  3
 Library entry H      P cc-pVQZ              selected for orbital group  3
 Library entry H      D cc-pVQZ              selected for orbital group  3
 Library entry H      F cc-pVQZ              selected for orbital group  3


 PROGRAM * SEWARD (Integral evaluation for generally contracted gaussian basis sets)     Author: Roland Lindh, 1990

 Geometry written to block  1 of record 700

 Orientation using atomic masses  
 Molecule type: Asymmetric top,     Order of principal axis = 2
 Symmetry elements: X,Y
 Rotational constants:      34.2927288     38.9589211    286.3164739 GHz  (calculated with average atomic masses)

 Point group  C2v 



 ATOMIC COORDINATES

 NR  ATOM    CHARGE       X              Y              Z

   1  C       6.00    0.000000000    0.000000000   -1.139102130
   2  O       8.00    0.000000000    0.000000000    1.136701504
   3  H1      1.00    0.000000000    1.768283747   -2.234650061
   4  H2      1.00    0.000000000   -1.768283747   -2.234650061

 Bond lengths in Bohr (Angstrom)

 1-2  2.275803635  1-3  2.080156888  1-4  2.080156888
     ( 1.204303420)     ( 1.100771620)     ( 1.100771620)

 Bond angles

  2-1-3  121.78046616   2-1-4  121.78046616   3-1-4  116.43906768

 NUCLEAR CHARGE:                   16
 NUMBER OF PRIMITIVE AOS:         308
 NUMBER OF SYMMETRY AOS:          258
 NUMBER OF CONTRACTIONS:          228   (   88A1  +   50B1  +   60B2  +   30A2  )
 NUMBER OF INNER CORE ORBITALS:     0   (    0A1  +    0B1  +    0B2  +    0A2  )
 NUMBER OF OUTER CORE ORBITALS:     2   (    2A1  +    0B1  +    0B2  +    0A2  )
 NUMBER OF VALENCE ORBITALS:       10   (    5A1  +    2B1  +    3B2  +    0A2  )


 NUCLEAR REPULSION ENERGY   31.34585015


 Eigenvalues of metric

         1 0.258E-04 0.268E-04 0.227E-03 0.382E-03 0.995E-03 0.128E-02 0.153E-02 0.177E-02
         2 0.154E-02 0.252E-02 0.813E-02 0.130E-01 0.436E-01 0.546E-01 0.101E+00 0.107E+00
         3 0.252E-03 0.121E-02 0.175E-02 0.240E-02 0.446E-02 0.635E-02 0.854E-02 0.135E-01
         4 0.122E-01 0.410E-01 0.941E-01 0.138E+00 0.179E+00 0.210E+00 0.271E+00 0.358E+00


 Contracted 2-electron integrals neglected if value below      1.0D-12
 AO integral compression algorithm  1   Integral accuracy      1.0D-12

     390.070 MB (compressed) written to integral file ( 45.6%)


 NUMBER OF SORTED TWO-ELECTRON INTEGRALS:   87298231.     BUFFER LENGTH:  32768
 NUMBER OF SEGMENTS:   6  SEGMENT LENGTH:   15999670      RECORD LENGTH: 524288

 Memory used in sort:      16.56 MW

 SORT1 READ   106982298. AND WROTE    70522460. INTEGRALS IN    204 RECORDS. CPU TIME:     1.12 SEC, REAL TIME:     1.35 SEC
 SORT2 READ    70522460. AND WROTE    87298231. INTEGRALS IN   1488 RECORDS. CPU TIME:     0.73 SEC, REAL TIME:     0.88 SEC

 FILE SIZES:   FILE 1:   421.3 MBYTE,  FILE 4:   855.7 MBYTE,   TOTAL:   1277.0 MBYTE

 OPERATOR DM      FOR CENTER  0  COORDINATES:    0.000000    0.000000    0.000000


 **********************************************************************************************************************************
 DATASETS  * FILE   NREC   LENGTH (MB)   RECORD NAMES
              1      19      342.86       500      610      700      900      950      970     1000      129      960     1100   
                                          VAR    BASINP    GEOM    SYMINP    ZMAT    AOBASIS   BASIS     P2S    ABASIS      S 
                                         1400     1410     1200     1210     1080     1600     1650     1300     1700   
                                           T        V       H0       H01     AOSYM     SMH    MOLCAS    ERIS     OPER   

 PROGRAMS   *        TOTAL       INT
 CPU TIMES  *         6.37      6.27
 REAL TIME  *        10.51 SEC
 DISK USED  *         1.19 GB
 **********************************************************************************************************************************


 Program * Restricted Hartree-Fock

 Orbital guess generated from atomic densities. Full valence occupancy:    7   2   3   0

 Initial occupancy:   5   1   2   0

 NELEC=   16   SYM=1   MS2= 0   THRE=1.0D-08   THRD=3.2D-06   THRG=3.2D-06  HFMA2=F  DIIS_START=2   DIIS_MAX=10   DIIS_INCORE=F

 Level shifts:    0.00 (CLOSED)    0.00 (OPEN)    0.30 (GAP_MIN)

 ITER           ETOT              DE          GRAD        DDIFF     DIIS  NEXP   TIME(IT)  TIME(TOT)  DIAG
   1     -113.86852729    -113.86852729     0.00D+00     0.64D-01     0     0       0.20      0.40    start
   2     -113.89227339      -0.02374610     0.10D-01     0.95D-02     1     0       0.20      0.60    diag
   3     -113.92060764      -0.02833425     0.85D-02     0.44D-02     2     0       0.21      0.81    diag
   4     -113.92104342      -0.00043578     0.69D-03     0.60D-03     3     0       0.22      1.03    diag
   5     -113.92110012      -0.00005670     0.23D-03     0.22D-03     4     0       0.22      1.25    diag
   6     -113.92111308      -0.00001297     0.82D-04     0.12D-03     5     0       0.22      1.47    diag
   7     -113.92111524      -0.00000215     0.38D-04     0.63D-04     6     0       0.22      1.69    diag
   8     -113.92111531      -0.00000008     0.74D-05     0.13D-04     7     0       0.22      1.91    fixocc
   9     -113.92111531      -0.00000000     0.90D-06     0.13D-05     8     0       0.22      2.13    diag
  10     -113.92111531      -0.00000000     0.19D-06     0.22D-06     0     0       0.20      2.33    diag/orth

 Final occupancy:   5   1   2   0

 !RHF STATE 1.1 Energy               -113.921115314002
  RHF One-electron energy            -217.497359293504
  RHF Two-electron energy              72.230393831122
  RHF Kinetic energy                  113.774368389758
  RHF Nuclear energy                   31.345850148379
  RHF Virial quotient                  -1.001289806538

 !RHF STATE 1.1 Dipole moment           0.00000000     0.00000000    -1.11048909
 Dipole moment /Debye                   0.00000000     0.00000000    -2.82258174

 Orbital energies:

           1.1          2.1          3.1          4.1          5.1          6.1          7.1
    -20.574507   -11.339722    -1.405939    -0.870430    -0.652239     0.121025     0.216857

           1.2          2.2          3.2
     -0.537111     0.109467     0.335547

           1.3          2.3          3.3          4.3
     -0.695197    -0.443144     0.174085     0.346246

           1.4          2.4
      0.538814     0.870041


 HOMO      2.3    -0.443144 =     -12.0586eV
 LUMO      2.2     0.109467 =       2.9787eV
 LUMO-HOMO         0.552611 =      15.0373eV

 Orbitals saved in record  2100.2


 **********************************************************************************************************************************
 DATASETS  * FILE   NREC   LENGTH (MB)   RECORD NAMES
              1      19      342.86       500      610      700      900      950      970     1000      129      960     1100   
                                          VAR    BASINP    GEOM    SYMINP    ZMAT    AOBASIS   BASIS     P2S    ABASIS      S 
                                         1400     1410     1200     1210     1080     1600     1650     1300     1700   
                                           T        V       H0       H01     AOSYM     SMH    MOLCAS    ERIS     OPER   

              2       4        0.66       700     1000      520     2100   
                                         GEOM     BASIS   MCVARS     RHF  

 PROGRAMS   *        TOTAL    HF-SCF       INT
 CPU TIMES  *         8.70      2.33      6.27
 REAL TIME  *        14.08 SEC
 DISK USED  *         1.19 GB
 **********************************************************************************************************************************


 Program * Restricted Hartree-Fock

 Molecular orbitals read from record     2100.2  Type=RHF/CANONICAL  

 Initial occupancy:   5   1   2   0

 NELEC=   16   SYM=1   MS2= 0   THRE=1.0D-08   THRD=3.2D-06   THRG=3.2D-06  HFMA2=F  DIIS_START=2   DIIS_MAX=10   DIIS_INCORE=F

 Level shifts:    0.00 (CLOSED)    0.00 (OPEN)    0.30 (GAP_MIN)

 ITER           ETOT              DE          GRAD        DDIFF     DIIS  NEXP   TIME(IT)  TIME(TOT)  DIAG
   1     -113.92111531    -113.92111531     0.00D+00     0.65D-01     0     0       0.22      0.22    start
   2     -113.92111531      -0.00000000     0.86D-07     0.98D-07     1     0       0.21      0.43    diag

 Final occupancy:   5   1   2   0

 !RHF STATE 1.1 Energy               -113.921115314009
  RHF One-electron energy            -217.497349840040
  RHF Two-electron energy              72.230384377651
  RHF Kinetic energy                  113.774358873606
  RHF Nuclear energy                   31.345850148379
  RHF Virial quotient                  -1.001289890287

 !RHF STATE 1.1 Dipole moment           0.00000000     0.00000000    -1.11048385
 Dipole moment /Debye                   0.00000000     0.00000000    -2.82256841

 Orbital energies:

           1.1          2.1          3.1          4.1          5.1          6.1          7.1
    -20.574504   -11.339723    -1.405938    -0.870430    -0.652239     0.121025     0.216857

           1.2          2.2          3.2
     -0.537110     0.109467     0.335547

           1.3          2.3          3.3          4.3
     -0.695197    -0.443143     0.174085     0.346246

           1.4          2.4
      0.538814     0.870041


 HOMO      2.3    -0.443143 =     -12.0585eV
 LUMO      2.2     0.109467 =       2.9787eV
 LUMO-HOMO         0.552610 =      15.0373eV

 Orbitals saved in record  2101.2


 **********************************************************************************************************************************
 DATASETS  * FILE   NREC   LENGTH (MB)   RECORD NAMES
              1      19      342.86       500      610      700      900      950      970     1000      129      960     1100   
                                          VAR    BASINP    GEOM    SYMINP    ZMAT    AOBASIS   BASIS     P2S    ABASIS      S 
                                         1400     1410     1200     1210     1080     1600     1650     1300     1700   
                                           T        V       H0       H01     AOSYM     SMH    MOLCAS    ERIS     OPER   

              2       5        1.16       700     1000      520     2100     2101   
                                         GEOM     BASIS   MCVARS     RHF      RHF  

 PROGRAMS   *        TOTAL    HF-SCF    HF-SCF       INT
 CPU TIMES  *         9.14      0.43      2.33      6.27
 REAL TIME  *        15.26 SEC
 DISK USED  *         1.19 GB
 **********************************************************************************************************************************


 PROGRAM * PAPT (Closed-shell)     Authors: C. Hampel, H.-J. Werner, 1991, P.J. Knowles, 2021


 CORETYPE=SMALL

 Convergence thresholds:  THRVAR = 1.00D-08  THRDEN = 1.00D-06

 Number of closed-shell orbitals:   8 (   5   1   2   0 )
 Number of external orbitals:     220 (  83  49  58  30 )

 Molecular orbitals read from record     2101.2  Type=RHF/CANONICAL  

 Number of N-1 electron functions:               8
 Number of N-2 electron functions:              36
 Number of singly external CSFs:               580
 Number of doubly external CSFs:            409268
 Total number of CSFs:                      409849

 Length of J-op  integral file:               0.00 MB
 Length of K-op  integral file:               1.07 MB

 Integral transformation finished. Total CPU:   0.41 sec, npass=  1  Memory used:   0.67 MW

 Reference energy:                   -113.92111531

                        CORR.ENERGY   TOTAL ENERGY   ENERGY CHANGE
 MP2:                   -0.53599042  -114.45710573    -0.53599042

 SCS-MP2 correlation energy:           -0.54691742   (PS=  1.200000  PT=  0.333333)
 SCS-MP2 total energy:               -114.46803273
 Iteration:   1     0.4389D+00
 Iteration:   2     0.6047D+00
 Iteration:   3     0.1605D+00
 Iteration:   4     0.1406D+00
 Iteration:   5     0.5821D+00
 Iteration:   6     0.4120D-01
 Iteration:   7     0.7934D-01
 Iteration:   8     0.1948D-01
 Iteration:   9     0.1481D-01
 Iteration:  10     0.2185D-01
 Iteration:  11     0.4374D-02
 Iteration:  12     0.6933D-02
 Iteration:  13     0.3257D-02
 Iteration:  14     0.9156D-03
 Iteration:  15     0.3184D-02
 Iteration:  16     0.3473D-03
 Iteration:  17     0.2391D-03
 Iteration:  18     0.3157D-03
 Iteration:  19     0.1005D-03
 Iteration:  20     0.4473D-03
 Iteration:  21     0.3901D-04
 PAPT operator written to  7000.1
 PAPT orbitals and eigenvalues written to  7000.2

 MP3(D):                -0.54004281  -114.46115812    -0.00405239



 RESULTS
 =======

  Reference energy                   -113.921115314009

  Correlated core orbitals:             1.1       2.1
  Orbital energies:                   -20.5745  -11.3397

  MP3 core-core energy                 -0.080981735316
  MP3 core-valence energy              -0.032681223744
  MP3 valence correlation energy       -0.426379847117

  MP3 singlet pair energy              -0.388681372061
  MP3 triplet pair energy              -0.151361434116
  MP3 correlation energy               -0.540042806177

 !MP3 total energy                   -114.461158120186

 Timing summary (sec):

 STEP                 CPU(USER)    SYS     CPU(TOT)    WALL
 Transformation          0.42      0.04      0.46      0.56
 CCSD iterations        10.32      0.17     10.49      3.74

 Program statistics:

 Available memory in ccsd:               393215739
 Min. memory needed in ccsd:               1233294
 Max. memory used in ccsd:                 1583238
 Max. memory used in cckext:               1630894 ( 1 integral passes)



 **********************************************************************************************************************************
 DATASETS  * FILE   NREC   LENGTH (MB)   RECORD NAMES
              1      21      348.90       500      610      700      900      950      970     1000      129      960     1100   
                                          VAR    BASINP    GEOM    SYMINP    ZMAT    AOBASIS   BASIS     P2S    ABASIS      S 
                                         1400     1410     1200     1210     1080     1600     1650     1300     1700     1380   
                                           T        V       H0       H01     AOSYM     SMH    MOLCAS    ERIS     OPER     JKOP   
                                         7000   
                                        PAPT AO    

              2       6        1.60       700     1000      520     2100     2101     7000   
                                         GEOM     BASIS   MCVARS     RHF      RHF     PAPT   

 PROGRAMS   *        TOTAL      PAPT    HF-SCF    HF-SCF       INT
 CPU TIMES  *        10.65      1.51      0.43      2.33      6.27
 REAL TIME  *        20.33 SEC
 DISK USED  *         1.19 GB
 **********************************************************************************************************************************


 PROGRAM * MP2 (Closed-shell)     Authors: C. Hampel, H.-J. Werner, 1991, M. Deegan, P.J. Knowles, 1992


 CORETYPE=SMALL

 Convergence thresholds:  THRVAR = 1.00D-08  THRDEN = 1.00D-06

 Number of closed-shell orbitals:   8 (   5   1   2   0 )
 Number of external orbitals:     220 (  83  49  58  30 )

 Molecular orbitals read from record     7000.2  Type=PAPT/CANONICAL (state 1.1)

 Number of N-1 electron functions:               8
 Number of N-2 electron functions:              36
 Number of singly external CSFs:               580
 Number of doubly external CSFs:            409268
 Total number of CSFs:                      409849

 Length of J-op  integral file:               0.00 MB
 Length of K-op  integral file:               1.07 MB

 Integral transformation finished. Total CPU:   0.43 sec, npass=  1  Memory used:   0.67 MW
 Orbital energies read from record       7000.2  Type=PAPT/CANONICAL (state 1.1)

 Memory needed for MP2:                      0.07 MW

 SCS-MP2 correlation energy:           -0.559028727865   (PS=  1.200000  PT=  0.333333)
 SCS-MP2 total energy:               -114.480144041874


  Reference energy                   -113.921115314009

  Correlated core orbitals:             1.1       2.1
  Orbital energies:                   -19.0303  -10.3843

  MP2 core-core energy                 -0.081505003354
  MP2 core-valence energy              -0.032395619074
  MP2 valence correlation energy       -0.431217292633

  MP2 singlet pair energy              -0.380499658932
  MP2 triplet pair energy              -0.164618256129
  MP2 correlation energy               -0.545117915061

 !MP2 total energy                   -114.466233229069


 **********************************************************************************************************************************
 DATASETS  * FILE   NREC   LENGTH (MB)   RECORD NAMES
              1      21      348.90       500      610      700      900      950      970     1000      129      960     1100   
                                          VAR    BASINP    GEOM    SYMINP    ZMAT    AOBASIS   BASIS     P2S    ABASIS      S 
                                         1400     1410     1200     1210     1080     1600     1650     1300     1700     1380   
                                           T        V       H0       H01     AOSYM     SMH    MOLCAS    ERIS     OPER     JKOP   
                                         7000   
                                        PAPT AO    

              2       6        1.60       700     1000      520     2100     2101     7000   
                                         GEOM     BASIS   MCVARS     RHF      RHF     PAPT   

 PROGRAMS   *        TOTAL       MP2      PAPT    HF-SCF    HF-SCF       INT
 CPU TIMES  *        11.33      0.68      1.51      0.43      2.33      6.27
 REAL TIME  *        21.97 SEC
 DISK USED  *         1.19 GB
 **********************************************************************************************************************************

 Dump information in style XML to xml output                                                                      

 Orbitals will not be exported.

 **********************************************************************************************************************************

 MP2/cc-pCVQZ energy=   -114.466233229069

             MP2            PAPT          HF-SCF          HF-SCF
   -114.46623323   -114.46115812   -113.92111531   -113.92111531
 **********************************************************************************************************************************
 Molpro calculation terminated
