
 Working directory              : /var/folders/2v/xbgp75_9785319ghcgb4zr4r0000gp/T//molpro.oqS3vQn70z/
 Global scratch directory       : /var/folders/2v/xbgp75_9785319ghcgb4zr4r0000gp/T//molpro.oqS3vQn70z/
 Wavefunction directory         : /Users/sacpjk/wfu/
 Main file repository           : /var/folders/2v/xbgp75_9785319ghcgb4zr4r0000gp/T//molpro.oqS3vQn70z/

 id        : peterk

 Nodes                        nprocs
 Cardiff-University-G34YLXT77Y    1
 GA implementation: MPI file
 GA implementation (serial work in mppx): MPI file

 Using customized tuning parameters: mindgm=1; mindgv=20; mindgc=4; mindgr=1; noblas=0; minvec=7
 default implementation of scratch files=df  


 Variables initialized (1032), CPU time= 0.00 sec
 
 symmetry,nosym
 
 
 geometry={
           12
     N         -0.79328369     -1.37400766     -0.32036436
     P         -1.76898046      0.00000000      0.03727417
     N         -0.79328369      1.37400766     -0.32036436
     P          0.88449023      1.53198202      0.03727417
     N          1.58656739      0.00000000     -0.32036436
     P          0.88449023     -1.53198202      0.03727417
     H         -1.08668589     -1.88219517     -1.14115553
     H         -1.47492030      0.00000000      1.42424573
     H         -1.08668589      1.88219517     -1.14115553
     H          0.73746015      1.27731845      1.42424573
     H          2.17337177      0.00000000     -1.14115553
     H          0.73746015     -1.27731845      1.42424573
 }
 basis=cc-pVTZ
 
 
 
 hf; ccsd(t)
 
 
 
 {put,xml;noorbitals,nobasis}
 Commands initialized (841), CPU time= 0.00 sec, 704 directives.
 Default parameters read. Elapsed time= 2.95 sec

 Checking input...
 Passed
1


                                         ***  PROGRAM SYSTEM MOLPRO  ***
                                       Copyright, TTI GmbH Stuttgart, 2015
                                    Version 2023.1 linked Tue Jun  6 09:54:11 2023


 **********************************************************************************************************************************
 LABEL *                                                                                                                                                                 
  64 bit serial version                                                                  DATE: 13-Jun-23          TIME: 12:04:24  
 **********************************************************************************************************************************

 SHA1:             8ebb0dd001088a5c915591db1a321413035db0b1
 **********************************************************************************************************************************

 Memory per process:       393 MW
 Total memory per node:    524 MW
 Total GA space:           131 MW

 GA preallocation disabled
 GA check enabled

 Variable memory set to 393.2 MW

 ZSYMEL=NOSYM


 Geometry recognized as XYZ

 SETTING BASIS          =    CC-PVTZ


 Recomputing integrals since basis changed


 Using spherical harmonics

 Library entry N      S cc-pVTZ              selected for orbital group  1
 Library entry N      P cc-pVTZ              selected for orbital group  1
 Library entry N      D cc-pVTZ              selected for orbital group  1
 Library entry N      F cc-pVTZ              selected for orbital group  1
 Library entry P      S cc-pVTZ              selected for orbital group  2
 Library entry P      P cc-pVTZ              selected for orbital group  2
 Library entry P      D cc-pVTZ              selected for orbital group  2
 Library entry P      F cc-pVTZ              selected for orbital group  2
 Library entry H      S cc-pVTZ              selected for orbital group  7
 Library entry H      P cc-pVTZ              selected for orbital group  7
 Library entry H      D cc-pVTZ              selected for orbital group  7


 PROGRAM * SEWARD (Integral evaluation for generally contracted gaussian basis sets)     Author: Roland Lindh, 1990

 Geometry written to block  1 of record 700


 Point group  C1  



 ATOMIC COORDINATES

 NR  ATOM    CHARGE       X              Y              Z

   1  N       7.00   -1.499088913   -2.596498171   -0.605400900
   2  P      15.00   -3.342888589    0.000000000    0.070437973
   3  N       7.00   -1.499088913    2.596498171   -0.605400900
   4  P      15.00    1.671444295    2.895026446    0.070437973
   5  N       7.00    2.998177845    0.000000000   -0.605400900
   6  P      15.00    1.671444295   -2.895026446    0.070437973
   7  H       1.00   -2.053538716   -3.556833384   -2.156471417
   8  H       1.00   -2.787195423    0.000000000    2.691434364
   9  H       1.00   -2.053538716    3.556833384   -2.156471417
  10  H       1.00    1.393597711    2.413782044    2.691434364
  11  H       1.00    4.107077412    0.000000000   -2.156471417
  12  H       1.00    1.393597711   -2.413782044    2.691434364

 Bond lengths in Bohr (Angstrom)

 1-2  3.255481251  1-6  3.255481245  1-7  1.906692963  2-3  3.255481251  2-8  2.679256796
     ( 1.722726489)     ( 1.722726485)     ( 1.008978464)     ( 1.722726489)     ( 1.417801638)

  3- 4  3.255481245   3- 9  1.906692963   4- 5  3.255481258   4-10  2.679256796   5- 6  3.255481258
       ( 1.722726485)       ( 1.008978464)       ( 1.722726492)       ( 1.417801639)       ( 1.722726492)

  5-11  1.906692948   6-12  2.679256796
       ( 1.008978456)       ( 1.417801639)

 Bond angles

  1- 2- 3  105.79875380   1- 2- 8   94.91157002   1- 6- 5  105.79875394   1- 6-12   94.91157003

  2-1-6  125.56521225   2-1-7  113.94737884   2-3-4  125.56521225   2-3-9  113.94737884

  3- 2- 8   94.91157002   3- 4- 5  105.79875394   3- 4-10   94.91157003   4- 3- 9  113.94737925

  4- 5- 6  125.56521191   4- 5-11  113.94737899   5- 4-10   94.91156998   5- 6-12   94.91156998

  6- 1- 7  113.94737925   6- 5-11  113.94737899

 NUCLEAR CHARGE:                   72
 NUMBER OF PRIMITIVE AOS:         435
 NUMBER OF SYMMETRY AOS:          399
 NUMBER OF CONTRACTIONS:          276   (  276A   )
 NUMBER OF INNER CORE ORBITALS:     3   (    3A   )
 NUMBER OF OUTER CORE ORBITALS:    15   (   15A   )
 NUMBER OF VALENCE ORBITALS:       30   (   30A   )


 NUCLEAR REPULSION ENERGY  478.78948540


 Eigenvalues of metric

         1 0.100E-02 0.100E-02 0.121E-02 0.173E-02 0.173E-02 0.190E-02 0.190E-02 0.198E-02


 Contracted 2-electron integrals neglected if value below      1.0D-11
 AO integral compression algorithm  1   Integral accuracy      1.0D-11

     2453.668 MB (compressed) written to integral file ( 39.1%)


 NUMBER OF SORTED TWO-ELECTRON INTEGRALS:  730632651.     BUFFER LENGTH:  32768
 NUMBER OF SEGMENTS:  46  SEGMENT LENGTH:   15999984      RECORD LENGTH: 262144

 Memory used in sort:      16.29 MW

 SORT1 READ   783544483. AND WROTE   636929596. INTEGRALS IN   3664 RECORDS. CPU TIME:     6.73 SEC, REAL TIME:     8.86 SEC
 SORT2 READ   636929596. AND WROTE   730632651. INTEGRALS IN   9360 RECORDS. CPU TIME:     4.71 SEC, REAL TIME:     6.62 SEC

 FILE SIZES:   FILE 1:  2486.7 MBYTE,  FILE 4:  7684.0 MBYTE,   TOTAL:  10170.7 MBYTE

 OPERATOR DM      FOR CENTER  0  COORDINATES:    0.000000    0.000000    0.000000


 **********************************************************************************************************************************
 DATASETS  * FILE   NREC   LENGTH (MB)   RECORD NAMES
              1      19     2183.03       500      610      700      900      950      970     1000      129      960     1100   
                                          VAR    BASINP    GEOM    SYMINP    ZMAT    AOBASIS   BASIS     P2S    ABASIS      S 
                                         1400     1410     1200     1210     1080     1600     1650     1300     1700   
                                           T        V       H0       H01     AOSYM     SMH    MOLCAS    ERIS     OPER   

 PROGRAMS   *        TOTAL       INT
 CPU TIMES  *        30.88     30.79
 REAL TIME  *        46.80 SEC
 DISK USED  *         9.47 GB
 **********************************************************************************************************************************


 Program * Restricted Hartree-Fock

 Orbital guess generated from atomic densities. Full valence occupancy:   48

 Initial occupancy:  36

 NELEC=   72   SYM=1   MS2= 0   THRE=1.0D-08   THRD=3.2D-06   THRG=3.2D-06  HFMA2=F  DIIS_START=2   DIIS_MAX=10   DIIS_INCORE=F

 Level shifts:    0.00 (CLOSED)    0.00 (OPEN)    0.30 (GAP_MIN)

 ITER           ETOT              DE          GRAD        DDIFF     DIIS  NEXP   TIME(IT)  TIME(TOT)  DIAG
   1    -1189.13943486   -1189.13943486     0.00D+00     0.57D-01     0     0       3.17      6.28    start
   2    -1189.20912239      -0.06968753     0.25D-02     0.40D-02     1     0       3.18      9.46    diag
   3    -1189.21719833      -0.00807594     0.89D-03     0.12D-02     2     0       3.15     12.61    diag
   4    -1189.21885226      -0.00165394     0.38D-03     0.52D-03     3     0       3.16     15.77    diag
   5    -1189.21893648      -0.00008422     0.70D-04     0.11D-03     4     0       3.17     18.94    diag
   6    -1189.21894506      -0.00000858     0.22D-04     0.36D-04     5     0       3.15     22.09    diag
   7    -1189.21894552      -0.00000046     0.40D-05     0.10D-04     6     0       3.16     25.25    diag
   8    -1189.21894555      -0.00000003     0.11D-05     0.23D-05     7     0       3.18     28.43    fixocc
   9    -1189.21894556      -0.00000000     0.35D-06     0.91D-06     8     0       3.21     31.64    diag
  10    -1189.21894556      -0.00000000     0.13D-06     0.21D-06     0     0       3.19     34.83    diag/orth

 Final occupancy:  36

 !RHF STATE 1.1 Energy              -1189.218945559027
  RHF One-electron energy           -2596.322138383541
  RHF Two-electron energy             928.313707425057
  RHF Kinetic energy                 1188.777627645021
  RHF Nuclear energy                  478.789485399457
  RHF Virial quotient                  -1.000371236726

 !RHF STATE 1.1 Dipole moment           0.00000001     0.00000000    -0.53927071
 Dipole moment /Debye                   0.00000003     0.00000000    -1.37068943

 Orbital energies:

           1.1          2.1          3.1          4.1          5.1          6.1          7.1          8.1          9.1         10.1
    -79.983420   -79.983420   -79.983420   -15.556374   -15.556374   -15.556357    -7.518237    -7.518237    -7.518227    -5.411946

          11.1         12.1         13.1         14.1         15.1         16.1         17.1         18.1         19.1         20.1
     -5.411945    -5.411945    -5.411627    -5.411621    -5.411621    -5.411128    -5.411118    -5.411118    -1.214619    -1.150167

          21.1         22.1         23.1         24.1         25.1         26.1         27.1         28.1         29.1         30.1
     -1.150167    -0.835708    -0.835708    -0.789661    -0.638179    -0.638179    -0.607767    -0.606207    -0.539317    -0.539317

          31.1         32.1         33.1         34.1         35.1         36.1         37.1         38.1
     -0.490168    -0.417114    -0.411294    -0.411294    -0.347180    -0.347180     0.123916     0.126196


 HOMO     36.1    -0.347180 =      -9.4472eV
 LUMO     37.1     0.123916 =       3.3719eV
 LUMO-HOMO         0.471095 =      12.8192eV

 Orbitals saved in record  2100.2


 **********************************************************************************************************************************
 DATASETS  * FILE   NREC   LENGTH (MB)   RECORD NAMES
              1      19     2183.03       500      610      700      900      950      970     1000      129      960     1100   
                                          VAR    BASINP    GEOM    SYMINP    ZMAT    AOBASIS   BASIS     P2S    ABASIS      S 
                                         1400     1410     1200     1210     1080     1600     1650     1300     1700   
                                           T        V       H0       H01     AOSYM     SMH    MOLCAS    ERIS     OPER   

              2       4        1.77       700     1000      520     2100   
                                         GEOM     BASIS   MCVARS     RHF  

 PROGRAMS   *        TOTAL    HF-SCF       INT
 CPU TIMES  *        65.71     34.82     30.79
 REAL TIME  *        87.34 SEC
 DISK USED  *         9.47 GB
 **********************************************************************************************************************************


 PROGRAM * CCSD (Closed-shell coupled cluster)     Authors: C. Hampel, H.-J. Werner, 1991, M. Deegan, P.J. Knowles, 1992


 Convergence thresholds:  THRVAR = 1.00D-08  THRDEN = 1.00D-06

 CCSD(T)     terms to be evaluated (factor= 1.000)


 Number of core orbitals:          18 (  18 )
 Number of closed-shell orbitals:  18 (  18 )
 Number of external orbitals:     240 ( 240 )

 Molecular orbitals read from record     2100.2  Type=RHF/CANONICAL  

 Number of N-1 electron functions:              18
 Number of N-2 electron functions:             171
 Number of singly external CSFs:              4320
 Number of doubly external CSFs:           9333360
 Total number of CSFs:                     9337681

 Length of J-op  integral file:               0.00 MB
 Length of K-op  integral file:               5.29 MB
 Length of 3-ext integral record:             0.00 MB

 Memory could be reduced to 306.25 Mwords without degradation in triples

 Integral transformation finished. Total CPU:  20.13 sec, npass=  1  Memory used: 223.30 MW

 Reference energy:                  -1189.21894556

 MP2 singlet pair energy:              -0.68296675
 MP2 triplet pair energy:              -0.38892675
 MP2 correlation energy:               -1.07189350
 MP2 total energy:                  -1190.29083906

 SCS-MP2 correlation energy:           -1.06155897   (PS=  1.200000  PT=  0.333333)
 SCS-MP2 total energy:              -1190.28050453

 ITER.      SQ.NORM     CORR.ENERGY   TOTAL ENERGY   ENERGY CHANGE        DEN1      VAR(S)    VAR(P)  DIIS     TIME  TIME/IT
   1      1.38618071    -1.11735024 -1190.33629580    -0.04545675    -0.01394218  0.61D-02  0.73D-02  1  1   125.51    42.09
   2      1.41820973    -1.12179919 -1190.34074475    -0.00444895    -0.02816300  0.17D-03  0.10D-02  2  2   179.24    50.45
   3      1.43142282    -1.12189345 -1190.34083901    -0.00009426    -0.00616611  0.10D-03  0.51D-04  3  3   237.45    54.83
   4      1.43579899    -1.12187421 -1190.34081977     0.00001923    -0.00136313  0.10D-04  0.73D-05  4  4   299.44    58.00
   5      1.43715613    -1.12187114 -1190.34081669     0.00000308    -0.00025009  0.25D-05  0.73D-06  5  5   362.68    60.42

 GLOBAL ERROR fehler on processor   0                                         
