
 Working directory              : /var/folders/2v/xbgp75_9785319ghcgb4zr4r0000gp/T//molpro.ohJDsobyML/
 Global scratch directory       : /var/folders/2v/xbgp75_9785319ghcgb4zr4r0000gp/T//molpro.ohJDsobyML/
 Wavefunction directory         : /Users/sacpjk/wfu/
 Main file repository           : /var/folders/2v/xbgp75_9785319ghcgb4zr4r0000gp/T//molpro.ohJDsobyML/

 id        : peterk

 Nodes                        nprocs
 Cardiff-University-G34YLXT77Y    1
 GA implementation: MPI file
 GA implementation (serial work in mppx): MPI file

 Using customized tuning parameters: mindgm=1; mindgv=20; mindgc=4; mindgr=1; noblas=0; minvec=7
 default implementation of scratch files=df  


 Variables initialized (1032), CPU time= 0.01 sec
 
 symmetry,nosym
 
 
 geometry={
 4
  c         -0.605924767924    0.000084251844    0.000000000000
  h         -1.667930249380    0.006003662360    0.000000000000
  c          0.605914369856   -0.003142989793    0.000000000000
  h          1.667940647448   -0.002944924358    0.000000000000
 }
 basis=aug-cc-pVDZ
 
 
 
 hf; mp3; counterpoise
 
 
 
 {put,xml;noorbitals,nobasis}
 Commands initialized (841), CPU time= 0.00 sec, 704 directives.
 Default parameters read. Elapsed time= 0.08 sec

 Checking input...
 Passed
1


                                         ***  PROGRAM SYSTEM MOLPRO  ***
                                       Copyright, TTI GmbH Stuttgart, 2015
                                    Version 2023.1 linked Tue Jun  6 09:54:11 2023


 **********************************************************************************************************************************
 LABEL *                                                                                                                                                                 
  64 bit serial version                                                                  DATE: 07-Jun-23          TIME: 08:01:53  
 **********************************************************************************************************************************

 SHA1:             8ebb0dd001088a5c915591db1a321413035db0b1
 **********************************************************************************************************************************

 Memory per process:       805 MW
 Total memory per node:   1074 MW
 Total GA space:           268 MW

 GA preallocation disabled
 GA check enabled

 Variable memory set to 805.3 MW

 ZSYMEL=NOSYM


 Geometry recognized as XYZ

 SETTING BASIS          =    AUG-CC-PVDZ


 Recomputing integrals since basis changed


 Using spherical harmonics

 Library entry C      S aug-cc-pVDZ          selected for orbital group  1
 Library entry C      P aug-cc-pVDZ          selected for orbital group  1
 Library entry C      D aug-cc-pVDZ          selected for orbital group  1
 Library entry H      S aug-cc-pVDZ          selected for orbital group  2
 Library entry H      P aug-cc-pVDZ          selected for orbital group  2


 PROGRAM * SEWARD (Integral evaluation for generally contracted gaussian basis sets)     Author: Roland Lindh, 1990

 Geometry written to block  1 of record 700


 Point group  C1  



 ATOMIC COORDINATES

 NR  ATOM    CHARGE       X              Y              Z

   1  C       6.00   -1.145031864    0.000159213    0.000000000
   2  H       1.00   -3.151931366    0.011345278    0.000000000
   3  C       6.00    1.145012214   -0.005939390    0.000000000
   4  H       1.00    3.151951016   -0.005565100    0.000000000

 Bond lengths in Bohr (Angstrom)

 1-2  2.006930677  1-3  2.290052198  3-4  2.006938837
     ( 1.062021978)     ( 1.211843435)     ( 1.062026296)

 Bond angles

  1-3-4  179.83673078   2-1-3  179.83323155

 NUCLEAR CHARGE:                   14
 NUMBER OF PRIMITIVE AOS:          96
 NUMBER OF SYMMETRY AOS:           92
 NUMBER OF CONTRACTIONS:           64   (   64A   )
 NUMBER OF INNER CORE ORBITALS:     0   (    0A   )
 NUMBER OF OUTER CORE ORBITALS:     2   (    2A   )
 NUMBER OF VALENCE ORBITALS:       10   (   10A   )


 NUCLEAR REPULSION ENERGY   24.65072253

 EXTRA SYMMETRY OF AOS IN SYMMETRY 1:   1 1 1 1 1 1 2 1 1 2   1 1 2 1 1 2 1 2 1 1   2 1 2 1 1 1 1 1 2 1   1 2 1 1 1 1 1 1 2 1
                                        1 2 1 1 2 1 1 2 1 2   1 1 2 1 2 1 1 1 1 1   2 1 1 2

 Eigenvalues of metric

         1 0.357E-04 0.690E-04 0.637E-03 0.967E-03 0.118E-02 0.118E-02 0.430E-02 0.949E-02


 Contracted 2-electron integrals neglected if value below      1.0D-12
 AO integral compression algorithm  1   Integral accuracy      1.0D-12

     8.651 MB (compressed) written to integral file ( 38.1%)


 NUMBER OF SORTED TWO-ELECTRON INTEGRALS:    2164240.     BUFFER LENGTH:  32768
 NUMBER OF SEGMENTS:   1  SEGMENT LENGTH:    2164240      RECORD LENGTH: 524288

 Memory used in sort:       2.72 MW

 SORT1 READ     2914491. AND WROTE     1096645. INTEGRALS IN      4 RECORDS. CPU TIME:     0.02 SEC, REAL TIME:     0.03 SEC
 SORT2 READ     1096645. AND WROTE     2164240. INTEGRALS IN     33 RECORDS. CPU TIME:     0.05 SEC, REAL TIME:     0.07 SEC

 FILE SIZES:   FILE 1:    38.8 MBYTE,  FILE 4:    16.8 MBYTE,   TOTAL:     55.7 MBYTE

 OPERATOR DM      FOR CENTER  0  COORDINATES:    0.000000    0.000000    0.000000


 **********************************************************************************************************************************
 DATASETS  * FILE   NREC   LENGTH (MB)   RECORD NAMES
              1      19       35.00       500      610      700      900      950      970     1000      129      960     1100   
                                          VAR    BASINP    GEOM    SYMINP    ZMAT    AOBASIS   BASIS     P2S    ABASIS      S 
                                         1400     1410     1200     1210     1080     1600     1650     1300     1700   
                                           T        V       H0       H01     AOSYM     SMH    MOLCAS    ERIS     OPER   

 PROGRAMS   *        TOTAL       INT
 CPU TIMES  *         0.37      0.26
 REAL TIME  *         0.69 SEC
 DISK USED  *        53.48 MB
 **********************************************************************************************************************************


 Program * Restricted Hartree-Fock

 Orbital guess generated from atomic densities. Full valence occupancy:   12

 Initial occupancy:   7

 NELEC=   14   SYM=1   MS2= 0   THRE=1.0D-08   THRD=3.2D-06   THRG=3.2D-06  HFMA2=F  DIIS_START=2   DIIS_MAX=10   DIIS_INCORE=F

 Level shifts:    0.00 (CLOSED)    0.00 (OPEN)    0.30 (GAP_MIN)

 ITER           ETOT              DE          GRAD        DDIFF     DIIS  NEXP   TIME(IT)  TIME(TOT)  DIAG
   1      -76.81431350     -76.81431350     0.00D+00     0.11D+00     0     0       0.01      0.02    start
   2      -76.82673069      -0.01241720     0.49D-02     0.15D-01     1     0       0.01      0.03    diag
   3      -76.82774610      -0.00101540     0.14D-02     0.24D-02     2     0       0.01      0.04    diag
   4      -76.82786475      -0.00011865     0.35D-03     0.12D-02     3     0       0.01      0.05    diag
   5      -76.82786967      -0.00000492     0.72D-04     0.21D-03     4     0       0.01      0.06    diag
   6      -76.82786982      -0.00000015     0.11D-04     0.37D-04     5     0       0.02      0.08    diag
   7      -76.82786983      -0.00000000     0.15D-05     0.50D-05     6     0       0.01      0.09    diag
   8      -76.82786983      -0.00000000     0.19D-06     0.58D-06     7     0       0.01      0.10    fixocc
   9      -76.82786983      -0.00000000     0.35D-07     0.95D-07     0     0       0.01      0.11    diag

 Final occupancy:   7

 !RHF STATE 1.1 Energy                -76.827869827271
  RHF One-electron energy            -151.338024245870
  RHF Two-electron energy              49.859431884623
  RHF Kinetic energy                   76.649123401166
  RHF Nuclear energy                   24.650722533977
  RHF Virial quotient                  -1.002332008745

 !RHF STATE 1.1 Dipole moment           0.00001126     0.00273428    -0.00000000
 Dipole moment /Debye                   0.00002862     0.00694984    -0.00000000

 Orbital energies:

           1.1          2.1          3.1          4.1          5.1          6.1          7.1          8.1          9.1
    -11.256154   -11.252634    -1.031554    -0.769933    -0.680985    -0.409160    -0.409159     0.037449     0.039810


 HOMO      7.1    -0.409159 =     -11.1338eV
 LUMO      8.1     0.037449 =       1.0190eV
 LUMO-HOMO         0.446609 =      12.1528eV

 Orbitals saved in record  2100.2


 **********************************************************************************************************************************
 DATASETS  * FILE   NREC   LENGTH (MB)   RECORD NAMES
              1      19       35.00       500      610      700      900      950      970     1000      129      960     1100   
                                          VAR    BASINP    GEOM    SYMINP    ZMAT    AOBASIS   BASIS     P2S    ABASIS      S 
                                         1400     1410     1200     1210     1080     1600     1650     1300     1700   
                                           T        V       H0       H01     AOSYM     SMH    MOLCAS    ERIS     OPER   

              2       4        0.49       700     1000      520     2100   
                                         GEOM     BASIS   MCVARS     RHF  

 PROGRAMS   *        TOTAL    HF-SCF       INT
 CPU TIMES  *         0.48      0.11      0.26
 REAL TIME  *         0.82 SEC
 DISK USED  *        53.48 MB
 **********************************************************************************************************************************


 PROGRAM * MP3 (Closed-shell)     Authors: C. Hampel, H.-J. Werner, 1991, M. Deegan, P.J. Knowles, 1992


 Convergence thresholds:  THRVAR = 1.00D-08  THRDEN = 1.00D-06

 Number of core orbitals:           2 (   2 )
 Number of closed-shell orbitals:   5 (   5 )
 Number of external orbitals:      57 (  57 )

 Molecular orbitals read from record     2100.2  Type=RHF/CANONICAL  

 Number of N-1 electron functions:               5
 Number of N-2 electron functions:              15
 Number of singly external CSFs:               285
 Number of doubly external CSFs:             40755
 Total number of CSFs:                       41041

 Length of J-op  integral file:               0.00 MB
 Length of K-op  integral file:               0.34 MB

 Integral transformation finished. Total CPU:   0.02 sec, npass=  1  Memory used:   0.23 MW

 Reference energy:                    -76.82786983

                        CORR.ENERGY   TOTAL ENERGY   ENERGY CHANGE
 MP2:                   -0.26417492   -77.09204474    -0.26417492

 SCS-MP2 correlation energy:           -0.26178997   (PS=  1.200000  PT=  0.333333)
 SCS-MP2 total energy:                -77.08965980

 MP3(D):                -0.27611901   -77.10398883    -0.01194409



 RESULTS
 =======

  Reference energy                    -76.827869827271
  MP3 singlet pair energy              -0.188598020633
  MP3 triplet pair energy              -0.087520986198
  MP3 correlation energy               -0.276119006831

 !MP3 total energy                    -77.103988834101

 Timing summary (sec):

 STEP                 CPU(USER)    SYS     CPU(TOT)    WALL
 Transformation          0.03      0.00      0.03      0.03
 CCSD iterations         0.65      0.00      0.65      0.03

 Program statistics:

 Available memory in ccsd:               805306261
 Min. memory needed in ccsd:                169489
 Max. memory used in ccsd:                  198029
 Max. memory used in cckext:                177233 ( 1 integral passes)



 **********************************************************************************************************************************
 DATASETS  * FILE   NREC   LENGTH (MB)   RECORD NAMES
              1      20       35.77       500      610      700      900      950      970     1000      129      960     1100   
                                          VAR    BASINP    GEOM    SYMINP    ZMAT    AOBASIS   BASIS     P2S    ABASIS      S 
                                         1400     1410     1200     1210     1080     1600     1650     1300     1700     1380   
                                           T        V       H0       H01     AOSYM     SMH    MOLCAS    ERIS     OPER     JKOP   

              2       4        0.49       700     1000      520     2100   
                                         GEOM     BASIS   MCVARS     RHF  

 PROGRAMS   *        TOTAL       MP3    HF-SCF       INT
 CPU TIMES  *         0.57      0.09      0.11      0.26
 REAL TIME  *         0.94 SEC
 DISK USED  *        53.48 MB
 **********************************************************************************************************************************

 Counterpoise: absolute minimum monomer separation=    -1.000 Bragg radius scale factor=     1.400 Number of monomers= 1
 Counterpoise skipped because only a single monomer


 **********************************************************************************************************************************
 DATASETS  * FILE   NREC   LENGTH (MB)   RECORD NAMES
              1      20       35.77       500      610      700      900      950      970     1000      129      960     1100   
                                          VAR    BASINP    GEOM    SYMINP    ZMAT    AOBASIS   BASIS     P2S    ABASIS      S 
                                         1400     1410     1200     1210     1080     1600     1650     1300     1700     1380   
                                           T        V       H0       H01     AOSYM     SMH    MOLCAS    ERIS     OPER     JKOP   

              2       4        0.49       700     1000      520     2100   
                                         GEOM     BASIS   MCVARS     RHF  

 PROGRAMS   *        TOTALCOUNTERPOI       MP3    HF-SCF       INT
 CPU TIMES  *         0.57      0.00      0.09      0.11      0.26
 REAL TIME  *         0.94 SEC
 DISK USED  *        53.48 MB
 **********************************************************************************************************************************

 Dump information in style XML to xml output                                                                      

 Orbitals will not be exported.

 **********************************************************************************************************************************

 MP3/aug-cc-pVDZ energy=    -77.103988834101

             MP3          HF-SCF
    -77.10398883    -76.82786983
 **********************************************************************************************************************************
 Molpro calculation terminated
