
 Working directory              : /var/folders/2v/xbgp75_9785319ghcgb4zr4r0000gp/T//molpro.upTvHiLWS6/
 Global scratch directory       : /var/folders/2v/xbgp75_9785319ghcgb4zr4r0000gp/T//molpro.upTvHiLWS6/
 Wavefunction directory         : /Users/sacpjk/wfu/
 Main file repository           : /var/folders/2v/xbgp75_9785319ghcgb4zr4r0000gp/T//molpro.upTvHiLWS6/

 id        : peterk

 Nodes                        nprocs
 Cardiff-University-G34YLXT77Y    1
 GA implementation: MPI file
 GA implementation (serial work in mppx): MPI file

 Using customized tuning parameters: mindgm=1; mindgv=20; mindgc=4; mindgr=1; noblas=0; minvec=7
 default implementation of scratch files=df  


 Variables initialized (1032), CPU time= 0.00 sec
 
 symmetry,nosym
 
 
 geometry={
           11
     C         -1.14801349     -0.57975568      0.03120696
     C         -1.08021984      0.78192529      0.02639005
     N          1.30543743      1.13121591      0.11743732
     N          1.57534155     -0.09591016      0.00445069
     C          1.06337833     -1.19481227      0.00478589
     H         -1.31347505     -1.11800370      0.95840071
     H         -1.34813898     -1.12998002     -0.87963506
     H         -1.11376040      1.35419025      0.94257550
     H         -1.16281172      1.34381802     -0.89587363
     H          1.77093124      1.66037919     -0.62483756
     H          1.45133094     -2.15306682      0.31509914
 }
 basis=cc-pVDZ
 
 
 
 hf; hf; papt; mp4
 
 
 
 {put,xml;noorbitals,nobasis}
 Commands initialized (841), CPU time= 0.01 sec, 704 directives.
 Default parameters read. Elapsed time= 0.54 sec

 Checking input...
 Passed
1


                                         ***  PROGRAM SYSTEM MOLPRO  ***
                                       Copyright, TTI GmbH Stuttgart, 2015
                                    Version 2023.1 linked Tue Jun  6 09:54:11 2023


 **********************************************************************************************************************************
 LABEL *                                                                                                                                                                 
  64 bit serial version                                                                  DATE: 11-Jun-23          TIME: 13:54:57  
 **********************************************************************************************************************************

 SHA1:             8ebb0dd001088a5c915591db1a321413035db0b1
 **********************************************************************************************************************************

 Memory per process:       393 MW
 Total memory per node:    524 MW
 Total GA space:           131 MW

 GA preallocation disabled
 GA check enabled

 Variable memory set to 393.2 MW

 ZSYMEL=NOSYM


 Geometry recognized as XYZ

 SETTING BASIS          =    CC-PVDZ


 Recomputing integrals since basis changed


 Using spherical harmonics

 Library entry C      S cc-pVDZ              selected for orbital group  1
 Library entry C      P cc-pVDZ              selected for orbital group  1
 Library entry C      D cc-pVDZ              selected for orbital group  1
 Library entry N      S cc-pVDZ              selected for orbital group  2
 Library entry N      P cc-pVDZ              selected for orbital group  2
 Library entry N      D cc-pVDZ              selected for orbital group  2
 Library entry H      S cc-pVDZ              selected for orbital group  4
 Library entry H      P cc-pVDZ              selected for orbital group  4


 PROGRAM * SEWARD (Integral evaluation for generally contracted gaussian basis sets)     Author: Roland Lindh, 1990

 Geometry written to block  1 of record 700


 Point group  C1  



 ATOMIC COORDINATES

 NR  ATOM    CHARGE       X              Y              Z

   1  C       6.00   -2.169431083   -1.095579454    0.058972608
   2  C       6.00   -2.041319652    1.477624648    0.049869967
   3  N       7.00    2.466919216    2.137688258    0.221924372
   4  N       7.00    2.976964082   -0.181243935    0.008410585
   5  C       6.00    2.009493811   -2.257867961    0.009044021
   6  H       1.00   -2.482108116   -2.112720799    1.811114860
   7  H       1.00   -2.547613450   -2.135352764   -1.662269353
   8  H       1.00   -2.104702124    2.559048693    1.781209547
   9  H       1.00   -2.197395685    2.539448019   -1.692955803
  10  H       1.00    3.346575029    3.137661932   -1.180771861
  11  H       1.00    2.742617993   -4.068706618    0.595451077

 Bond lengths in Bohr (Angstrom)

 1-2  2.576407334  1-6  2.049962418  1-7  2.046173093  2-8  2.042310467  2-9  2.046770692
     ( 1.363376047)     ( 1.084793395)     ( 1.082788170)     ( 1.080744157)     ( 1.083104406)

  3- 4  2.383942201   3-10  1.934243630   4- 5  2.290931355   5-11  2.039725703
       ( 1.261527885)       ( 1.023557649)       ( 1.212308665)       ( 1.079376359)

 Bond angles

  1-2-8  121.62203767   1-2-9  121.15476259   2-1-6  120.40858136   2-1-7  120.91338229

  3- 4- 5  142.31262266   4- 3-10  109.91558835   4- 5-11  130.77046409   6- 1- 7  116.01874710

  8-2-9  116.40935928

 NUCLEAR CHARGE:                   38
 NUMBER OF PRIMITIVE AOS:         177
 NUMBER OF SYMMETRY AOS:          172
 NUMBER OF CONTRACTIONS:          100   (  100A   )
 NUMBER OF INNER CORE ORBITALS:     0   (    0A   )
 NUMBER OF OUTER CORE ORBITALS:     5   (    5A   )
 NUMBER OF VALENCE ORBITALS:       26   (   26A   )


 NUCLEAR REPULSION ENERGY  160.16494666


 Eigenvalues of metric

         1 0.295E-02 0.411E-02 0.721E-02 0.135E-01 0.155E-01 0.182E-01 0.256E-01 0.271E-01


 Contracted 2-electron integrals neglected if value below      1.0D-11
 AO integral compression algorithm  1   Integral accuracy      1.0D-11

     57.410 MB (compressed) written to integral file ( 50.7%)


 NUMBER OF SORTED TWO-ELECTRON INTEGRALS:   12753775.     BUFFER LENGTH:  32768
 NUMBER OF SEGMENTS:   1  SEGMENT LENGTH:   12753775      RECORD LENGTH: 524288

 Memory used in sort:      13.31 MW

 SORT1 READ    14084626. AND WROTE    12511406. INTEGRALS IN     36 RECORDS. CPU TIME:     0.09 SEC, REAL TIME:     0.13 SEC
 SORT2 READ    12511406. AND WROTE    12753775. INTEGRALS IN    219 RECORDS. CPU TIME:     0.14 SEC, REAL TIME:     0.18 SEC

 FILE SIZES:   FILE 1:    88.0 MBYTE,  FILE 4:   151.1 MBYTE,   TOTAL:    239.0 MBYTE

 OPERATOR DM      FOR CENTER  0  COORDINATES:    0.000000    0.000000    0.000000


 **********************************************************************************************************************************
 DATASETS  * FILE   NREC   LENGTH (MB)   RECORD NAMES
              1      19       77.89       500      610      700      900      950      970     1000      129      960     1100   
                                          VAR    BASINP    GEOM    SYMINP    ZMAT    AOBASIS   BASIS     P2S    ABASIS      S 
                                         1400     1410     1200     1210     1080     1600     1650     1300     1700   
                                           T        V       H0       H01     AOSYM     SMH    MOLCAS    ERIS     OPER   

 PROGRAMS   *        TOTAL       INT
 CPU TIMES  *         1.00      0.90
 REAL TIME  *         3.12 SEC
 DISK USED  *       228.45 MB
 **********************************************************************************************************************************


 Program * Restricted Hartree-Fock

 Orbital guess generated from atomic densities. Full valence occupancy:   31

 Initial occupancy:  19

 NELEC=   38   SYM=1   MS2= 0   THRE=1.0D-08   THRD=3.2D-06   THRG=3.2D-06  HFMA2=F  DIIS_START=2   DIIS_MAX=10   DIIS_INCORE=F

 Level shifts:    0.00 (CLOSED)    0.00 (OPEN)    0.30 (GAP_MIN)

 ITER           ETOT              DE          GRAD        DDIFF     DIIS  NEXP   TIME(IT)  TIME(TOT)  DIAG
   1     -225.73052166    -225.73052166     0.00D+00     0.11D+00     0     0       0.06      0.11    start
   2     -225.78312523      -0.05260357     0.59D-02     0.13D-01     1     0       0.06      0.17    diag
   3     -225.80419390      -0.02106867     0.38D-02     0.57D-02     2     0       0.06      0.23    diag
   4     -225.80671639      -0.00252249     0.10D-02     0.20D-02     3     0       0.06      0.29    diag
   5     -225.80739619      -0.00067979     0.49D-03     0.88D-03     4     0       0.06      0.35    diag
   6     -225.80766627      -0.00027008     0.21D-03     0.45D-03     5     0       0.06      0.41    diag
   7     -225.80784482      -0.00017856     0.12D-03     0.47D-03     6     0       0.06      0.47    diag
   8     -225.80790960      -0.00006478     0.72D-04     0.36D-03     7     0       0.06      0.53    fixocc
   9     -225.80791855      -0.00000895     0.26D-04     0.15D-03     8     0       0.06      0.59    diag
  10     -225.80791927      -0.00000071     0.10D-04     0.39D-04     9     0       0.06      0.65    diag/orth
  11     -225.80791941      -0.00000014     0.40D-05     0.16D-04     9     0       0.06      0.71    diag
  12     -225.80791945      -0.00000004     0.22D-05     0.92D-05     9     0       0.05      0.76    diag
  13     -225.80791946      -0.00000001     0.94D-06     0.48D-05     9     0       0.06      0.82    diag
  14     -225.80791946      -0.00000000     0.57D-06     0.28D-05     9     0       0.06      0.88    diag
  15     -225.80791947      -0.00000000     0.35D-06     0.85D-06     0     0       0.05      0.93    diag

 Final occupancy:  19

 !RHF STATE 1.1 Energy               -225.807919465499
  RHF One-electron energy            -622.473176344525
  RHF Two-electron energy             236.500310216123
  RHF Kinetic energy                  225.443119598259
  RHF Nuclear energy                  160.164946662903
  RHF Virial quotient                  -1.001618145934

 !RHF STATE 1.1 Dipole moment           0.36281567    -0.49789128    -0.25777702
 Dipole moment /Debye                   0.92218545    -1.26551341    -0.65520384

 Orbital energies:

           1.1          2.1          3.1          4.1          5.1          6.1          7.1          8.1          9.1         10.1
    -15.673272   -15.592990   -11.298278   -11.228335   -11.223636    -1.365145    -1.107042    -1.014095    -0.787337    -0.780145

          11.1         12.1         13.1         14.1         15.1         16.1         17.1         18.1         19.1         20.1
     -0.700585    -0.636213    -0.622358    -0.583549    -0.565389    -0.493778    -0.396375    -0.355100    -0.312640     0.112567

          21.1
      0.158335


 HOMO     19.1    -0.312640 =      -8.5074eV
 LUMO     20.1     0.112567 =       3.0631eV
 LUMO-HOMO         0.425207 =      11.5705eV

 Orbitals saved in record  2100.2


 **********************************************************************************************************************************
 DATASETS  * FILE   NREC   LENGTH (MB)   RECORD NAMES
              1      19       77.89       500      610      700      900      950      970     1000      129      960     1100   
                                          VAR    BASINP    GEOM    SYMINP    ZMAT    AOBASIS   BASIS     P2S    ABASIS      S 
                                         1400     1410     1200     1210     1080     1600     1650     1300     1700   
                                           T        V       H0       H01     AOSYM     SMH    MOLCAS    ERIS     OPER   

              2       4        0.71       700     1000      520     2100   
                                         GEOM     BASIS   MCVARS     RHF  

 PROGRAMS   *        TOTAL    HF-SCF       INT
 CPU TIMES  *         1.94      0.93      0.90
 REAL TIME  *         4.86 SEC
 DISK USED  *       228.45 MB
 **********************************************************************************************************************************


 Program * Restricted Hartree-Fock

 Molecular orbitals read from record     2100.2  Type=RHF/CANONICAL  

 Initial occupancy:  19

 NELEC=   38   SYM=1   MS2= 0   THRE=1.0D-08   THRD=3.2D-06   THRG=3.2D-06  HFMA2=F  DIIS_START=2   DIIS_MAX=10   DIIS_INCORE=F

 Level shifts:    0.00 (CLOSED)    0.00 (OPEN)    0.30 (GAP_MIN)

 ITER           ETOT              DE          GRAD        DDIFF     DIIS  NEXP   TIME(IT)  TIME(TOT)  DIAG
   1     -225.80791947    -225.80791947     0.00D+00     0.11D+00     0     0       0.05      0.05    start
   2     -225.80791947      -0.00000000     0.27D-06     0.65D-06     1     0       0.06      0.11    diag

 Final occupancy:  19

 !RHF STATE 1.1 Energy               -225.807919465896
  RHF One-electron energy            -622.473217576632
  RHF Two-electron energy             236.500351447833
  RHF Kinetic energy                  225.443145793020
  RHF Nuclear energy                  160.164946662903
  RHF Virial quotient                  -1.001618029555

 !RHF STATE 1.1 Dipole moment           0.36279287    -0.49792969    -0.25778522
 Dipole moment /Debye                   0.92212749    -1.26561103    -0.65522467

 Orbital energies:

           1.1          2.1          3.1          4.1          5.1          6.1          7.1          8.1          9.1         10.1
    -15.673287   -15.592995   -11.298273   -11.228330   -11.223632    -1.365151    -1.107045    -1.014092    -0.787336    -0.780145

          11.1         12.1         13.1         14.1         15.1         16.1         17.1         18.1         19.1         20.1
     -0.700586    -0.636216    -0.622357    -0.583553    -0.565386    -0.493776    -0.396377    -0.355100    -0.312640     0.112566

          21.1
      0.158333


 HOMO     19.1    -0.312640 =      -8.5074eV
 LUMO     20.1     0.112566 =       3.0631eV
 LUMO-HOMO         0.425206 =      11.5704eV

 Orbitals saved in record  2101.2


 **********************************************************************************************************************************
 DATASETS  * FILE   NREC   LENGTH (MB)   RECORD NAMES
              1      19       77.89       500      610      700      900      950      970     1000      129      960     1100   
                                          VAR    BASINP    GEOM    SYMINP    ZMAT    AOBASIS   BASIS     P2S    ABASIS      S 
                                         1400     1410     1200     1210     1080     1600     1650     1300     1700   
                                           T        V       H0       H01     AOSYM     SMH    MOLCAS    ERIS     OPER   

              2       5        1.08       700     1000      520     2100     2101   
                                         GEOM     BASIS   MCVARS     RHF      RHF  

 PROGRAMS   *        TOTAL    HF-SCF    HF-SCF       INT
 CPU TIMES  *         2.06      0.13      0.93      0.90
 REAL TIME  *         5.25 SEC
 DISK USED  *       228.45 MB
 **********************************************************************************************************************************


 PROGRAM * PAPT (Closed-shell)     Authors: C. Hampel, H.-J. Werner, 1991, P.J. Knowles, 2021


 Convergence thresholds:  THRVAR = 1.00D-08  THRDEN = 1.00D-06

 Number of core orbitals:           5 (   5 )
 Number of closed-shell orbitals:  14 (  14 )
 Number of external orbitals:      81 (  81 )

 Molecular orbitals read from record     2101.2  Type=RHF/CANONICAL  

 Number of N-1 electron functions:              14
 Number of N-2 electron functions:             105
 Number of singly external CSFs:              1134
 Number of doubly external CSFs:            643545
 Total number of CSFs:                      644680

 Length of J-op  integral file:               0.00 MB
 Length of K-op  integral file:               0.75 MB

 Integral transformation finished. Total CPU:   0.18 sec, npass=  1  Memory used:   1.96 MW

 Reference energy:                   -225.80791947

                        CORR.ENERGY   TOTAL ENERGY   ENERGY CHANGE
 MP2:                   -0.78609577  -226.59401523    -0.78609577

 SCS-MP2 correlation energy:           -0.76652604   (PS=  1.200000  PT=  0.333333)
 SCS-MP2 total energy:               -226.57444551
 Iteration:   1     0.4342D+00
 Iteration:   2     0.7849D+00
 Iteration:   3     0.1485D+00
 Iteration:   4     0.1268D+00
 Iteration:   5     0.6297D-01
 Iteration:   6     0.4385D-01
 Iteration:   7     0.9707D-01
 Iteration:   8     0.1444D-01
 Iteration:   9     0.2428D-01
 Iteration:  10     0.9563D-02
 Iteration:  11     0.6528D-02
 Iteration:  12     0.9996D-02
 Iteration:  13     0.2759D-02
 Iteration:  14     0.2047D-01
 Iteration:  15     0.1573D-02
 Iteration:  16     0.3131D-02
 Iteration:  17     0.7686D-03
 Iteration:  18     0.1389D-02
 Iteration:  19     0.2669D-03
 Iteration:  20     0.4732D-03
 Iteration:  21     0.1221D-03
 Iteration:  22     0.1041D-03
 Iteration:  23     0.9007D-04
 PAPT operator written to  7000.1
 PAPT orbitals and eigenvalues written to  7000.2

 MP3(D):                -0.79689619  -226.60481566    -0.01080042



 RESULTS
 =======

  Reference energy                   -225.807919465895
  MP3 singlet pair energy              -0.526885356978
  MP3 triplet pair energy              -0.270010834411
  MP3 correlation energy               -0.796896191389

 !MP3 total energy                   -226.604815657285

 Timing summary (sec):

 STEP                 CPU(USER)    SYS     CPU(TOT)    WALL
 Transformation          0.19      0.03      0.22      0.33
 CCSD iterations         5.34      0.12      5.46      4.72

 Program statistics:

 Available memory in ccsd:               393215197
 Min. memory needed in ccsd:               1768432
 Max. memory used in ccsd:                 2318471
 Max. memory used in cckext:               2233634 ( 1 integral passes)



 **********************************************************************************************************************************
 DATASETS  * FILE   NREC   LENGTH (MB)   RECORD NAMES
              1      21       90.14       500      610      700      900      950      970     1000      129      960     1100   
                                          VAR    BASINP    GEOM    SYMINP    ZMAT    AOBASIS   BASIS     P2S    ABASIS      S 
                                         1400     1410     1200     1210     1080     1600     1650     1300     1700     1380   
                                           T        V       H0       H01     AOSYM     SMH    MOLCAS    ERIS     OPER     JKOP   
                                         7000   
                                        PAPT AO    

              2       6        1.40       700     1000      520     2100     2101     7000   
                                         GEOM     BASIS   MCVARS     RHF      RHF     PAPT   

 PROGRAMS   *        TOTAL      PAPT    HF-SCF    HF-SCF       INT
 CPU TIMES  *         5.44      3.38      0.13      0.93      0.90
 REAL TIME  *        10.52 SEC
 DISK USED  *       228.45 MB
 **********************************************************************************************************************************


 PROGRAM * MP4 (Closed-shell)     Authors: C. Hampel, H.-J. Werner, 1991, M. Deegan, P.J. Knowles, 1992


 Convergence thresholds:  THRVAR = 1.00D-08  THRDEN = 1.00D-06

 MP4(T)     terms to be evaluated (factor= 0.000)


 Number of core orbitals:           5 (   5 )
 Number of closed-shell orbitals:  14 (  14 )
 Number of external orbitals:      81 (  81 )

 Molecular orbitals read from record     7000.2  Type=PAPT/CANONICAL (state 1.1)

 Number of N-1 electron functions:              14
 Number of N-2 electron functions:             105
 Number of singly external CSFs:              1134
 Number of doubly external CSFs:            643545
 Total number of CSFs:                      644680

 Length of J-op  integral file:               0.00 MB
 Length of K-op  integral file:               0.75 MB

 Memory could be reduced to 10.53 Mwords without degradation in triples

 Integral transformation finished. Total CPU:   0.43 sec, npass=  1  Memory used:   9.53 MW
 Orbital energies read from record       7000.2  Type=PAPT/CANONICAL (state 1.1)

 Reference energy:                   -225.80791947

                        CORR.ENERGY   TOTAL ENERGY   ENERGY CHANGE
 MP2:                   -0.80696404  -226.61488351    -0.80696404

 SCS-MP2 correlation energy:           -0.79275730   (PS=  1.200000  PT=  0.333333)
 SCS-MP2 total energy:               -226.60067677

 MP3(D):                -0.80725910  -226.61517857    -0.00029506
 MP4(DQ):               -0.79972394  -226.60764340     0.00753517
 MP4(SDQ):              -0.80909459  -226.61701405    -0.00937065

 Norm of t1 vector:      0.09392144      S-energy:    -0.00937065      T1 diagnostic:  0.01255078

 Largest off-diagonal element in interal  block of Fock matrix:  0.12D+00
 Largest off-diagonal element in external block of Fock matrix:  0.16D+00


 Total CPU time for triples:      9.05 sec


 RESULTS
 =======

  Reference energy                   -225.807919465896
  MP4(SDQ) singlet pair energy         -0.526772473619
  MP4(SDQ) triplet pair energy         -0.272951461462
  MP4(SDQ) correlation energy          -0.809094586008

  Triples contribution                 -0.042296579252
  Total correlation energy             -0.851391165260

  MP4(SDQ) total energy              -226.617014051904
 !MP4(SDTQ) total energy             -226.659310631156

 Timing summary (sec):

 STEP                 CPU(USER)    SYS     CPU(TOT)    WALL
 Transformation          0.53      0.07      0.60      0.82
 CCSD iterations         6.95      0.05      7.00      1.86
 Triples                 9.05      0.59      9.64     10.26

 Program statistics:

 Available memory in ccsd:               393215197
 Min. memory needed in ccsd:               1768432
 Max. memory used in ccsd:                 2318471
 Max. memory used in cckext:               2233634 ( 1 integral passes)



 **********************************************************************************************************************************
 DATASETS  * FILE   NREC   LENGTH (MB)   RECORD NAMES
              1      22      118.87       500      610      700      900      950      970     1000      129      960     1100   
                                          VAR    BASINP    GEOM    SYMINP    ZMAT    AOBASIS   BASIS     P2S    ABASIS      S 
                                         1400     1410     1200     1210     1080     1600     1650     1300     1700     1380   
                                           T        V       H0       H01     AOSYM     SMH    MOLCAS    ERIS     OPER     JKOP   
                                         7000     1380(1)
                                        PAPT AO   JKOP   

              2       6        1.40       700     1000      520     2100     2101     7000   
                                         GEOM     BASIS   MCVARS     RHF      RHF     PAPT   

 PROGRAMS   *        TOTAL       MP4      PAPT    HF-SCF    HF-SCF       INT
 CPU TIMES  *        16.44     11.00      3.38      0.13      0.93      0.90
 REAL TIME  *        23.92 SEC
 DISK USED  *       228.45 MB
 **********************************************************************************************************************************

 Dump information in style XML to xml output                                                                      

 Orbitals will not be exported.

 **********************************************************************************************************************************

 MP4/cc-pVDZ energy=   -226.659310631156

             MP4            PAPT          HF-SCF          HF-SCF
   -226.65931063   -226.60481566   -225.80791947   -225.80791947
 **********************************************************************************************************************************
 Molpro calculation terminated
