
 Working directory              : /var/folders/2v/xbgp75_9785319ghcgb4zr4r0000gp/T//molpro.68oBLbuXxi/
 Global scratch directory       : /var/folders/2v/xbgp75_9785319ghcgb4zr4r0000gp/T//molpro.68oBLbuXxi/
 Wavefunction directory         : /Users/sacpjk/wfu/
 Main file repository           : /var/folders/2v/xbgp75_9785319ghcgb4zr4r0000gp/T//molpro.68oBLbuXxi/

 id        : peterk

 Nodes                        nprocs
 Cardiff-University-G34YLXT77Y    1
 GA implementation: MPI file
 GA implementation (serial work in mppx): MPI file

 Using customized tuning parameters: mindgm=1; mindgv=20; mindgc=4; mindgr=1; noblas=0; minvec=7
 default implementation of scratch files=df  


 Variables initialized (1032), CPU time= 0.01 sec
 
 symmetry,nosym
 
 
 geometry={
            8
     C         -1.06377673     -0.00001371     -0.08261355
     N          1.51022607     -0.00001271     -0.23168680
     H         -1.38701407      0.90853142     -0.57964889
     H         -1.26670033     -0.00458071      0.98239979
     H         -1.38777609     -0.90389008     -0.58760454
     H          0.24008018     -0.00007171     -0.24659637
     H          1.67743021      0.80556940      0.37284687
     H          1.67753075     -0.80553190      0.37290349
 }
 basis=cc-pVDZ
 
 
 spin=1
 uhf
 
 
 
 {put,xml;noorbitals,nobasis}
 Commands initialized (841), CPU time= 0.00 sec, 704 directives.
 Default parameters read. Elapsed time= 0.11 sec

 Checking input...
 Passed
1


                                         ***  PROGRAM SYSTEM MOLPRO  ***
                                       Copyright, TTI GmbH Stuttgart, 2015
                                    Version 2023.1 linked Tue Jun  6 09:54:11 2023


 **********************************************************************************************************************************
 LABEL *                                                                                                                                                                 
  64 bit serial version                                                                  DATE: 09-Jun-23          TIME: 09:28:11  
 **********************************************************************************************************************************

 SHA1:             8ebb0dd001088a5c915591db1a321413035db0b1
 **********************************************************************************************************************************

 Memory per process:       805 MW
 Total memory per node:   1074 MW
 Total GA space:           268 MW

 GA preallocation disabled
 GA check enabled

 Variable memory set to 805.3 MW

 ZSYMEL=NOSYM


 Geometry recognized as XYZ

 SETTING BASIS          =    CC-PVDZ
 SETTING SPIN           =         1.00000000                                  


 Recomputing integrals since basis changed


 Using spherical harmonics

 Library entry C      S cc-pVDZ              selected for orbital group  1
 Library entry C      P cc-pVDZ              selected for orbital group  1
 Library entry C      D cc-pVDZ              selected for orbital group  1
 Library entry N      S cc-pVDZ              selected for orbital group  2
 Library entry N      P cc-pVDZ              selected for orbital group  2
 Library entry N      D cc-pVDZ              selected for orbital group  2
 Library entry H      S cc-pVDZ              selected for orbital group  3
 Library entry H      P cc-pVDZ              selected for orbital group  3


 PROGRAM * SEWARD (Integral evaluation for generally contracted gaussian basis sets)     Author: Roland Lindh, 1990

 Geometry written to block  1 of record 700


 Point group  C1  



 ATOMIC COORDINATES

 NR  ATOM    CHARGE       X              Y              Z

   1  C       6.00   -2.010246677   -0.000025908   -0.156116984
   2  N       7.00    2.853913659   -0.000024018   -0.437824599
   3  H       1.00   -2.621076723    1.716875559   -1.095377651
   4  H       1.00   -2.393716706   -0.008656287    1.856466548
   5  H       1.00   -2.622516732   -1.708104698   -1.110411650
   6  H       1.00    0.453685788   -0.000135512   -0.465999603
   7  H       1.00    3.169883690    1.522305540    0.704578471
   8  H       1.00    3.170073683   -1.522234676    0.704685467

 Bond lengths in Bohr (Angstrom)

 1-3  2.050140140  1-4  2.048808487  1-5  2.050142942  1-6  2.483342595  2-6  2.400393233
     ( 1.084887441)     ( 1.084182761)     ( 1.084888924)     ( 1.314128308)     ( 1.270233396)

 2-7  1.929354586  2-8  1.929355254
     ( 1.020970479)     ( 1.020970832)

 Bond angles

  1-6-2  172.15915430   3-1-4  113.44110421   3-1-5  113.29657245   3-1-6  103.79710275

  4-1-5  113.44324247   4-1-6  107.95575013   5-1-6  103.77986310   6-2-7   99.83115178

  6-2-8   99.83264998   7-2-8  104.18519358

 NUCLEAR CHARGE:                   19
 NUMBER OF PRIMITIVE AOS:          96
 NUMBER OF SYMMETRY AOS:           94
 NUMBER OF CONTRACTIONS:           58   (   58A   )
 NUMBER OF INNER CORE ORBITALS:     0   (    0A   )
 NUMBER OF OUTER CORE ORBITALS:     2   (    2A   )
 NUMBER OF VALENCE ORBITALS:       14   (   14A   )


 NUCLEAR REPULSION ENERGY   39.42841352

 Eigenvalues of metric

         1 0.689E-02 0.141E-01 0.239E-01 0.365E-01 0.365E-01 0.410E-01 0.442E-01 0.467E-01


 Contracted 2-electron integrals neglected if value below      1.0D-11
 AO integral compression algorithm  1   Integral accuracy      1.0D-11

     7.340 MB (compressed) written to integral file ( 54.1%)


 NUMBER OF SORTED TWO-ELECTRON INTEGRALS:    1464616.     BUFFER LENGTH:  32768
 NUMBER OF SEGMENTS:   1  SEGMENT LENGTH:    1464616      RECORD LENGTH: 524288

 Memory used in sort:       2.02 MW

 SORT1 READ     1695666. AND WROTE     1443113. INTEGRALS IN      5 RECORDS. CPU TIME:     0.01 SEC, REAL TIME:     0.01 SEC
 SORT2 READ     1443113. AND WROTE     1464616. INTEGRALS IN     28 RECORDS. CPU TIME:     0.03 SEC, REAL TIME:     0.03 SEC

 FILE SIZES:   FILE 1:    37.6 MBYTE,  FILE 4:    21.0 MBYTE,   TOTAL:     58.6 MBYTE

 OPERATOR DM      FOR CENTER  0  COORDINATES:    0.000000    0.000000    0.000000


 **********************************************************************************************************************************
 DATASETS  * FILE   NREC   LENGTH (MB)   RECORD NAMES
              1      19       34.67       500      610      700      900      950      970     1000      129      960     1100   
                                          VAR    BASINP    GEOM    SYMINP    ZMAT    AOBASIS   BASIS     P2S    ABASIS      S 
                                         1400     1410     1200     1210     1080     1600     1650     1300     1700   
                                           T        V       H0       H01     AOSYM     SMH    MOLCAS    ERIS     OPER   

 PROGRAMS   *        TOTAL       INT
 CPU TIMES  *         0.27      0.19
 REAL TIME  *         0.84 SEC
 DISK USED  *        56.33 MB
 **********************************************************************************************************************************


 Program * Unrestricted Hartree-Fock

 Orbital guess generated from atomic densities. Full valence occupancy:   16

 Initial alpha occupancy:  10
 Initial beta  occupancy:   9

 Elapsed time for starting guess:      0.01 sec

 NELEC=   19   SYM=1   MS2=1   THRE=1.0D-08   THRD=3.2D-06   THRG=3.2D-06  HFMA2=F  DIIS_START=2   DIIS_MAX=10   DIIS_INCORE=F

 Initial level shifts:    0.20 (ALPHA)    0.20 (BETA)

 ITER         ETOT            DE          GRAD         DDIFF    DIIS  NEXP   TIME(IT)  TIME(TOT)  DIAG
   1    -95.67253828   -95.67253828     0.00D+00     0.00D+00     0     0       0.00      0.01    start
   2    -95.70777436    -0.03523608     0.87D-02     0.13D+00     1     0       0.01      0.02    diag
   3    -95.71381436    -0.00603999     0.28D-02     0.12D-01     2     0       0.01      0.03    diag
   4    -95.71564024    -0.00182588     0.15D-02     0.43D-02     3     0       0.01      0.04    diag
   5    -95.71606809    -0.00042785     0.58D-03     0.19D-02     4     0       0.01      0.05    diag
   6    -95.71619143    -0.00012334     0.29D-03     0.77D-03     5     0       0.01      0.06    diag
   7    -95.71621748    -0.00002605     0.14D-03     0.42D-03     6     0       0.00      0.06    diag
   8    -95.71622846    -0.00001098     0.75D-04     0.15D-03     7     0       0.01      0.07    diag
   9    -95.71623041    -0.00000195     0.35D-04     0.11D-03     8     0       0.01      0.08    diag
  10    -95.71623076    -0.00000035     0.15D-04     0.45D-04     8     0       0.01      0.09    diag/ort
  11    -95.71623088    -0.00000011     0.80D-05     0.21D-04     8     0       0.01      0.10    diag
  12    -95.71623091    -0.00000003     0.42D-05     0.11D-04     8     0       0.01      0.11    diag
  13    -95.71623092    -0.00000001     0.23D-05     0.57D-05     8     0       0.00      0.11    diag
  14    -95.71623093    -0.00000001     0.15D-05     0.30D-05     9     0       0.01      0.12    diag
  15    -95.71623093    -0.00000000     0.10D-05     0.26D-05     9     0       0.01      0.13    diag

 Final alpha occupancy:  10
 Final beta  occupancy:   9

 !UHF STATE 1.1 Energy                -95.716230927460
  UHF One-electron energy            -206.731729460919
  UHF Two-electron energy              71.587085010740
  UHF Kinetic energy                   95.609225269954
  UHF Nuclear energy                   39.428413522719
  UHF Virial quotient                  -1.001119198040

 !UHF STATE 1.1 Dipole moment          -0.13692830     0.00002072     0.65247794
 Dipole moment /Debye                  -0.34803702     0.00005267     1.65843351

 EXPECTATION VALUE OF S**2:             0.79229329

 Orbital energies for positive spin:

           1.1          2.1          3.1          4.1          5.1          6.1          7.1          8.1          9.1         10.1
    -15.572409   -11.234068    -1.159378    -0.953367    -0.630830    -0.627411    -0.564340    -0.561754    -0.471352    -0.377359

          11.1         12.1
      0.175467     0.228802

 Orbital energies for negative spin:

           1.1          2.1          3.1          4.1          5.1          6.1          7.1          8.1          9.1         10.1
    -15.548028   -11.216717    -1.078334    -0.898959    -0.614226    -0.557117    -0.551167    -0.531430    -0.409326     0.104275

          11.1
      0.183741


 HOMO     10.1    -0.377359 =     -10.2685eV
 LUMO    -10.1     0.104275 =       2.8375eV
 LUMO-HOMO         0.481634 =      13.1059eV

 Orbitals saved in record  2200.2

 Occupation number threshold for pseudo-canonical orbitals: 1.9990 (occupied), 0.0010 (virtual)

 Number of pseudo-canonical occupied orbitals per symmetry:    7
 Number of active natural orbitals per symmetry:               5

 Natural orbitals saved to record    2200.2 (Orbital set 3)

 Orbital spaces for UNO-CAS (Min. occupation: 0.020  Max. occupation: 1.980):

 Closed:        9
 Active:        1


 **********************************************************************************************************************************
 DATASETS  * FILE   NREC   LENGTH (MB)   RECORD NAMES
              1      19       34.67       500      610      700      900      950      970     1000      129      960     1100   
                                          VAR    BASINP    GEOM    SYMINP    ZMAT    AOBASIS   BASIS     P2S    ABASIS      S 
                                         1400     1410     1200     1210     1080     1600     1650     1300     1700   
                                           T        V       H0       H01     AOSYM     SMH    MOLCAS    ERIS     OPER   

              2       4        0.63       700     1000      520     2200   
                                         GEOM     BASIS   MCVARS     UHF  

              4       3        0.64      2900     3000     3100   

 PROGRAMS   *        TOTAL   UHF-SCF       INT
 CPU TIMES  *         0.40      0.13      0.19
 REAL TIME  *         1.19 SEC
 DISK USED  *        56.33 MB
 **********************************************************************************************************************************

 Dump information in style XML to xml output                                                                      

 Orbitals will not be exported.

 **********************************************************************************************************************************

 UHF/cc-pVDZ energy=    -95.716230927460

         UHF-SCF
    -95.71623093
 **********************************************************************************************************************************
 Molpro calculation terminated
