
 Working directory              : /var/folders/2v/xbgp75_9785319ghcgb4zr4r0000gp/T//molpro.GCkAh2q9DZ/
 Global scratch directory       : /var/folders/2v/xbgp75_9785319ghcgb4zr4r0000gp/T//molpro.GCkAh2q9DZ/
 Wavefunction directory         : /Users/sacpjk/wfu/
 Main file repository           : /var/folders/2v/xbgp75_9785319ghcgb4zr4r0000gp/T//molpro.GCkAh2q9DZ/

 id        : peterk

 Nodes                        nprocs
 Cardiff-University-G34YLXT77Y    1
 GA implementation: MPI file
 GA implementation (serial work in mppx): MPI file

 Using customized tuning parameters: mindgm=1; mindgv=20; mindgc=4; mindgr=1; noblas=0; minvec=7
 default implementation of scratch files=df  


 Variables initialized (1032), CPU time= 0.00 sec
 
 core,small
 angstrom
 
 geometry={
 C1;H4,C1,1.08637390;H1,C1,1.08637390,H4,109.47122063;H2,C1,1.08637390,H4,109.47122063,H1,120;H3,C1,1.08637390,H4,109.47122063,H2,120
 }
 basis=cc-pCVDZ
 
 
 
 hf; ccsd(t)
 
 
 
 {put,xml;noorbitals,nobasis}
 Commands initialized (841), CPU time= 0.00 sec, 704 directives.
 Default parameters read. Elapsed time= 1.06 sec

 Checking input...
 Passed
1


                                         ***  PROGRAM SYSTEM MOLPRO  ***
                                       Copyright, TTI GmbH Stuttgart, 2015
                                    Version 2023.1 linked Tue Jun  6 09:54:11 2023


 **********************************************************************************************************************************
 LABEL *                                                                                                                                                                 
  64 bit serial version                                                                  DATE: 12-Jun-23          TIME: 09:42:06  
 **********************************************************************************************************************************

 SHA1:             8ebb0dd001088a5c915591db1a321413035db0b1
 **********************************************************************************************************************************

 Memory per process:       393 MW
 Total memory per node:    524 MW
 Total GA space:           131 MW

 GA preallocation disabled
 GA check enabled

 Variable memory set to 393.2 MW

 ZUNIT=ANG

 SETTING BASIS          =    CC-PCVDZ


 Recomputing integrals since basis changed


 Using spherical harmonics

 Library entry C      S cc-pCVDZ             selected for orbital group  1
 Library entry C      P cc-pCVDZ             selected for orbital group  1
 Library entry C      D cc-pCVDZ             selected for orbital group  1
 Library entry H      S cc-pVDZ              selected for orbital group  2
 Library entry H      P cc-pVDZ              selected for orbital group  2


 PROGRAM * SEWARD (Integral evaluation for generally contracted gaussian basis sets)     Author: Roland Lindh, 1990

 Geometry written to block  1 of record 700

 Orientation using atomic masses  
 Molecule type: Spherical top,     Neighbour degeneracy = 4
 Symmetry elements: X,Y
 Rotational constants:     159.3144359    159.3144359    159.3144358 GHz  (calculated with average atomic masses)

 Point group  C2v 



 ATOMIC COORDINATES

 NR  ATOM    CHARGE       X              Y              Z

   1  C1      6.00    0.000000000    0.000000000   -0.000000000
   2  H4      1.00    1.676225954    0.000000000    1.185270739
   3  H1      1.00   -1.676225954    0.000000000    1.185270739
   4  H2      1.00    0.000000000    1.676225954   -1.185270739
   5  H3      1.00    0.000000000   -1.676225954   -1.185270739

 Bond lengths in Bohr (Angstrom)

 1-2  2.052949140  1-3  2.052949140  1-4  2.052949140  1-5  2.052949140
     ( 1.086373900)     ( 1.086373900)     ( 1.086373900)     ( 1.086373900)

 Bond angles

  2-1-3  109.47122063   2-1-4  109.47122063   2-1-5  109.47122063   3-1-4  109.47122063

  3-1-5  109.47122063   4-1-5  109.47122064

 NUCLEAR CHARGE:                   10
 NUMBER OF PRIMITIVE AOS:          59
 NUMBER OF SYMMETRY AOS:           58
 NUMBER OF CONTRACTIONS:           38   (   17A1  +    9B1  +    9B2  +    3A2  )
 NUMBER OF INNER CORE ORBITALS:     0   (    0A1  +    0B1  +    0B2  +    0A2  )
 NUMBER OF OUTER CORE ORBITALS:     1   (    1A1  +    0B1  +    0B2  +    0A2  )
 NUMBER OF VALENCE ORBITALS:        8   (    4A1  +    2B1  +    2B2  +    0A2  )


 NUCLEAR REPULSION ENERGY   13.48023391


 Eigenvalues of metric

         1 0.116E-01 0.346E-01 0.427E-01 0.569E-01 0.753E-01 0.127E+00 0.133E+00 0.287E+00
         2 0.346E-01 0.569E-01 0.127E+00 0.406E+00 0.914E+00 0.976E+00 0.114E+01 0.148E+01
         3 0.346E-01 0.569E-01 0.127E+00 0.406E+00 0.914E+00 0.976E+00 0.114E+01 0.148E+01
         4 0.287E+00 0.914E+00 0.176E+01


 Contracted 2-electron integrals neglected if value below      1.0D-11
 AO integral compression algorithm  1   Integral accuracy      1.0D-11

     0.786 MB (compressed) written to integral file ( 67.8%)


 NUMBER OF SORTED TWO-ELECTRON INTEGRALS:      78024.     BUFFER LENGTH:  32768
 NUMBER OF SEGMENTS:   1  SEGMENT LENGTH:      78024      RECORD LENGTH: 524288

 Memory used in sort:       0.64 MW

 SORT1 READ      103253. AND WROTE       74624. INTEGRALS IN      1 RECORDS. CPU TIME:     0.00 SEC, REAL TIME:     0.00 SEC
 SORT2 READ       74624. AND WROTE       78024. INTEGRALS IN      3 RECORDS. CPU TIME:     0.01 SEC, REAL TIME:     0.01 SEC

 FILE SIZES:   FILE 1:    30.8 MBYTE,  FILE 4:     4.3 MBYTE,   TOTAL:     35.1 MBYTE

 OPERATOR DM      FOR CENTER  0  COORDINATES:    0.000000    0.000000    0.000000


 **********************************************************************************************************************************
 DATASETS  * FILE   NREC   LENGTH (MB)   RECORD NAMES
              1      19       29.03       500      610      700      900      950      970     1000      129      960     1100   
                                          VAR    BASINP    GEOM    SYMINP    ZMAT    AOBASIS   BASIS     P2S    ABASIS      S 
                                         1400     1410     1200     1210     1080     1600     1650     1300     1700   
                                           T        V       H0       H01     AOSYM     SMH    MOLCAS    ERIS     OPER   

 PROGRAMS   *        TOTAL       INT
 CPU TIMES  *         0.18      0.08
 REAL TIME  *         2.24 SEC
 DISK USED  *        33.81 MB
 **********************************************************************************************************************************


 Program * Restricted Hartree-Fock

 Orbital guess generated from atomic densities. Full valence occupancy:    5   2   2   0

 Initial occupancy:   3   1   1   0

 NELEC=   10   SYM=1   MS2= 0   THRE=1.0D-08   THRD=3.2D-06   THRG=3.2D-06  HFMA2=F  DIIS_START=2   DIIS_MAX=10   DIIS_INCORE=F

 Level shifts:    0.00 (CLOSED)    0.00 (OPEN)    0.30 (GAP_MIN)

 ITER           ETOT              DE          GRAD        DDIFF     DIIS  NEXP   TIME(IT)  TIME(TOT)  DIAG
   1      -40.18088451     -40.18088451     0.00D+00     0.25D+00     0     0       0.00      0.00    start
   2      -40.19704952      -0.01616501     0.14D-01     0.29D-01     1     0       0.00      0.00    diag
   3      -40.19898334      -0.00193382     0.54D-02     0.10D-01     2     0       0.00      0.00    diag
   4      -40.19924763      -0.00026429     0.14D-02     0.36D-02     3     0       0.00      0.00    diag
   5      -40.19925019      -0.00000256     0.15D-03     0.55D-03     4     0       0.00      0.00    diag
   6      -40.19925021      -0.00000002     0.12D-04     0.58D-04     5     0       0.00      0.00    diag
   7      -40.19925021      -0.00000000     0.64D-06     0.25D-05     6     0       0.00      0.00    diag
   8      -40.19925021      -0.00000000     0.39D-07     0.95D-07     0     0       0.00      0.00    fixocc

 Final occupancy:   3   1   1   0

 !RHF STATE 1.1 Energy                -40.199250205939
  RHF One-electron energy             -79.779366865388
  RHF Two-electron energy              26.099882748266
  RHF Kinetic energy                   40.099314203276
  RHF Nuclear energy                   13.480233911183
  RHF Virial quotient                  -1.002492212265

 !RHF STATE 1.1 Dipole moment           0.00000000     0.00000000     0.00000000
 Dipole moment /Debye                   0.00000000     0.00000000     0.00000000

 Orbital energies:

           1.1          2.1          3.1          4.1          5.1
    -11.215163    -0.943486    -0.543717     0.191869     0.274498

           1.2          2.2          3.2
     -0.543717     0.274498     0.588701

           1.3          2.3          3.3
     -0.543717     0.274498     0.588701

           1.4          2.4
      1.131955     1.688828


 HOMO      1.3    -0.543717 =     -14.7953eV
 LUMO      4.1     0.191869 =       5.2210eV
 LUMO-HOMO         0.735587 =      20.0163eV

 Orbitals saved in record  2100.2


 **********************************************************************************************************************************
 DATASETS  * FILE   NREC   LENGTH (MB)   RECORD NAMES
              1      19       29.03       500      610      700      900      950      970     1000      129      960     1100   
                                          VAR    BASINP    GEOM    SYMINP    ZMAT    AOBASIS   BASIS     P2S    ABASIS      S 
                                         1400     1410     1200     1210     1080     1600     1650     1300     1700   
                                           T        V       H0       H01     AOSYM     SMH    MOLCAS    ERIS     OPER   

              2       4        0.41       700     1000      520     2100   
                                         GEOM     BASIS   MCVARS     RHF  

 PROGRAMS   *        TOTAL    HF-SCF       INT
 CPU TIMES  *         0.19      0.00      0.08
 REAL TIME  *         2.78 SEC
 DISK USED  *        33.81 MB
 **********************************************************************************************************************************


 PROGRAM * CCSD (Closed-shell coupled cluster)     Authors: C. Hampel, H.-J. Werner, 1991, M. Deegan, P.J. Knowles, 1992


 CORETYPE=SMALL

 Convergence thresholds:  THRVAR = 1.00D-08  THRDEN = 1.00D-06

 CCSD(T)     terms to be evaluated (factor= 1.000)


 Number of closed-shell orbitals:   5 (   3   1   1   0 )
 Number of external orbitals:      33 (  14   8   8   3 )

 Molecular orbitals read from record     2100.2  Type=RHF/CANONICAL  

 Number of N-1 electron functions:               5
 Number of N-2 electron functions:              15
 Number of singly external CSFs:                58
 Number of doubly external CSFs:              3758
 Total number of CSFs:                        3817

 Length of J-op  integral file:               0.00 MB
 Length of K-op  integral file:               0.09 MB
 Length of 3-ext integral record:             0.00 MB

 Memory could be reduced to 0.13 Mwords without degradation in triples

 Integral transformation finished. Total CPU:   0.01 sec, npass=  1  Memory used:   0.08 MW

 Reference energy:                    -40.19925021

 MP2 singlet pair energy:              -0.14822964
 MP2 triplet pair energy:              -0.04949716
 MP2 correlation energy:               -0.19772680
 MP2 total energy:                    -40.39697700

 SCS-MP2 correlation energy:           -0.20867380   (PS=  1.200000  PT=  0.333333)
 SCS-MP2 total energy:                -40.40792400

 ITER.      SQ.NORM     CORR.ENERGY   TOTAL ENERGY   ENERGY CHANGE        DEN1      VAR(S)    VAR(P)  DIIS     TIME  TIME/IT
   1      1.06743750    -0.22155007   -40.42080028    -0.02382327    -0.01820869  0.28D-03  0.12D-02  1  1     0.30     0.02
   2      1.07271121    -0.22290603   -40.42215624    -0.00135596    -0.00562035  0.61D-05  0.86D-04  2  2     0.30     0.02
   3      1.07444132    -0.22298604   -40.42223625    -0.00008001    -0.00132518  0.60D-06  0.40D-05  3  3     0.30     0.03
   4      1.07467834    -0.22299634   -40.42224655    -0.00001030    -0.00011131  0.23D-07  0.28D-06  4  4     0.31     0.02
   5      1.07470924    -0.22299930   -40.42224951    -0.00000296    -0.00000317  0.78D-09  0.14D-07  5  5     0.31     0.02
   6      1.07471264    -0.22299862   -40.42224882     0.00000068    -0.00000325  0.49D-10  0.45D-09  6  6     0.31     0.02
   7      1.07471277    -0.22299870   -40.42224891    -0.00000008    -0.00000004  0.56D-11  0.24D-10  6  1     0.32     0.02

 Norm of t1 vector:      0.02230055      S-energy:     0.00000001      T1 diagnostic:  0.00498656
                                                                       D1 diagnostic:  0.00873344
                                                                       D2 diagnostic:  0.13150955 (internal)


 Total CPU time for triples:      0.00 sec


 RESULTS
 =======

  Reference energy                    -40.199250205939

  Correlated core orbitals:             1.1
  Orbital energies:                   -11.2152

  CCSD core-core energy                -0.031790698946
  CCSD core-valence energy             -0.005979291029
  CCSD valence correlation energy      -0.185228709216

  CCSD singlet pair energy             -0.175014827255
  CCSD triplet pair energy             -0.047983884256
  CCSD correlation energy              -0.222998699190

  Triples (T) contribution             -0.003930130591
  Total correlation energy             -0.226928829781

  CCSD total energy                   -40.422248905129
  CCSD[T] energy                      -40.426280544699
  CCSD-T energy                       -40.426127198583
 !CCSD(T) total energy                -40.426179035720

 Timing summary (sec):

 STEP                 CPU(USER)    SYS     CPU(TOT)    WALL
 Transformation          0.01      0.00      0.01      0.08
 CCSD iterations         0.32      0.01      0.33      0.30

 Program statistics:

 Available memory in ccsd:               393215897
 Min. memory needed in ccsd:                 17587
 Max. memory used in ccsd:                   20053
 Max. memory used in cckext:                 50681 ( 7 integral passes)



 **********************************************************************************************************************************
 DATASETS  * FILE   NREC   LENGTH (MB)   RECORD NAMES
              1      20       29.30       500      610      700      900      950      970     1000      129      960     1100   
                                          VAR    BASINP    GEOM    SYMINP    ZMAT    AOBASIS   BASIS     P2S    ABASIS      S 
                                         1400     1410     1200     1210     1080     1600     1650     1300     1700     1380   
                                           T        V       H0       H01     AOSYM     SMH    MOLCAS    ERIS     OPER     JKOP   

              2       4        0.41       700     1000      520     2100   
                                         GEOM     BASIS   MCVARS     RHF  

 PROGRAMS   *        TOTAL   CCSD(T)    HF-SCF       INT
 CPU TIMES  *         0.24      0.06      0.00      0.08
 REAL TIME  *         3.35 SEC
 DISK USED  *        33.81 MB
 **********************************************************************************************************************************

 Dump information in style XML to xml output                                                                      

 Orbitals will not be exported.

 **********************************************************************************************************************************

 CCSD(T)/cc-pCVDZ energy=    -40.426179035720

         CCSD(T)          HF-SCF
    -40.42617904    -40.19925021
 **********************************************************************************************************************************
 Molpro calculation terminated
