
 Working directory              : /tmp/peterk/molpro.rtTmHeN0NB/
 Global scratch directory       : /tmp/peterk/molpro.rtTmHeN0NB/
 Wavefunction directory         : /home/peterk/wfu/
 Main file repository           : /tmp/peterk/molpro.rtTmHeN0NB/

 id        : peterk

 Nodes     nprocs
 marat        1
 GA implementation: MPI file
 GA implementation (serial work in mppx): MPI file

 Using customized tuning parameters: mindgm=1; mindgv=20; mindgc=4; mindgr=1; noblas=0; minvec=7
 default implementation of scratch files=df  


 Variables initialized (1032), CPU time= 0.00 sec
 
 symmetry,nosym
 
 
 geometry={
            6
     F          0.00000000      0.00000000     -1.79137135
     C          0.00000000      0.00000000     -0.36561703
     H         -0.51179113      0.88644824     -0.01758668
     H         -0.51179113     -0.88644824     -0.01758668
     H          1.02358226      0.00000000     -0.01758668
     F          0.00000000      0.00000000      2.20974841
 }
 basis=cc-pVQZ
 
 charge=-1
 
 hf; hf; papt; mp3
 
 
 
 {put,xml;noorbitals,nobasis}
 Commands initialized (841), CPU time= 0.00 sec, 708 directives.
 Default parameters read. Elapsed time= 0.05 sec

 Checking input...
 Passed
1


                                         ***  PROGRAM SYSTEM MOLPRO  ***
                                       Copyright, TTI GmbH Stuttgart, 2015
                                    Version 2023.1 linked Sat Jun 10 08:01:27 2023


 **********************************************************************************************************************************
 LABEL *                                                                                                                                                                 
  (16 PROC) 64 bit serial version                                                        DATE: 11-Jun-23          TIME: 15:54:44  
 **********************************************************************************************************************************

 SHA1:             8376d659ba1296ca7ee514c57770fe2c96af278c
 **********************************************************************************************************************************

 Memory per process:      1074 MW
 Total memory per node:   1074 MW

 GA preallocation disabled
 GA check disabled

 Variable memory set to 1073.7 MW

 ZSYMEL=NOSYM


 Geometry recognized as XYZ

 SETTING BASIS          =    CC-PVQZ
 SETTING CHARGE         =        -1.00000000                                  


 Recomputing integrals since basis changed


 Using spherical harmonics

 Library entry F      S cc-pVQZ              selected for orbital group  1
 Library entry F      P cc-pVQZ              selected for orbital group  1
 Library entry F      D cc-pVQZ              selected for orbital group  1
 Library entry F      F cc-pVQZ              selected for orbital group  1
 Library entry F      G cc-pVQZ              selected for orbital group  1
 Library entry C      S cc-pVQZ              selected for orbital group  2
 Library entry C      P cc-pVQZ              selected for orbital group  2
 Library entry C      D cc-pVQZ              selected for orbital group  2
 Library entry C      F cc-pVQZ              selected for orbital group  2
 Library entry C      G cc-pVQZ              selected for orbital group  2
 Library entry H      S cc-pVQZ              selected for orbital group  3
 Library entry H      P cc-pVQZ              selected for orbital group  3
 Library entry H      D cc-pVQZ              selected for orbital group  3
 Library entry H      F cc-pVQZ              selected for orbital group  3


 PROGRAM * SEWARD (Integral evaluation for generally contracted gaussian basis sets)     Author: Roland Lindh, 1990

 Geometry written to block  1 of record 700


 Point group  C1  



 ATOMIC COORDINATES

 NR  ATOM    CHARGE       X              Y              Z

   1  F       9.00    0.000000000    0.000000000   -3.385201239
   2  C       6.00    0.000000000    0.000000000   -0.690916053
   3  H       1.00   -0.967145069    1.675144397   -0.033234009
   4  H       1.00   -0.967145069   -1.675144397   -0.033234009
   5  H       1.00    1.934290137    0.000000000   -0.033234009
   6  F       9.00    0.000000000    0.000000000    4.175819299

 Bond lengths in Bohr (Angstrom)

 1-2  2.694285186  2-3  2.043042831  2-4  2.043042831  2-5  2.043042831
     ( 1.425754320)     ( 1.081131707)     ( 1.081131707)     ( 1.081131707)

 Bond angles

  1-2-3  108.77865447   1-2-4  108.77865447   1-2-5  108.77865447   3-2-4  110.15481872

  3-2-5  110.15481872   4-2-5  110.15481872

 NUCLEAR CHARGE:                   27
 NUMBER OF PRIMITIVE AOS:         360
 NUMBER OF SYMMETRY AOS:          300
 NUMBER OF CONTRACTIONS:          255   (  255A   )
 NUMBER OF INNER CORE ORBITALS:     0   (    0A   )
 NUMBER OF OUTER CORE ORBITALS:     3   (    3A   )
 NUMBER OF VALENCE ORBITALS:       15   (   15A   )


 NUCLEAR REPULSION ENERGY   64.36223019


 Eigenvalues of metric

         1 0.131E-03 0.278E-03 0.278E-03 0.430E-03 0.494E-03 0.527E-03 0.113E-02 0.162E-02


 Contracted 2-electron integrals neglected if value below      1.0D-11
 AO integral compression algorithm  1   Integral accuracy      1.0D-11

     1345.061 MB (compressed) written to integral file ( 28.8%)


 NUMBER OF SORTED TWO-ELECTRON INTEGRALS:  532701120.     BUFFER LENGTH:  32768
 NUMBER OF SEGMENTS:  34  SEGMENT LENGTH:   15999762      RECORD LENGTH: 262144

 Memory used in sort:      16.29 MW

 SORT1 READ   583140253. AND WROTE   325401043. INTEGRALS IN   1879 RECORDS. CPU TIME:     3.77 SEC, REAL TIME:     6.19 SEC
 SORT2 READ   325401043. AND WROTE   532701120. INTEGRALS IN   5131 RECORDS. CPU TIME:     3.52 SEC, REAL TIME:     4.70 SEC

 FILE SIZES:   FILE 1:  1377.6 MBYTE,  FILE 4:  3940.6 MBYTE,   TOTAL:   5318.2 MBYTE

 OPERATOR DM      FOR CENTER  0  COORDINATES:    0.000000    0.000000    0.000000


 **********************************************************************************************************************************
 DATASETS  * FILE   NREC   LENGTH (MB)   RECORD NAMES
              1      19     1147.96       500      610      700      900      950      970     1000      129      960     1100   
                                          VAR    BASINP    GEOM    SYMINP    ZMAT    AOBASIS   BASIS     P2S    ABASIS      S 
                                         1400     1410     1200     1210     1080     1600     1650     1300     1700   
                                           T        V       H0       H01     AOSYM     SMH    MOLCAS    ERIS     OPER   

 PROGRAMS   *        TOTAL       INT
 CPU TIMES  *        21.11     21.01
 REAL TIME  *        27.00 SEC
 DISK USED  *         4.95 GB
 **********************************************************************************************************************************


 Program * Restricted Hartree-Fock

 Orbital guess generated from atomic densities. Full valence occupancy:   18

 Initial occupancy:  14

 NELEC=   28   SYM=1   MS2= 0   THRE=1.0D-08   THRD=3.2D-06   THRG=3.2D-06  HFMA2=F  DIIS_START=2   DIIS_MAX=10   DIIS_INCORE=F

 Level shifts:    0.00 (CLOSED)    0.00 (OPEN)    0.30 (GAP_MIN)

 ITER           ETOT              DE          GRAD        DDIFF     DIIS  NEXP   TIME(IT)  TIME(TOT)  DIAG
   1     -238.46333345    -238.46333345     0.00D+00     0.41D-01     0     0       2.68      5.24    start
   2     -238.52795003      -0.06461658     0.66D-02     0.65D-02     1     0       2.76      8.00    diag
   3     -238.57390270      -0.04595266     0.52D-02     0.27D-02     2     0       2.74     10.74    diag
   4     -238.57440361      -0.00050091     0.32D-03     0.31D-03     3     0       2.74     13.48    diag
   5     -238.57444356      -0.00003995     0.97D-04     0.11D-03     4     0       2.73     16.21    diag
   6     -238.57444834      -0.00000479     0.41D-04     0.31D-04     5     0       2.75     18.96    diag
   7     -238.57444875      -0.00000040     0.97D-05     0.12D-04     6     0       2.77     21.73    diag
   8     -238.57444877      -0.00000003     0.21D-05     0.30D-05     7     0       2.75     24.48    fixocc
   9     -238.57444878      -0.00000000     0.72D-06     0.85D-06     8     0       2.76     27.24    diag
  10     -238.57444878      -0.00000000     0.19D-06     0.21D-06     0     0       2.75     29.99    diag/orth

 Final occupancy:  14

 !RHF STATE 1.1 Energy               -238.574448775558
  RHF One-electron energy            -467.727364897572
  RHF Two-electron energy             164.790685927962
  RHF Kinetic energy                  238.569928716187
  RHF Nuclear energy                   64.362230194053
  RHF Virial quotient                  -1.000018946476

 !RHF STATE 1.1 Dipole moment          -0.00000000    -0.00000000    -2.65327336
 Dipole moment /Debye                  -0.00000000    -0.00000000    -6.74394820

 Orbital energies:

           1.1          2.1          3.1          4.1          5.1          6.1          7.1          8.1          9.1         10.1
    -26.096441   -25.829227   -11.109553    -1.400205    -1.087695    -0.762401    -0.509833    -0.509833    -0.484381    -0.350027

          11.1         12.1         13.1         14.1         15.1         16.1
     -0.350027    -0.194705    -0.194341    -0.194341     0.280501     0.361852


 HOMO     14.1    -0.194341 =      -5.2883eV
 LUMO     15.1     0.280501 =       7.6328eV
 LUMO-HOMO         0.474842 =      12.9211eV

 Orbitals saved in record  2100.2


 **********************************************************************************************************************************
 DATASETS  * FILE   NREC   LENGTH (MB)   RECORD NAMES
              1      19     1147.96       500      610      700      900      950      970     1000      129      960     1100   
                                          VAR    BASINP    GEOM    SYMINP    ZMAT    AOBASIS   BASIS     P2S    ABASIS      S 
                                         1400     1410     1200     1210     1080     1600     1650     1300     1700   
                                           T        V       H0       H01     AOSYM     SMH    MOLCAS    ERIS     OPER   

              2       4        1.49       700     1000      520     2100   
                                         GEOM     BASIS   MCVARS     RHF  

 PROGRAMS   *        TOTAL    HF-SCF       INT
 CPU TIMES  *        51.12     30.00     21.01
 REAL TIME  *        58.65 SEC
 DISK USED  *         4.95 GB
 **********************************************************************************************************************************


 Program * Restricted Hartree-Fock

 Molecular orbitals read from record     2100.2  Type=RHF/CANONICAL  

 Initial occupancy:  14

 NELEC=   28   SYM=1   MS2= 0   THRE=1.0D-08   THRD=3.2D-06   THRG=3.2D-06  HFMA2=F  DIIS_START=2   DIIS_MAX=10   DIIS_INCORE=F

 Level shifts:    0.00 (CLOSED)    0.00 (OPEN)    0.30 (GAP_MIN)

 ITER           ETOT              DE          GRAD        DDIFF     DIIS  NEXP   TIME(IT)  TIME(TOT)  DIAG
   1     -238.57444878    -238.57444878     0.00D+00     0.40D-01     0     0       2.77      2.77    start
   2     -238.57444878      -0.00000000     0.87D-07     0.87D-07     1     0       2.74      5.51    diag

 Final occupancy:  14

 !RHF STATE 1.1 Energy               -238.574448775604
  RHF One-electron energy            -467.727361240828
  RHF Two-electron energy             164.790682271171
  RHF Kinetic energy                  238.569928412317
  RHF Nuclear energy                   64.362230194053
  RHF Virial quotient                  -1.000018947750

 !RHF STATE 1.1 Dipole moment          -0.00000000    -0.00000000    -2.65326200
 Dipole moment /Debye                  -0.00000000    -0.00000000    -6.74391934

 Orbital energies:

           1.1          2.1          3.1          4.1          5.1          6.1          7.1          8.1          9.1         10.1
    -26.096443   -25.829226   -11.109546    -1.400204    -1.087695    -0.762399    -0.509832    -0.509832    -0.484381    -0.350025

          11.1         12.1         13.1         14.1         15.1         16.1
     -0.350025    -0.194704    -0.194341    -0.194341     0.280501     0.361852


 HOMO     14.1    -0.194341 =      -5.2883eV
 LUMO     15.1     0.280501 =       7.6328eV
 LUMO-HOMO         0.474843 =      12.9211eV

 Orbitals saved in record  2101.2


 **********************************************************************************************************************************
 DATASETS  * FILE   NREC   LENGTH (MB)   RECORD NAMES
              1      19     1147.96       500      610      700      900      950      970     1000      129      960     1100   
                                          VAR    BASINP    GEOM    SYMINP    ZMAT    AOBASIS   BASIS     P2S    ABASIS      S 
                                         1400     1410     1200     1210     1080     1600     1650     1300     1700   
                                           T        V       H0       H01     AOSYM     SMH    MOLCAS    ERIS     OPER   

              2       5        3.34       700     1000      520     2100     2101   
                                         GEOM     BASIS   MCVARS     RHF      RHF  

 PROGRAMS   *        TOTAL    HF-SCF    HF-SCF       INT
 CPU TIMES  *        56.65      5.52     30.00     21.01
 REAL TIME  *        64.50 SEC
 DISK USED  *         4.95 GB
 **********************************************************************************************************************************


 PROGRAM * PAPT (Closed-shell)     Authors: C. Hampel, H.-J. Werner, 1991, P.J. Knowles, 2021


 Convergence thresholds:  THRVAR = 1.00D-08  THRDEN = 1.00D-06

 Number of core orbitals:           3 (   3 )
 Number of closed-shell orbitals:  11 (  11 )
 Number of external orbitals:     241 ( 241 )

 Molecular orbitals read from record     2101.2  Type=RHF/CANONICAL  

 Number of N-1 electron functions:              11
 Number of N-2 electron functions:              66
 Number of singly external CSFs:              2651
 Number of doubly external CSFs:           3515226
 Total number of CSFs:                     3517878

 Length of J-op  integral file:               0.00 MB
 Length of K-op  integral file:               4.53 MB

 Integral transformation finished. Total CPU:   6.27 sec, npass=  1  Memory used:   8.57 MW

 Reference energy:                   -238.57444878

                        CORR.ENERGY   TOTAL ENERGY   ENERGY CHANGE
 MP2:                   -0.77745511  -239.35190389    -0.77745511

 SCS-MP2 correlation energy:           -0.77173118   (PS=  1.200000  PT=  0.333333)
 SCS-MP2 total energy:               -239.34617996
 Iteration:   1     0.2450D+00
 Iteration:   2     0.2194D+00
 Iteration:   3     0.1047D+00
 Iteration:   4     0.6433D-01
 Iteration:   5     0.4115D+00
 Iteration:   6     0.5521D-01
 Iteration:   7     0.4748D-01
 Iteration:   8     0.4670D+01
 Iteration:   9     0.4274D-01
 Iteration:  10     0.3933D-01
 Iteration:  11     0.1534D+00
 Iteration:  12     0.1534D-01
 Iteration:  13     0.1497D-01
 Iteration:  14     0.1174D-01
 Iteration:  15     0.6179D-02
 Iteration:  16     0.7456D-02
 Iteration:  17     0.2148D-02
 Iteration:  18     0.1254D-01
 Iteration:  19     0.1141D-02
 Iteration:  20     0.1773D-02
 Iteration:  21     0.5642D-03
 Iteration:  22     0.3156D-03
 Iteration:  23     0.1527D-02
 Iteration:  24     0.7307D-04
 PAPT operator written to  7000.1
 PAPT orbitals and eigenvalues written to  7000.2

 MP3(D):                -0.77852958  -239.35297836    -0.00107447



 RESULTS
 =======

  Reference energy                   -238.574448775604
  MP3 singlet pair energy              -0.524463507978
  MP3 triplet pair energy              -0.254066075680
  MP3 correlation energy               -0.778529583659

 !MP3 total energy                   -239.352978359263

 Timing summary (sec):

 STEP                 CPU(USER)    SYS     CPU(TOT)    WALL
 Transformation          6.45      0.29      6.74      6.73
 CCSD iterations        83.88      0.44     84.32     27.31

 Program statistics:

 Available memory in ccsd:              1073741326
 Min. memory needed in ccsd:               9327047
 Max. memory used in ccsd:                12447769
 Max. memory used in cckext:               9138388 ( 1 integral passes)



 **********************************************************************************************************************************
 DATASETS  * FILE   NREC   LENGTH (MB)   RECORD NAMES
              1      21     1198.38       500      610      700      900      950      970     1000      129      960     1100   
                                          VAR    BASINP    GEOM    SYMINP    ZMAT    AOBASIS   BASIS     P2S    ABASIS      S 
                                         1400     1410     1200     1210     1080     1600     1650     1300     1700     1380   
                                           T        V       H0       H01     AOSYM     SMH    MOLCAS    ERIS     OPER     JKOP   
                                         7000   
                                        PAPT AO    

              2       6        4.93       700     1000      520     2100     2101     7000   
                                         GEOM     BASIS   MCVARS     RHF      RHF     PAPT   

 PROGRAMS   *        TOTAL      PAPT    HF-SCF    HF-SCF       INT
 CPU TIMES  *        89.99     33.34      5.52     30.00     21.01
 REAL TIME  *        98.59 SEC
 DISK USED  *         4.95 GB
 **********************************************************************************************************************************


 PROGRAM * MP3 (Closed-shell)     Authors: C. Hampel, H.-J. Werner, 1991, M. Deegan, P.J. Knowles, 1992


 Convergence thresholds:  THRVAR = 1.00D-08  THRDEN = 1.00D-06

 Number of core orbitals:           3 (   3 )
 Number of closed-shell orbitals:  11 (  11 )
 Number of external orbitals:     241 ( 241 )

 Molecular orbitals read from record     7000.2  Type=PAPT/CANONICAL (state 1.1)

 Number of N-1 electron functions:              11
 Number of N-2 electron functions:              66
 Number of singly external CSFs:              2651
 Number of doubly external CSFs:           3515226
 Total number of CSFs:                     3517878

 Length of J-op  integral file:               0.00 MB
 Length of K-op  integral file:               4.53 MB

 Integral transformation finished. Total CPU:   5.84 sec, npass=  1  Memory used:   8.57 MW
 Orbital energies read from record       7000.2  Type=PAPT/CANONICAL (state 1.1)

 Reference energy:                   -238.57444878

                        CORR.ENERGY   TOTAL ENERGY   ENERGY CHANGE
 MP2:                   -0.78531284  -239.35976162    -0.78531284

 SCS-MP2 correlation energy:           -0.78248047   (PS=  1.200000  PT=  0.333333)
 SCS-MP2 total energy:               -239.35692924

 MP3(D):                -0.78554387  -239.35999265    -0.00023103



 RESULTS
 =======

  Reference energy                   -238.574448775604
  MP3 singlet pair energy              -0.529114465193
  MP3 triplet pair energy              -0.256429409772
  MP3 correlation energy               -0.785543874965

 !MP3 total energy                   -239.359992650569

 Timing summary (sec):

 STEP                 CPU(USER)    SYS     CPU(TOT)    WALL
 Transformation          8.65      0.32      8.97      8.98
 CCSD iterations       104.28      0.21    104.49     14.12

 Program statistics:

 Available memory in ccsd:              1073741326
 Min. memory needed in ccsd:               9327047
 Max. memory used in ccsd:                12447769
 Max. memory used in cckext:               9138388 ( 1 integral passes)



 **********************************************************************************************************************************
 DATASETS  * FILE   NREC   LENGTH (MB)   RECORD NAMES
              1      21     1198.38       500      610      700      900      950      970     1000      129      960     1100   
                                          VAR    BASINP    GEOM    SYMINP    ZMAT    AOBASIS   BASIS     P2S    ABASIS      S 
                                         1400     1410     1200     1210     1080     1600     1650     1300     1700     1380   
                                           T        V       H0       H01     AOSYM     SMH    MOLCAS    ERIS     OPER     JKOP   
                                         7000   
                                        PAPT AO    

              2       6        4.93       700     1000      520     2100     2101     7000   
                                         GEOM     BASIS   MCVARS     RHF      RHF     PAPT   

 PROGRAMS   *        TOTAL       MP3      PAPT    HF-SCF    HF-SCF       INT
 CPU TIMES  *       112.59     22.60     33.34      5.52     30.00     21.01
 REAL TIME  *       121.73 SEC
 DISK USED  *         4.95 GB
 **********************************************************************************************************************************

 Dump information in style XML to xml output                                                                      

 Orbitals will not be exported.

 **********************************************************************************************************************************

 MP3/cc-pVQZ energy=   -239.359992650569

             MP3            PAPT          HF-SCF          HF-SCF
   -239.35999265   -239.35297836   -238.57444878   -238.57444878
 **********************************************************************************************************************************
 Molpro calculation terminated
