
 Working directory              : /var/folders/2v/xbgp75_9785319ghcgb4zr4r0000gp/T//molpro.xISIJtZ0Bu/
 Global scratch directory       : /var/folders/2v/xbgp75_9785319ghcgb4zr4r0000gp/T//molpro.xISIJtZ0Bu/
 Wavefunction directory         : /Users/sacpjk/wfu/
 Main file repository           : /var/folders/2v/xbgp75_9785319ghcgb4zr4r0000gp/T//molpro.xISIJtZ0Bu/

 id        : peterk

 Nodes                        nprocs
 Cardiff-University-G34YLXT77Y    1
 GA implementation: MPI file
 GA implementation (serial work in mppx): MPI file

 Using customized tuning parameters: mindgm=1; mindgv=20; mindgc=4; mindgr=1; noblas=0; minvec=7
 default implementation of scratch files=df  


 Variables initialized (1032), CPU time= 0.00 sec
 
 symmetry,nosym
 
 
 geometry={
            6
     CL         0.00000000      0.00000000      2.12296431
     C          0.00000000      0.00000000      0.27246587
     H         -0.51316170     -0.88882214     -0.05531446
     H         -0.51316170      0.88882214     -0.05531446
     H          1.02632340      0.00000000     -0.05531446
     F          0.00000000      0.00000000     -2.22948681
 }
 basis=cc-pVTZ
 
 charge=-1
 
 hf; ccsd(t)
 
 
 
 {put,xml;noorbitals,nobasis}
 Commands initialized (841), CPU time= 0.00 sec, 704 directives.
 Default parameters read. Elapsed time= 2.14 sec

 Checking input...
 Passed
1


                                         ***  PROGRAM SYSTEM MOLPRO  ***
                                       Copyright, TTI GmbH Stuttgart, 2015
                                    Version 2023.1 linked Tue Jun  6 09:54:11 2023


 **********************************************************************************************************************************
 LABEL *                                                                                                                                                                 
  64 bit serial version                                                                  DATE: 09-Jun-23          TIME: 16:07:17  
 **********************************************************************************************************************************

 SHA1:             8ebb0dd001088a5c915591db1a321413035db0b1
 **********************************************************************************************************************************

 Memory per process:       805 MW
 Total memory per node:   1074 MW
 Total GA space:           268 MW

 GA preallocation disabled
 GA check enabled

 Variable memory set to 805.3 MW

 ZSYMEL=NOSYM


 Geometry recognized as XYZ

 SETTING BASIS          =    CC-PVTZ
 SETTING CHARGE         =        -1.00000000                                  


 Recomputing integrals since basis changed


 Using spherical harmonics

 Library entry CL     S cc-pVTZ              selected for orbital group  1
 Library entry CL     P cc-pVTZ              selected for orbital group  1
 Library entry CL     D cc-pVTZ              selected for orbital group  1
 Library entry CL     F cc-pVTZ              selected for orbital group  1
 Library entry C      S cc-pVTZ              selected for orbital group  2
 Library entry C      P cc-pVTZ              selected for orbital group  2
 Library entry C      D cc-pVTZ              selected for orbital group  2
 Library entry C      F cc-pVTZ              selected for orbital group  2
 Library entry H      S cc-pVTZ              selected for orbital group  3
 Library entry H      P cc-pVTZ              selected for orbital group  3
 Library entry H      D cc-pVTZ              selected for orbital group  3
 Library entry F      S cc-pVTZ              selected for orbital group  4
 Library entry F      P cc-pVTZ              selected for orbital group  4
 Library entry F      D cc-pVTZ              selected for orbital group  4
 Library entry F      F cc-pVTZ              selected for orbital group  4


 PROGRAM * SEWARD (Integral evaluation for generally contracted gaussian basis sets)     Author: Roland Lindh, 1990

 Geometry written to block  1 of record 700


 Point group  C1  



 ATOMIC COORDINATES

 NR  ATOM    CHARGE       X              Y              Z

   1  CL     17.00    0.000000000    0.000000000    4.011821118
   2  C       6.00    0.000000000    0.000000000    0.514885873
   3  H       1.00   -0.969735071   -1.679630418   -0.104529180
   4  H       1.00   -0.969735071    1.679630418   -0.104529180
   5  H       1.00    1.939470141    0.000000000   -0.104529180
   6  F       9.00    0.000000000    0.000000000   -4.213119469

 Bond lengths in Bohr (Angstrom)

 1-2  3.496935246  2-3  2.035981202  2-4  2.035981202  2-5  2.035981197
     ( 1.850498440)     ( 1.077394854)     ( 1.077394854)     ( 1.077394852)

 Bond angles

  1-2-3  107.71209573   1-2-4  107.71209573   1-2-5  107.71209577   3-2-4  111.17159748

  3-2-5  111.17159724   4-2-5  111.17159724

 NUCLEAR CHARGE:                   35
 NUMBER OF PRIMITIVE AOS:         209
 NUMBER OF SYMMETRY AOS:          191
 NUMBER OF CONTRACTIONS:          136   (  136A   )
 NUMBER OF INNER CORE ORBITALS:     1   (    1A   )
 NUMBER OF OUTER CORE ORBITALS:     6   (    6A   )
 NUMBER OF VALENCE ORBITALS:       15   (   15A   )


 NUCLEAR REPULSION ENERGY   86.07628537


 Eigenvalues of metric

         1 0.120E-02 0.179E-02 0.179E-02 0.265E-02 0.370E-02 0.803E-02 0.101E-01 0.101E-01


 Contracted 2-electron integrals neglected if value below      1.0D-11
 AO integral compression algorithm  1   Integral accuracy      1.0D-11

     125.043 MB (compressed) written to integral file ( 31.3%)


 NUMBER OF SORTED TWO-ELECTRON INTEGRALS:   43398586.     BUFFER LENGTH:  32768
 NUMBER OF SEGMENTS:   3  SEGMENT LENGTH:   15998004      RECORD LENGTH: 524288

 Memory used in sort:      16.56 MW

 SORT1 READ    49841924. AND WROTE    28309053. INTEGRALS IN     83 RECORDS. CPU TIME:     0.28 SEC, REAL TIME:     0.35 SEC
 SORT2 READ    28309053. AND WROTE    43398586. INTEGRALS IN    477 RECORDS. CPU TIME:     0.30 SEC, REAL TIME:     0.34 SEC

 FILE SIZES:   FILE 1:   155.8 MBYTE,  FILE 4:   348.2 MBYTE,   TOTAL:    504.0 MBYTE

 OPERATOR DM      FOR CENTER  0  COORDINATES:    0.000000    0.000000    0.000000


 **********************************************************************************************************************************
 DATASETS  * FILE   NREC   LENGTH (MB)   RECORD NAMES
              1      19      131.78       500      610      700      900      950      970     1000      129      960     1100   
                                          VAR    BASINP    GEOM    SYMINP    ZMAT    AOBASIS   BASIS     P2S    ABASIS      S 
                                         1400     1410     1200     1210     1080     1600     1650     1300     1700   
                                           T        V       H0       H01     AOSYM     SMH    MOLCAS    ERIS     OPER   

 PROGRAMS   *        TOTAL       INT
 CPU TIMES  *         1.87      1.78
 REAL TIME  *         6.33 SEC
 DISK USED  *       481.10 MB
 **********************************************************************************************************************************


 Program * Restricted Hartree-Fock

 Orbital guess generated from atomic densities. Full valence occupancy:   22

 Initial occupancy:  18

 NELEC=   36   SYM=1   MS2= 0   THRE=1.0D-08   THRD=3.2D-06   THRG=3.2D-06  HFMA2=F  DIIS_START=2   DIIS_MAX=10   DIIS_INCORE=F

 Level shifts:    0.00 (CLOSED)    0.00 (OPEN)    0.30 (GAP_MIN)

 ITER           ETOT              DE          GRAD        DDIFF     DIIS  NEXP   TIME(IT)  TIME(TOT)  DIAG
   1     -598.50136918    -598.50136918     0.00D+00     0.86D-01     0     0       0.19      0.37    start
   2     -598.56547556      -0.06410638     0.78D-02     0.12D-01     1     0       0.20      0.57    diag
   3     -598.60381574      -0.03834018     0.59D-02     0.46D-02     2     0       0.19      0.76    diag
   4     -598.60457870      -0.00076295     0.41D-03     0.88D-03     3     0       0.19      0.95    diag
   5     -598.60463353      -0.00005483     0.10D-03     0.25D-03     4     0       0.18      1.13    diag
   6     -598.60463714      -0.00000361     0.28D-04     0.67D-04     5     0       0.20      1.33    diag
   7     -598.60463744      -0.00000030     0.74D-05     0.19D-04     6     0       0.20      1.53    diag
   8     -598.60463748      -0.00000004     0.28D-05     0.57D-05     7     0       0.19      1.72    fixocc
   9     -598.60463749      -0.00000001     0.96D-06     0.24D-05     8     0       0.19      1.91    diag
  10     -598.60463749      -0.00000000     0.15D-06     0.27D-06     0     0       0.20      2.11    diag/orth

 Final occupancy:  18

 !RHF STATE 1.1 Energy               -598.604637486044
  RHF One-electron energy           -1008.041595967594
  RHF Two-electron energy             323.360673114753
  RHF Kinetic energy                  598.725719144215
  RHF Nuclear energy                   86.076285366796
  RHF Virial quotient                  -0.999797767735

 !RHF STATE 1.1 Dipole moment           0.00000000    -0.00000000     2.16974928
 Dipole moment /Debye                   0.00000000    -0.00000000     5.51495258

 Orbital energies:

           1.1          2.1          3.1          4.1          5.1          6.1          7.1          8.1          9.1         10.1
   -104.659198   -25.818479   -11.110305   -10.385130    -7.851798    -7.850545    -7.850545    -1.084654    -0.948638    -0.737515

          11.1         12.1         13.1         14.1         15.1         16.1         17.1         18.1         19.1         20.1
     -0.434939    -0.434939    -0.364244    -0.279828    -0.279828    -0.191190    -0.191190    -0.187154     0.310877     0.364898


 HOMO     18.1    -0.187154 =      -5.0927eV
 LUMO     19.1     0.310877 =       8.4594eV
 LUMO-HOMO         0.498032 =      13.5521eV

 Orbitals saved in record  2100.2


 **********************************************************************************************************************************
 DATASETS  * FILE   NREC   LENGTH (MB)   RECORD NAMES
              1      19      131.78       500      610      700      900      950      970     1000      129      960     1100   
                                          VAR    BASINP    GEOM    SYMINP    ZMAT    AOBASIS   BASIS     P2S    ABASIS      S 
                                         1400     1410     1200     1210     1080     1600     1650     1300     1700   
                                           T        V       H0       H01     AOSYM     SMH    MOLCAS    ERIS     OPER   

              2       4        0.76       700     1000      520     2100   
                                         GEOM     BASIS   MCVARS     RHF  

 PROGRAMS   *        TOTAL    HF-SCF       INT
 CPU TIMES  *         3.98      2.11      1.78
 REAL TIME  *         9.02 SEC
 DISK USED  *       481.10 MB
 **********************************************************************************************************************************


 PROGRAM * CCSD (Closed-shell coupled cluster)     Authors: C. Hampel, H.-J. Werner, 1991, M. Deegan, P.J. Knowles, 1992


 Convergence thresholds:  THRVAR = 1.00D-08  THRDEN = 1.00D-06

 CCSD(T)     terms to be evaluated (factor= 1.000)


 Number of core orbitals:           7 (   7 )
 Number of closed-shell orbitals:  11 (  11 )
 Number of external orbitals:     118 ( 118 )

 Molecular orbitals read from record     2100.2  Type=RHF/CANONICAL  

 Number of N-1 electron functions:              11
 Number of N-2 electron functions:              66
 Number of singly external CSFs:              1298
 Number of doubly external CSFs:            843051
 Total number of CSFs:                      844350

 Length of J-op  integral file:               0.00 MB
 Length of K-op  integral file:               1.33 MB
 Length of 3-ext integral record:             0.00 MB

 Memory could be reduced to 24.50 Mwords without degradation in triples

 Integral transformation finished. Total CPU:   0.82 sec, npass=  1  Memory used:  17.64 MW

 Reference energy:                   -598.60463749

 MP2 singlet pair energy:              -0.41105282
 MP2 triplet pair energy:              -0.23594957
 MP2 correlation energy:               -0.64700240
 MP2 total energy:                   -599.25163988

 SCS-MP2 correlation energy:           -0.64007646   (PS=  1.200000  PT=  0.333333)
 SCS-MP2 total energy:               -599.24471394

 ITER.      SQ.NORM     CORR.ENERGY   TOTAL ENERGY   ENERGY CHANGE        DEN1      VAR(S)    VAR(P)  DIIS     TIME  TIME/IT
   1      1.18946567    -0.67425913  -599.27889662    -0.02725673    -0.01217353  0.28D-02  0.27D-02  1  1     6.23     1.48
   2      1.20087051    -0.67552220  -599.28015969    -0.00126307    -0.01332026  0.40D-04  0.44D-03  2  2     7.46     1.43
   3      1.20509695    -0.67574159  -599.28037908    -0.00021939    -0.00223431  0.13D-03  0.31D-04  3  3     8.76     1.44
   4      1.20645826    -0.67568982  -599.28032730     0.00005177    -0.00059455  0.20D-04  0.55D-05  4  4    10.03     1.45
   5      1.20741812    -0.67567219  -599.28030968     0.00001762    -0.00025260  0.46D-05  0.12D-05  5  5    11.27     1.43
   6      1.20782214    -0.67566780  -599.28030529     0.00000439    -0.00004417  0.19D-05  0.16D-06  6  6    12.50     1.43
   7      1.20802329    -0.67565749  -599.28029498     0.00001031    -0.00001244  0.20D-06  0.71D-07  6  1    13.91     1.46
   8      1.20811218    -0.67565189  -599.28028937     0.00000561    -0.00001719  0.60D-07  0.12D-07  6  4    15.15     1.45
   9      1.20813142    -0.67565114  -599.28028863     0.00000075     0.00000140  0.86D-08  0.24D-08  6  3    16.50     1.46
  10      1.20814340    -0.67565048  -599.28028797     0.00000066    -0.00000133  0.15D-08  0.46D-09  6  2    18.04     1.50

 Norm of t1 vector:      0.07871712      S-energy:     0.00000101      T1 diagnostic:  0.01186705
                                                                       D1 diagnostic:  0.04262956
                                                                       D2 diagnostic:  0.15391251 (internal)

 Doubles amplitudes (print threshold =  0.500E-01):

         I         J         SYM. A    SYM. B    A         B      T(IJ, AB)

         6         6         1         1         2         2     -0.05168858


 Total CPU time for triples:     16.97 sec


 RESULTS
 =======

  Reference energy                   -598.604637486046
  CCSD singlet pair energy             -0.459368364851
  CCSD triplet pair energy             -0.216283128439
  CCSD correlation energy              -0.675650484673

  Triples (T) contribution             -0.022289703400
  Total correlation energy             -0.697940188073

  CCSD total energy                  -599.280287970719
  CCSD[T] energy                     -599.303509268983
  CCSD-T energy                      -599.302210515610
 !CCSD(T) total energy               -599.302577674119

 Timing summary (sec):

 STEP                 CPU(USER)    SYS     CPU(TOT)    WALL
 Transformation          0.86      0.14      1.00      1.18
 CCSD iterations        17.21      0.73     17.94     15.20
 Triples                16.97      0.96     17.93     19.49

 Program statistics:

 Available memory in ccsd:               805305866
 Min. memory needed in ccsd:               2341778
 Max. memory used in ccsd:                 3058604
 Max. memory used in cckext:               2625063 (10 integral passes)



 **********************************************************************************************************************************
 DATASETS  * FILE   NREC   LENGTH (MB)   RECORD NAMES
              1      20      215.59       500      610      700      900      950      970     1000      129      960     1100   
                                          VAR    BASINP    GEOM    SYMINP    ZMAT    AOBASIS   BASIS     P2S    ABASIS      S 
                                         1400     1410     1200     1210     1080     1600     1650     1300     1700     1380   
                                           T        V       H0       H01     AOSYM     SMH    MOLCAS    ERIS     OPER     JKOP   

              2       4        0.76       700     1000      520     2100   
                                         GEOM     BASIS   MCVARS     RHF  

 PROGRAMS   *        TOTAL   CCSD(T)    HF-SCF       INT
 CPU TIMES  *        34.93     30.93      2.11      1.78
 REAL TIME  *        45.05 SEC
 DISK USED  *       481.10 MB
 **********************************************************************************************************************************

 Dump information in style XML to xml output                                                                      

 Orbitals will not be exported.

 **********************************************************************************************************************************

 CCSD(T)/cc-pVTZ energy=   -599.302577674119

         CCSD(T)          HF-SCF
   -599.30257767   -598.60463749
 **********************************************************************************************************************************
 Molpro calculation terminated
