
 Working directory              : /var/folders/2v/xbgp75_9785319ghcgb4zr4r0000gp/T//molpro.sf7aOiwpsS/
 Global scratch directory       : /var/folders/2v/xbgp75_9785319ghcgb4zr4r0000gp/T//molpro.sf7aOiwpsS/
 Wavefunction directory         : /Users/sacpjk/wfu/
 Main file repository           : /var/folders/2v/xbgp75_9785319ghcgb4zr4r0000gp/T//molpro.sf7aOiwpsS/

 id        : peterk

 Nodes                        nprocs
 Cardiff-University-G34YLXT77Y    1
 GA implementation: MPI file
 GA implementation (serial work in mppx): MPI file

 Using customized tuning parameters: mindgm=1; mindgv=20; mindgc=4; mindgr=1; noblas=0; minvec=7
 default implementation of scratch files=df  


 Variables initialized (1032), CPU time= 0.00 sec
 
 symmetry,nosym
 
 
 geometry={
            3
     C          0.37482171      0.51783010      0.00000000
     N          0.37482171     -0.67052208      0.00000000
     H         -0.74964343      0.15269198      0.00000000
 }
 basis=cc-pVDZ
 
 
 
 hf; mp4
 
 
 
 {put,xml;noorbitals,nobasis}
 Commands initialized (841), CPU time= 0.01 sec, 704 directives.
 Default parameters read. Elapsed time= 0.06 sec

 Checking input...
 Passed
1


                                         ***  PROGRAM SYSTEM MOLPRO  ***
                                       Copyright, TTI GmbH Stuttgart, 2015
                                    Version 2023.1 linked Tue Jun  6 09:54:11 2023


 **********************************************************************************************************************************
 LABEL *                                                                                                                                                                 
  64 bit serial version                                                                  DATE: 09-Jun-23          TIME: 09:30:14  
 **********************************************************************************************************************************

 SHA1:             8ebb0dd001088a5c915591db1a321413035db0b1
 **********************************************************************************************************************************

 Memory per process:       805 MW
 Total memory per node:   1074 MW
 Total GA space:           268 MW

 GA preallocation disabled
 GA check enabled

 Variable memory set to 805.3 MW

 ZSYMEL=NOSYM


 Geometry recognized as XYZ

 SETTING BASIS          =    CC-PVDZ


 Recomputing integrals since basis changed


 Using spherical harmonics

 Library entry C      S cc-pVDZ              selected for orbital group  1
 Library entry C      P cc-pVDZ              selected for orbital group  1
 Library entry C      D cc-pVDZ              selected for orbital group  1
 Library entry N      S cc-pVDZ              selected for orbital group  2
 Library entry N      P cc-pVDZ              selected for orbital group  2
 Library entry N      D cc-pVDZ              selected for orbital group  2
 Library entry H      S cc-pVDZ              selected for orbital group  3
 Library entry H      P cc-pVDZ              selected for orbital group  3


 PROGRAM * SEWARD (Integral evaluation for generally contracted gaussian basis sets)     Author: Roland Lindh, 1990

 Geometry written to block  1 of record 700


 Point group  C1  



 ATOMIC COORDINATES

 NR  ATOM    CHARGE       X              Y              Z

   1  C       6.00    0.708310377    0.978557068    0.000000000
   2  N       7.00    0.708310377   -1.267103092    0.000000000
   3  H       1.00   -1.416620774    0.288546024    0.000000000

 Bond lengths in Bohr (Angstrom)

 1-2  2.245660160  1-3  2.234154793  2-3  2.633510313
     ( 1.188352180)     ( 1.182263802)     ( 1.393593642)

 Bond angles

  1-2-3   53.79236971   1-3-2   54.19736348   2-1-3   72.01026681

 NUCLEAR CHARGE:                   14
 NUMBER OF PRIMITIVE AOS:          61
 NUMBER OF SYMMETRY AOS:           59
 NUMBER OF CONTRACTIONS:           33   (   33A   )
 NUMBER OF INNER CORE ORBITALS:     0   (    0A   )
 NUMBER OF OUTER CORE ORBITALS:     2   (    2A   )
 NUMBER OF VALENCE ORBITALS:        9   (    9A   )


 NUCLEAR REPULSION ENERGY   24.04636942

 EXTRA SYMMETRY OF AOS IN SYMMETRY 1:   1 1 1 1 1 2 1 1 2 1   1 2 1 2 1 1 1 1 1 2   1 1 2 1 1 2 1 2 1 1   1 1 2

 Eigenvalues of metric

         1 0.659E-02 0.192E-01 0.533E-01 0.593E-01 0.109E+00 0.122E+00 0.128E+00 0.128E+00


 Contracted 2-electron integrals neglected if value below      1.0D-11
 AO integral compression algorithm  1   Integral accuracy      1.0D-11

     0.524 MB (compressed) written to integral file ( 41.8%)


 NUMBER OF SORTED TWO-ELECTRON INTEGRALS:     157641.     BUFFER LENGTH:  32768
 NUMBER OF SEGMENTS:   1  SEGMENT LENGTH:     157641      RECORD LENGTH: 524288

 Memory used in sort:       0.71 MW

 SORT1 READ      211834. AND WROTE       60892. INTEGRALS IN      1 RECORDS. CPU TIME:     0.00 SEC, REAL TIME:     0.00 SEC
 SORT2 READ       60892. AND WROTE      157641. INTEGRALS IN      2 RECORDS. CPU TIME:     0.01 SEC, REAL TIME:     0.01 SEC

 FILE SIZES:   FILE 1:    30.6 MBYTE,  FILE 4:     4.3 MBYTE,   TOTAL:     34.8 MBYTE

 OPERATOR DM      FOR CENTER  0  COORDINATES:    0.000000    0.000000    0.000000


 **********************************************************************************************************************************
 DATASETS  * FILE   NREC   LENGTH (MB)   RECORD NAMES
              1      19       29.02       500      610      700      900      950      970     1000      129      960     1100   
                                          VAR    BASINP    GEOM    SYMINP    ZMAT    AOBASIS   BASIS     P2S    ABASIS      S 
                                         1400     1410     1200     1210     1080     1600     1650     1300     1700   
                                           T        V       H0       H01     AOSYM     SMH    MOLCAS    ERIS     OPER   

 PROGRAMS   *        TOTAL       INT
 CPU TIMES  *         0.18      0.10
 REAL TIME  *         0.43 SEC
 DISK USED  *        33.57 MB
 **********************************************************************************************************************************


 Program * Restricted Hartree-Fock

 Orbital guess generated from atomic densities. Full valence occupancy:   11

 Initial occupancy:   7

 NELEC=   14   SYM=1   MS2= 0   THRE=1.0D-08   THRD=3.2D-06   THRG=3.2D-06  HFMA2=F  DIIS_START=2   DIIS_MAX=10   DIIS_INCORE=F

 Level shifts:    0.00 (CLOSED)    0.00 (OPEN)    0.30 (GAP_MIN)

 ITER           ETOT              DE          GRAD        DDIFF     DIIS  NEXP   TIME(IT)  TIME(TOT)  DIAG
   1      -92.78984082     -92.78984082     0.00D+00     0.20D+00     0     0       0.00      0.01    start
   2      -92.80521303      -0.01537221     0.75D-02     0.17D-01     1     0       0.00      0.01    diag
   3      -92.80714981      -0.00193677     0.22D-02     0.40D-02     2     0       0.00      0.01    diag
   4      -92.80784890      -0.00069909     0.10D-02     0.28D-02     3     0       0.00      0.01    diag
   5      -92.80807583      -0.00022693     0.63D-03     0.14D-02     4     0       0.00      0.01    diag
   6      -92.80816587      -0.00009004     0.30D-03     0.12D-02     5     0       0.00      0.01    diag
   7      -92.80817165      -0.00000578     0.80D-04     0.35D-03     6     0       0.00      0.01    diag
   8      -92.80817187      -0.00000022     0.19D-04     0.67D-04     7     0       0.00      0.01    fixocc
   9      -92.80817189      -0.00000001     0.48D-05     0.15D-04     8     0       0.00      0.01    diag
  10      -92.80817189      -0.00000000     0.13D-05     0.31D-05     9     0       0.01      0.02    diag/orth
  11      -92.80817189      -0.00000000     0.41D-06     0.82D-06     0     0       0.00      0.02    diag

 Final occupancy:   7

 !RHF STATE 1.1 Energy                -92.808171888843
  RHF One-electron energy            -172.490768454529
  RHF Two-electron energy              55.636227150458
  RHF Kinetic energy                   92.678770228560
  RHF Nuclear energy                   24.046369415229
  RHF Virial quotient                  -1.001396238426

 !RHF STATE 1.1 Dipole moment          -0.52711072     0.00906726     0.00000000
 Dipole moment /Debye                  -1.33978180     0.02304667     0.00000000

 Orbital energies:

           1.1          2.1          3.1          4.1          5.1          6.1          7.1          8.1          9.1
    -15.657819   -11.300059    -1.306842    -0.703245    -0.621805    -0.527488    -0.491900     0.116251     0.177170


 HOMO      7.1    -0.491900 =     -13.3853eV
 LUMO      8.1     0.116251 =       3.1633eV
 LUMO-HOMO         0.608150 =      16.5486eV

 Orbitals saved in record  2100.2


 **********************************************************************************************************************************
 DATASETS  * FILE   NREC   LENGTH (MB)   RECORD NAMES
              1      19       29.02       500      610      700      900      950      970     1000      129      960     1100   
                                          VAR    BASINP    GEOM    SYMINP    ZMAT    AOBASIS   BASIS     P2S    ABASIS      S 
                                         1400     1410     1200     1210     1080     1600     1650     1300     1700   
                                           T        V       H0       H01     AOSYM     SMH    MOLCAS    ERIS     OPER   

              2       4        0.43       700     1000      520     2100   
                                         GEOM     BASIS   MCVARS     RHF  

 PROGRAMS   *        TOTAL    HF-SCF       INT
 CPU TIMES  *         0.20      0.01      0.10
 REAL TIME  *         0.49 SEC
 DISK USED  *        33.57 MB
 **********************************************************************************************************************************


 PROGRAM * MP4 (Closed-shell)     Authors: C. Hampel, H.-J. Werner, 1991, M. Deegan, P.J. Knowles, 1992


 Convergence thresholds:  THRVAR = 1.00D-08  THRDEN = 1.00D-06

 MP4(T)     terms to be evaluated (factor= 0.000)


 Number of core orbitals:           2 (   2 )
 Number of closed-shell orbitals:   5 (   5 )
 Number of external orbitals:      26 (  26 )

 Molecular orbitals read from record     2100.2  Type=RHF/CANONICAL  

 Number of N-1 electron functions:               5
 Number of N-2 electron functions:              15
 Number of singly external CSFs:               130
 Number of doubly external CSFs:              8515
 Total number of CSFs:                        8646

 Length of J-op  integral file:               0.00 MB
 Length of K-op  integral file:               0.14 MB

 Memory could be reduced to 0.22 Mwords without degradation in triples

 Integral transformation finished. Total CPU:   0.00 sec, npass=  1  Memory used:   0.22 MW

 Reference energy:                    -92.80817189

                        CORR.ENERGY   TOTAL ENERGY   ENERGY CHANGE
 MP2:                   -0.27660298   -93.08477487    -0.27660298

 SCS-MP2 correlation energy:           -0.27021541   (PS=  1.200000  PT=  0.333333)
 SCS-MP2 total energy:                -93.07838730

 MP3(D):                -0.28434218   -93.09251407    -0.00773920
 MP4(DQ):               -0.28682053   -93.09499242    -0.00247836
 MP4(SDQ):              -0.29175155   -93.09992344    -0.00493102

 Norm of t1 vector:      0.06883171      S-energy:    -0.00493102      T1 diagnostic:  0.01539124


 Total CPU time for triples:      0.01 sec


 RESULTS
 =======

  Reference energy                    -92.808171888843
  MP4(SDQ) singlet pair energy         -0.189245228645
  MP4(SDQ) triplet pair energy         -0.097575304601
  MP4(SDQ) correlation energy          -0.291751549294

  Triples contribution                 -0.013169306611
  Total correlation energy             -0.304920855905

  MP4(SDQ) total energy               -93.099923438137
 !MP4(SDTQ) total energy              -93.113092744748

 Timing summary (sec):

 STEP                 CPU(USER)    SYS     CPU(TOT)    WALL
 CCSD iterations         0.30      0.00      0.30      0.05
 Triples                 0.01      0.00      0.01      0.01

 Program statistics:

 Available memory in ccsd:               805306261
 Min. memory needed in ccsd:                 40095
 Max. memory used in ccsd:                   44920
 Max. memory used in cckext:                 72608 ( 1 integral passes)



 **********************************************************************************************************************************
 DATASETS  * FILE   NREC   LENGTH (MB)   RECORD NAMES
              1      20       29.58       500      610      700      900      950      970     1000      129      960     1100   
                                          VAR    BASINP    GEOM    SYMINP    ZMAT    AOBASIS   BASIS     P2S    ABASIS      S 
                                         1400     1410     1200     1210     1080     1600     1650     1300     1700     1380   
                                           T        V       H0       H01     AOSYM     SMH    MOLCAS    ERIS     OPER     JKOP   

              2       4        0.43       700     1000      520     2100   
                                         GEOM     BASIS   MCVARS     RHF  

 PROGRAMS   *        TOTAL       MP4    HF-SCF       INT
 CPU TIMES  *         0.24      0.05      0.01      0.10
 REAL TIME  *         0.59 SEC
 DISK USED  *        33.57 MB
 **********************************************************************************************************************************

 Dump information in style XML to xml output                                                                      

 Orbitals will not be exported.

 **********************************************************************************************************************************

 MP4/cc-pVDZ energy=    -93.113092744748

             MP4          HF-SCF
    -93.11309274    -92.80817189
 **********************************************************************************************************************************
 Molpro calculation terminated
