
 Working directory              : /var/folders/2v/xbgp75_9785319ghcgb4zr4r0000gp/T//molpro.h8SHOwgzkk/
 Global scratch directory       : /var/folders/2v/xbgp75_9785319ghcgb4zr4r0000gp/T//molpro.h8SHOwgzkk/
 Wavefunction directory         : /Users/sacpjk/wfu/
 Main file repository           : /var/folders/2v/xbgp75_9785319ghcgb4zr4r0000gp/T//molpro.h8SHOwgzkk/

 id        : peterk

 Nodes                        nprocs
 Cardiff-University-G34YLXT77Y    1
 GA implementation: MPI file
 GA implementation (serial work in mppx): MPI file

 Using customized tuning parameters: mindgm=1; mindgv=20; mindgc=4; mindgr=1; noblas=0; minvec=7
 default implementation of scratch files=df  


 Variables initialized (1032), CPU time= 0.00 sec
 
 symmetry,nosym
 
 
 geometry={
            6
     CL         0.00000000      0.00000000     -2.21807245
     C          0.00000000      0.00000000     -0.39966597
     H         -0.51253198      0.88773143     -0.05771428
     H         -0.51253198     -0.88773143     -0.05771428
     H          1.02506396      0.00000000     -0.05771428
     CL         0.00000000      0.00000000      2.79088125
 }
 basis=cc-pVDZ
 
 charge=-1
 
 hf; hf; papt; mp4
 
 
 
 {put,xml;noorbitals,nobasis}
 Commands initialized (841), CPU time= 0.00 sec, 704 directives.
 Default parameters read. Elapsed time= 0.12 sec

 Checking input...
 Passed
1


                                         ***  PROGRAM SYSTEM MOLPRO  ***
                                       Copyright, TTI GmbH Stuttgart, 2015
                                    Version 2023.1 linked Tue Jun  6 09:54:11 2023


 **********************************************************************************************************************************
 LABEL *                                                                                                                                                                 
  64 bit serial version                                                                  DATE: 09-Jun-23          TIME: 16:43:33  
 **********************************************************************************************************************************

 SHA1:             8ebb0dd001088a5c915591db1a321413035db0b1
 **********************************************************************************************************************************

 Memory per process:       805 MW
 Total memory per node:   1074 MW
 Total GA space:           268 MW

 GA preallocation disabled
 GA check enabled

 Variable memory set to 805.3 MW

 ZSYMEL=NOSYM


 Geometry recognized as XYZ

 SETTING BASIS          =    CC-PVDZ
 SETTING CHARGE         =        -1.00000000                                  


 Recomputing integrals since basis changed


 Using spherical harmonics

 Library entry CL     S cc-pVDZ              selected for orbital group  1
 Library entry CL     P cc-pVDZ              selected for orbital group  1
 Library entry CL     D cc-pVDZ              selected for orbital group  1
 Library entry C      S cc-pVDZ              selected for orbital group  2
 Library entry C      P cc-pVDZ              selected for orbital group  2
 Library entry C      D cc-pVDZ              selected for orbital group  2
 Library entry H      S cc-pVDZ              selected for orbital group  3
 Library entry H      P cc-pVDZ              selected for orbital group  3


 PROGRAM * SEWARD (Integral evaluation for generally contracted gaussian basis sets)     Author: Roland Lindh, 1990

 Geometry written to block  1 of record 700


 Point group  C1  



 ATOMIC COORDINATES

 NR  ATOM    CHARGE       X              Y              Z

   1  CL     17.00    0.000000000    0.000000000   -4.191549455
   2  C       6.00    0.000000000    0.000000000   -0.755259225
   3  H       1.00   -0.968545072    1.677569275   -0.109064183
   4  H       1.00   -0.968545072   -1.677569275   -0.109064183
   5  H       1.00    1.937090145    0.000000000   -0.109064183
   6  CL     17.00    0.000000000    0.000000000    5.274001209

 Bond lengths in Bohr (Angstrom)

 1-2  3.436290230  2-3  2.042029936  2-4  2.042029936  2-5  2.042029936
     ( 1.818406480)     ( 1.080595706)     ( 1.080595706)     ( 1.080595706)

 Bond angles

  1-2-3  108.44821349   1-2-4  108.44821349   1-2-5  108.44821349   3-2-4  110.47456744

  3-2-5  110.47456743   4-2-5  110.47456743

 NUCLEAR CHARGE:                   43
 NUMBER OF PRIMITIVE AOS:         132
 NUMBER OF SYMMETRY AOS:          129
 NUMBER OF CONTRACTIONS:           65   (   65A   )
 NUMBER OF INNER CORE ORBITALS:     2   (    2A   )
 NUMBER OF OUTER CORE ORBITALS:     9   (    9A   )
 NUMBER OF VALENCE ORBITALS:       15   (   15A   )


 NUCLEAR REPULSION ENERGY  107.04222592


 Eigenvalues of metric

         1 0.843E-02 0.178E-01 0.313E-01 0.358E-01 0.358E-01 0.453E-01 0.483E-01 0.483E-01


 Contracted 2-electron integrals neglected if value below      1.0D-11
 AO integral compression algorithm  1   Integral accuracy      1.0D-11

     7.078 MB (compressed) written to integral file ( 30.5%)


 NUMBER OF SORTED TWO-ELECTRON INTEGRALS:    2301585.     BUFFER LENGTH:  32768
 NUMBER OF SEGMENTS:   1  SEGMENT LENGTH:    2301585      RECORD LENGTH: 524288

 Memory used in sort:       2.86 MW

 SORT1 READ     2859290. AND WROTE     1413722. INTEGRALS IN      5 RECORDS. CPU TIME:     0.01 SEC, REAL TIME:     0.02 SEC
 SORT2 READ     1413722. AND WROTE     2301585. INTEGRALS IN     27 RECORDS. CPU TIME:     0.04 SEC, REAL TIME:     0.04 SEC

 FILE SIZES:   FILE 1:    37.3 MBYTE,  FILE 4:    21.0 MBYTE,   TOTAL:     58.4 MBYTE

 OPERATOR DM      FOR CENTER  0  COORDINATES:    0.000000    0.000000    0.000000


 **********************************************************************************************************************************
 DATASETS  * FILE   NREC   LENGTH (MB)   RECORD NAMES
              1      19       34.17       500      610      700      900      950      970     1000      129      960     1100   
                                          VAR    BASINP    GEOM    SYMINP    ZMAT    AOBASIS   BASIS     P2S    ABASIS      S 
                                         1400     1410     1200     1210     1080     1600     1650     1300     1700   
                                           T        V       H0       H01     AOSYM     SMH    MOLCAS    ERIS     OPER   

 PROGRAMS   *        TOTAL       INT
 CPU TIMES  *         0.35      0.27
 REAL TIME  *         2.40 SEC
 DISK USED  *        56.07 MB
 **********************************************************************************************************************************


 Program * Restricted Hartree-Fock

 Orbital guess generated from atomic densities. Full valence occupancy:   26

 Initial occupancy:  22

 NELEC=   44   SYM=1   MS2= 0   THRE=1.0D-08   THRD=3.2D-06   THRG=3.2D-06  HFMA2=F  DIIS_START=2   DIIS_MAX=10   DIIS_INCORE=F

 Level shifts:    0.00 (CLOSED)    0.00 (OPEN)    0.30 (GAP_MIN)

 ITER           ETOT              DE          GRAD        DDIFF     DIIS  NEXP   TIME(IT)  TIME(TOT)  DIAG
   1     -958.62693547    -958.62693547     0.00D+00     0.20D+00     0     0       0.01      0.02    start
   2     -958.67358539      -0.04664992     0.63D-02     0.26D-01     1     0       0.02      0.04    diag
   3     -958.67830208      -0.00471669     0.21D-02     0.58D-02     2     0       0.01      0.05    diag
   4     -958.67863042      -0.00032834     0.43D-03     0.15D-02     3     0       0.01      0.06    diag
   5     -958.67865368      -0.00002326     0.12D-03     0.31D-03     4     0       0.01      0.07    diag
   6     -958.67865597      -0.00000229     0.37D-04     0.13D-03     5     0       0.01      0.08    diag
   7     -958.67865614      -0.00000018     0.75D-05     0.34D-04     6     0       0.01      0.09    diag
   8     -958.67865615      -0.00000001     0.18D-05     0.77D-05     7     0       0.01      0.10    fixocc
   9     -958.67865615      -0.00000000     0.34D-06     0.15D-05     8     0       0.01      0.11    diag
  10     -958.67865615      -0.00000000     0.52D-07     0.20D-06     0     0       0.02      0.13    diag/orth

 Final occupancy:  22

 !RHF STATE 1.1 Energy               -958.678656153383
  RHF One-electron energy           -1546.589571969488
  RHF Two-electron energy             480.868689894397
  RHF Kinetic energy                  958.714576716176
  RHF Nuclear energy                  107.042225921708
  RHF Virial quotient                  -0.999962532579

 !RHF STATE 1.1 Dipole moment          -0.00000000     0.00000000    -3.61532484
 Dipole moment /Debye                  -0.00000000     0.00000000    -9.18923916

 Orbital energies:

           1.1          2.1          3.1          4.1          5.1          6.1          7.1          8.1          9.1         10.1
   -104.682836  -104.489251   -11.145137   -10.409760   -10.210598    -7.877228    -7.874284    -7.874284    -7.676912    -7.676762

          11.1         12.1         13.1         14.1         15.1         16.1         17.1         18.1         19.1         20.1
     -7.676762    -0.982447    -0.768844    -0.722821    -0.463907    -0.463907    -0.396649    -0.302430    -0.302430    -0.143001

          21.1         22.1         23.1         24.1
     -0.142917    -0.142917     0.334416     0.366863


 HOMO     22.1    -0.142917 =      -3.8890eV
 LUMO     23.1     0.334416 =       9.0999eV
 LUMO-HOMO         0.477333 =      12.9889eV

 Orbitals saved in record  2100.2


 **********************************************************************************************************************************
 DATASETS  * FILE   NREC   LENGTH (MB)   RECORD NAMES
              1      19       34.17       500      610      700      900      950      970     1000      129      960     1100   
                                          VAR    BASINP    GEOM    SYMINP    ZMAT    AOBASIS   BASIS     P2S    ABASIS      S 
                                         1400     1410     1200     1210     1080     1600     1650     1300     1700   
                                           T        V       H0       H01     AOSYM     SMH    MOLCAS    ERIS     OPER   

              2       4        0.53       700     1000      520     2100   
                                         GEOM     BASIS   MCVARS     RHF  

 PROGRAMS   *        TOTAL    HF-SCF       INT
 CPU TIMES  *         0.48      0.12      0.27
 REAL TIME  *         2.78 SEC
 DISK USED  *        56.07 MB
 **********************************************************************************************************************************


 Program * Restricted Hartree-Fock

 Molecular orbitals read from record     2100.2  Type=RHF/CANONICAL  

 Initial occupancy:  22

 NELEC=   44   SYM=1   MS2= 0   THRE=1.0D-08   THRD=3.2D-06   THRG=3.2D-06  HFMA2=F  DIIS_START=2   DIIS_MAX=10   DIIS_INCORE=F

 Level shifts:    0.00 (CLOSED)    0.00 (OPEN)    0.30 (GAP_MIN)

 ITER           ETOT              DE          GRAD        DDIFF     DIIS  NEXP   TIME(IT)  TIME(TOT)  DIAG
   1     -958.67865615    -958.67865615     0.00D+00     0.19D+00     0     0       0.01      0.01    start
   2     -958.67865615      -0.00000000     0.17D-07     0.57D-07     1     0       0.01      0.02    diag

 Final occupancy:  22

 !RHF STATE 1.1 Energy               -958.678656153383
  RHF One-electron energy           -1546.589579400690
  RHF Two-electron energy             480.868697325599
  RHF Kinetic energy                  958.714582019729
  RHF Nuclear energy                  107.042225921708
  RHF Virial quotient                  -0.999962527047

 !RHF STATE 1.1 Dipole moment          -0.00000000     0.00000000    -3.61532311
 Dipole moment /Debye                  -0.00000000     0.00000000    -9.18923476

 Orbital energies:

           1.1          2.1          3.1          4.1          5.1          6.1          7.1          8.1          9.1         10.1
   -104.682838  -104.489252   -11.145136   -10.409761   -10.210598    -7.877230    -7.874286    -7.874286    -7.676913    -7.676763

          11.1         12.1         13.1         14.1         15.1         16.1         17.1         18.1         19.1         20.1
     -7.676763    -0.982447    -0.768844    -0.722821    -0.463907    -0.463907    -0.396649    -0.302430    -0.302430    -0.143001

          21.1         22.1         23.1         24.1
     -0.142917    -0.142917     0.334416     0.366863


 HOMO     22.1    -0.142917 =      -3.8890eV
 LUMO     23.1     0.334416 =       9.0999eV
 LUMO-HOMO         0.477333 =      12.9889eV

 Orbitals saved in record  2101.2


 **********************************************************************************************************************************
 DATASETS  * FILE   NREC   LENGTH (MB)   RECORD NAMES
              1      19       34.17       500      610      700      900      950      970     1000      129      960     1100   
                                          VAR    BASINP    GEOM    SYMINP    ZMAT    AOBASIS   BASIS     P2S    ABASIS      S 
                                         1400     1410     1200     1210     1080     1600     1650     1300     1700   
                                           T        V       H0       H01     AOSYM     SMH    MOLCAS    ERIS     OPER   

              2       5        0.75       700     1000      520     2100     2101   
                                         GEOM     BASIS   MCVARS     RHF      RHF  

 PROGRAMS   *        TOTAL    HF-SCF    HF-SCF       INT
 CPU TIMES  *         0.51      0.04      0.12      0.27
 REAL TIME  *         2.97 SEC
 DISK USED  *        56.07 MB
 **********************************************************************************************************************************


 PROGRAM * PAPT (Closed-shell)     Authors: C. Hampel, H.-J. Werner, 1991, P.J. Knowles, 2021


 Convergence thresholds:  THRVAR = 1.00D-08  THRDEN = 1.00D-06

 Number of core orbitals:          11 (  11 )
 Number of closed-shell orbitals:  11 (  11 )
 Number of external orbitals:      43 (  43 )

 Molecular orbitals read from record     2101.2  Type=RHF/CANONICAL  

 Number of N-1 electron functions:              11
 Number of N-2 electron functions:              66
 Number of singly external CSFs:               473
 Number of doubly external CSFs:            112101
 Total number of CSFs:                      112575

 Length of J-op  integral file:               0.00 MB
 Length of K-op  integral file:               0.35 MB

 Integral transformation finished. Total CPU:   0.02 sec, npass=  1  Memory used:   0.60 MW

 Reference energy:                   -958.67865615

                        CORR.ENERGY   TOTAL ENERGY   ENERGY CHANGE
 MP2:                   -0.42104356  -959.09969972    -0.42104356

 SCS-MP2 correlation energy:           -0.41421855   (PS=  1.200000  PT=  0.333333)
 SCS-MP2 total energy:               -959.09287470
 Iteration:   1     0.1954D+00
 Iteration:   2     0.1256D+01
 Iteration:   3     0.9700D-01
 Iteration:   4     0.1602D+00
 Iteration:   5     0.2200D+00
 Iteration:   6     0.1477D+00
 Iteration:   7     0.2682D+00
 Iteration:   8     0.8569D-01
 Iteration:   9     0.1047D+01
 Iteration:  10     0.1749D-01
 Iteration:  11     0.2599D-01
 Iteration:  12     0.9001D-02
 Iteration:  13     0.3600D-02
 Iteration:  14     0.1003D-01
 Iteration:  15     0.1767D-02
 Iteration:  16     0.2127D-02
 Iteration:  17     0.1088D-02
 Iteration:  18     0.3434D-03
 Iteration:  19     0.1215D-02
 Iteration:  20     0.8848D-04
 PAPT operator written to  7000.1
 PAPT orbitals and eigenvalues written to  7000.2

 MP3(D):                -0.45935341  -959.13800957    -0.03830985



 RESULTS
 =======

  Reference energy                   -958.678656153384
  MP3 singlet pair energy              -0.302655852128
  MP3 triplet pair energy              -0.156697560283
  MP3 correlation energy               -0.459353412411

 !MP3 total energy                   -959.138009565795

 Timing summary (sec):

 STEP                 CPU(USER)    SYS     CPU(TOT)    WALL
 Transformation          0.03      0.01      0.04      0.05
 CCSD iterations         0.99      0.04      1.03      1.26

 Program statistics:

 Available memory in ccsd:               805305862
 Min. memory needed in ccsd:                371577
 Max. memory used in ccsd:                  447609
 Max. memory used in cckext:                632266 ( 1 integral passes)



 **********************************************************************************************************************************
 DATASETS  * FILE   NREC   LENGTH (MB)   RECORD NAMES
              1      21       37.46       500      610      700      900      950      970     1000      129      960     1100   
                                          VAR    BASINP    GEOM    SYMINP    ZMAT    AOBASIS   BASIS     P2S    ABASIS      S 
                                         1400     1410     1200     1210     1080     1600     1650     1300     1700     1380   
                                           T        V       H0       H01     AOSYM     SMH    MOLCAS    ERIS     OPER     JKOP   
                                         7000   
                                        PAPT AO    

              2       6        0.94       700     1000      520     2100     2101     7000   
                                         GEOM     BASIS   MCVARS     RHF      RHF     PAPT   

 PROGRAMS   *        TOTAL      PAPT    HF-SCF    HF-SCF       INT
 CPU TIMES  *         0.94      0.43      0.04      0.12      0.27
 REAL TIME  *         4.42 SEC
 DISK USED  *        56.07 MB
 **********************************************************************************************************************************


 PROGRAM * MP4 (Closed-shell)     Authors: C. Hampel, H.-J. Werner, 1991, M. Deegan, P.J. Knowles, 1992


 Convergence thresholds:  THRVAR = 1.00D-08  THRDEN = 1.00D-06

 MP4(T)     terms to be evaluated (factor= 0.000)


 Number of core orbitals:          11 (  11 )
 Number of closed-shell orbitals:  11 (  11 )
 Number of external orbitals:      43 (  43 )

 Molecular orbitals read from record     7000.2  Type=PAPT/CANONICAL (state 1.1)

 Number of N-1 electron functions:              11
 Number of N-2 electron functions:              66
 Number of singly external CSFs:               473
 Number of doubly external CSFs:            112101
 Total number of CSFs:                      112575

 Length of J-op  integral file:               0.00 MB
 Length of K-op  integral file:               0.35 MB

 Memory could be reduced to 1.45 Mwords without degradation in triples

 Integral transformation finished. Total CPU:   0.05 sec, npass=  1  Memory used:   2.27 MW
 Orbital energies read from record       7000.2  Type=PAPT/CANONICAL (state 1.1)

 Reference energy:                   -958.67865615

                        CORR.ENERGY   TOTAL ENERGY   ENERGY CHANGE
 MP2:                   -0.46491136  -959.14356752    -0.46491136

 SCS-MP2 correlation energy:           -0.45916332   (PS=  1.200000  PT=  0.333333)
 SCS-MP2 total energy:               -959.13781947

 MP3(D):                -0.46502536  -959.14368151    -0.00011399
 MP4(DQ):               -0.46026233  -959.13891848     0.00476303
 MP4(SDQ):              -0.46220923  -959.14086539    -0.00194690

 Norm of t1 vector:      0.04098591      S-energy:    -0.00194690      T1 diagnostic:  0.00617886

 Largest off-diagonal element in interal  block of Fock matrix:  0.72D-01
 Largest off-diagonal element in external block of Fock matrix:  0.19D+00


 Total CPU time for triples:      0.33 sec


 RESULTS
 =======

  Reference energy                   -958.678656153384
  MP4(SDQ) singlet pair energy         -0.305644491322
  MP4(SDQ) triplet pair energy         -0.154617836475
  MP4(SDQ) correlation energy          -0.462209232258

  Triples contribution                 -0.010107489618
  Total correlation energy             -0.472316721876

  MP4(SDQ) total energy              -959.140865385642
 !MP4(SDTQ) total energy             -959.150972875259

 Timing summary (sec):

 STEP                 CPU(USER)    SYS     CPU(TOT)    WALL
 Transformation          0.07      0.01      0.08      0.23
 CCSD iterations         1.21      0.02      1.23      0.32
 Triples                 0.33      0.04      0.37      0.42

 Program statistics:

 Available memory in ccsd:               805305862
 Min. memory needed in ccsd:                371577
 Max. memory used in ccsd:                  447609
 Max. memory used in cckext:                632266 ( 1 integral passes)



 **********************************************************************************************************************************
 DATASETS  * FILE   NREC   LENGTH (MB)   RECORD NAMES
              1      22       40.88       500      610      700      900      950      970     1000      129      960     1100   
                                          VAR    BASINP    GEOM    SYMINP    ZMAT    AOBASIS   BASIS     P2S    ABASIS      S 
                                         1400     1410     1200     1210     1080     1600     1650     1300     1700     1380   
                                           T        V       H0       H01     AOSYM     SMH    MOLCAS    ERIS     OPER     JKOP   
                                         7000     1380(1)
                                        PAPT AO   JKOP   

              2       6        0.94       700     1000      520     2100     2101     7000   
                                         GEOM     BASIS   MCVARS     RHF      RHF     PAPT   

 PROGRAMS   *        TOTAL       MP4      PAPT    HF-SCF    HF-SCF       INT
 CPU TIMES  *         1.53      0.59      0.43      0.04      0.12      0.27
 REAL TIME  *         5.56 SEC
 DISK USED  *        56.45 MB
 **********************************************************************************************************************************

 Dump information in style XML to xml output                                                                      

 Orbitals will not be exported.

 **********************************************************************************************************************************

 MP4/cc-pVDZ energy=   -959.150972875259

             MP4            PAPT          HF-SCF          HF-SCF
   -959.15097288   -959.13800957   -958.67865615   -958.67865615
 **********************************************************************************************************************************
 Molpro calculation terminated
