
 Working directory              : /var/folders/2v/xbgp75_9785319ghcgb4zr4r0000gp/T//molpro.daol7427Dt/
 Global scratch directory       : /var/folders/2v/xbgp75_9785319ghcgb4zr4r0000gp/T//molpro.daol7427Dt/
 Wavefunction directory         : /Users/sacpjk/wfu/
 Main file repository           : /var/folders/2v/xbgp75_9785319ghcgb4zr4r0000gp/T//molpro.daol7427Dt/

 id        : peterk

 Nodes                        nprocs
 Cardiff-University-G34YLXT77Y    1
 GA implementation: MPI file
 GA implementation (serial work in mppx): MPI file

 Using customized tuning parameters: mindgm=1; mindgv=20; mindgc=4; mindgr=1; noblas=0; minvec=7
 default implementation of scratch files=df  


 Variables initialized (1032), CPU time= 0.01 sec
 
 symmetry,nosym
 
 
 geometry={
           11
     O         -2.19295200      0.62684476     -0.92850834
     S         -1.26210570     -0.30855216     -0.04450021
     O         -1.03795246      0.29959206      1.25082562
     O         -1.75626085     -1.63296059     -0.19472255
     O          0.11654403     -0.10789624     -0.91318750
     S          1.60009692     -0.36655700     -0.13981114
     O          1.61686029      0.86635260      0.85542567
     O          1.49345586     -1.60323615      0.57240287
     O          2.55438785     -0.10150256     -1.16106689
     H         -1.97235642      1.56419594     -0.75763447
     H          0.84028248      0.76371933      1.46077695
 }
 basis=cc-pVDZ
 
 
 
 hf; hf; papt; mp2
 
 
 
 {put,xml;noorbitals,nobasis}
 Commands initialized (841), CPU time= 0.00 sec, 704 directives.
 Default parameters read. Elapsed time= 1.65 sec

 Checking input...
 Passed
1


                                         ***  PROGRAM SYSTEM MOLPRO  ***
                                       Copyright, TTI GmbH Stuttgart, 2015
                                    Version 2023.1 linked Tue Jun  6 09:54:11 2023


 **********************************************************************************************************************************
 LABEL *                                                                                                                                                                 
  64 bit serial version                                                                  DATE: 13-Jun-23          TIME: 06:10:57  
 **********************************************************************************************************************************

 SHA1:             8ebb0dd001088a5c915591db1a321413035db0b1
 **********************************************************************************************************************************

 Memory per process:       393 MW
 Total memory per node:    524 MW
 Total GA space:           131 MW

 GA preallocation disabled
 GA check enabled

 Variable memory set to 393.2 MW

 ZSYMEL=NOSYM


 Geometry recognized as XYZ

 SETTING BASIS          =    CC-PVDZ


 Recomputing integrals since basis changed


 Using spherical harmonics

 Library entry O      S cc-pVDZ              selected for orbital group  1
 Library entry O      P cc-pVDZ              selected for orbital group  1
 Library entry O      D cc-pVDZ              selected for orbital group  1
 Library entry S      S cc-pVDZ              selected for orbital group  2
 Library entry S      P cc-pVDZ              selected for orbital group  2
 Library entry S      D cc-pVDZ              selected for orbital group  2
 Library entry H      S cc-pVDZ              selected for orbital group  6
 Library entry H      P cc-pVDZ              selected for orbital group  6


 PROGRAM * SEWARD (Integral evaluation for generally contracted gaussian basis sets)     Author: Roland Lindh, 1990

 Geometry written to block  1 of record 700


 Point group  C1  



 ATOMIC COORDINATES

 NR  ATOM    CHARGE       X              Y              Z

   1  O       8.00   -4.144078684    1.184564919   -1.754626467
   2  S      16.00   -2.385034113   -0.583079078   -0.084093209
   3  O       8.00   -1.961445880    0.566146943    2.363717851
   4  O       8.00   -3.318852010   -3.085848287   -0.367972290
   5  O       8.00    0.220236298   -0.203894343   -1.725674275
   6  S      16.00    3.023744952   -0.692692339   -0.264204764
   7  O       8.00    3.055423130    1.637169141    1.616520236
   8  O       8.00    2.822222555   -3.029677237    1.081684657
   9  O       8.00    4.827093453   -0.191812039   -2.194098434
  10  H       1.00   -3.727213454    2.955901932   -1.431721651
  11  H       1.00    1.587903755    1.443220370    2.760468365

 Bond lengths in Bohr (Angstrom)

  1- 2  3.001580328   1-10  1.848155554   2- 3  2.737138365   2- 4  2.686346388   2- 5  3.102580116
       ( 1.588367906)       ( 0.978001802)       ( 1.448431246)       ( 1.421553289)       ( 1.641814692)

 2-6  5.412887050  5-6  3.199136975  6-7  2.994392184  6-8  2.704353531  6-9  2.688389196
     ( 2.864376472)     ( 1.692910382)     ( 1.584564104)     ( 1.431082259)     ( 1.422634297)

  7-11  1.870787685
       ( 0.989978210)

 Bond angles

  1-2-3  109.94723542   1-2-4  106.62641068   1-2-5   97.21875131   1-2-6  125.38032811

  2- 1-10  109.57265543   2- 5- 6  118.39072900   2- 6- 5   30.28121818   2- 6- 7   88.50530516

  2-6-8   85.78371770   2-6-9  133.66146713   3-2-4  122.64769827   3-2-5  106.97229686

  3-2-6   83.31684828   4-2-5  110.47805244   4-2-6  108.96373749   5-2-6   31.32805283

  5- 6- 7  100.21350724   5- 6- 8  107.10278265   5- 6- 9  103.38109508   6- 7-11  107.16329088

  7-6-8  111.13618470   7-6-9  107.38646288   8-6-9  124.62837059

 NUCLEAR CHARGE:                   90
 NUMBER OF PRIMITIVE AOS:         287
 NUMBER OF SYMMETRY AOS:          278
 NUMBER OF CONTRACTIONS:          144   (  144A   )
 NUMBER OF INNER CORE ORBITALS:     2   (    2A   )
 NUMBER OF OUTER CORE ORBITALS:    15   (   15A   )
 NUMBER OF VALENCE ORBITALS:       38   (   38A   )


 NUCLEAR REPULSION ENERGY  801.24706141


 Eigenvalues of metric

         1 0.448E-02 0.604E-02 0.106E-01 0.115E-01 0.140E-01 0.145E-01 0.156E-01 0.190E-01


 Contracted 2-electron integrals neglected if value below      1.0D-11
 AO integral compression algorithm  1   Integral accuracy      1.0D-11

     187.695 MB (compressed) written to integral file ( 40.8%)


 NUMBER OF SORTED TWO-ELECTRON INTEGRALS:   54502020.     BUFFER LENGTH:  32768
 NUMBER OF SEGMENTS:   4  SEGMENT LENGTH:   15999503      RECORD LENGTH: 524288

 Memory used in sort:      16.56 MW

 SORT1 READ    57443060. AND WROTE    47940785. INTEGRALS IN    139 RECORDS. CPU TIME:     0.38 SEC, REAL TIME:     0.50 SEC
 SORT2 READ    47940785. AND WROTE    54502020. INTEGRALS IN    716 RECORDS. CPU TIME:     0.40 SEC, REAL TIME:     0.49 SEC

 FILE SIZES:   FILE 1:   218.7 MBYTE,  FILE 4:   583.1 MBYTE,   TOTAL:    801.7 MBYTE

 OPERATOR DM      FOR CENTER  0  COORDINATES:    0.000000    0.000000    0.000000


 **********************************************************************************************************************************
 DATASETS  * FILE   NREC   LENGTH (MB)   RECORD NAMES
              1      19      187.22       500      610      700      900      950      970     1000      129      960     1100   
                                          VAR    BASINP    GEOM    SYMINP    ZMAT    AOBASIS   BASIS     P2S    ABASIS      S 
                                         1400     1410     1200     1210     1080     1600     1650     1300     1700   
                                           T        V       H0       H01     AOSYM     SMH    MOLCAS    ERIS     OPER   

 PROGRAMS   *        TOTAL       INT
 CPU TIMES  *         2.77      2.68
 REAL TIME  *         6.32 SEC
 DISK USED  *       765.12 MB
 **********************************************************************************************************************************


 Program * Restricted Hartree-Fock

 Orbital guess generated from atomic densities. Full valence occupancy:   55

 Initial occupancy:  45

 NELEC=   90   SYM=1   MS2= 0   THRE=1.0D-08   THRD=3.2D-06   THRG=3.2D-06  HFMA2=F  DIIS_START=2   DIIS_MAX=10   DIIS_INCORE=F

 Level shifts:    0.00 (CLOSED)    0.00 (OPEN)    0.30 (GAP_MIN)

 ITER           ETOT              DE          GRAD        DDIFF     DIIS  NEXP   TIME(IT)  TIME(TOT)  DIAG
   1    -1319.65817001   -1319.65817001     0.00D+00     0.12D+00     0     0       0.25      0.48    start
   2    -1319.87069411      -0.21252410     0.11D-01     0.35D-01     1     0       0.26      0.74    diag
   3    -1320.06215760      -0.19146349     0.76D-02     0.14D-01     2     0       0.26      1.00    diag
   4    -1320.06502987      -0.00287227     0.90D-03     0.17D-02     3     0       0.26      1.26    diag
   5    -1320.06550858      -0.00047871     0.33D-03     0.75D-03     4     0       0.26      1.52    diag
   6    -1320.06554495      -0.00003637     0.79D-04     0.18D-03     5     0       0.26      1.78    diag
   7    -1320.06554927      -0.00000432     0.22D-04     0.62D-04     6     0       0.25      2.03    diag
   8    -1320.06554971      -0.00000043     0.84D-05     0.19D-04     7     0       0.26      2.29    fixocc
   9    -1320.06554976      -0.00000005     0.28D-05     0.62D-05     8     0       0.26      2.55    diag
  10    -1320.06554976      -0.00000001     0.73D-06     0.20D-05     9     0       0.26      2.81    diag/orth
  11    -1320.06554976      -0.00000000     0.25D-06     0.58D-06     0     0       0.26      3.07    diag

 Final occupancy:  45

 !RHF STATE 1.1 Energy              -1320.065549762967
  RHF One-electron energy           -3413.577346812053
  RHF Two-electron energy            1292.264735635540
  RHF Kinetic energy                 1319.337763097587
  RHF Nuclear energy                  801.247061413546
  RHF Virial quotient                  -1.000551630284

 !RHF STATE 1.1 Dipole moment          -0.73260259     1.62915394     0.27859426
 Dipole moment /Debye                  -1.86209005     4.14089629     0.70811598

 Orbital energies:

           1.1          2.1          3.1          4.1          5.1          6.1          7.1          8.1          9.1         10.1
    -92.338282   -92.328211   -20.700888   -20.695038   -20.682906   -20.636414   -20.621558   -20.621052   -20.616026    -9.303233

          11.1         12.1         13.1         14.1         15.1         16.1         17.1         18.1         19.1         20.1
     -9.293053    -6.988283    -6.987984    -6.987907    -6.978084    -6.977766    -6.977491    -1.620085    -1.577317    -1.462845

          21.1         22.1         23.1         24.1         25.1         26.1         27.1         28.1         29.1         30.1
     -1.456430    -1.440682    -1.432128    -1.425189    -1.002287    -0.925143    -0.859712    -0.816289    -0.788871    -0.763835

          31.1         32.1         33.1         34.1         35.1         36.1         37.1         38.1         39.1         40.1
     -0.757413    -0.718403    -0.692185    -0.687251    -0.647852    -0.640440    -0.605811    -0.597294    -0.582084    -0.570056

          41.1         42.1         43.1         44.1         45.1         46.1         47.1
     -0.558903    -0.555329    -0.544273    -0.534185    -0.527468     0.119885     0.157001


 HOMO     45.1    -0.527468 =     -14.3531eV
 LUMO     46.1     0.119885 =       3.2622eV
 LUMO-HOMO         0.647353 =      17.6154eV

 Orbitals saved in record  2100.2


 **********************************************************************************************************************************
 DATASETS  * FILE   NREC   LENGTH (MB)   RECORD NAMES
              1      19      187.22       500      610      700      900      950      970     1000      129      960     1100   
                                          VAR    BASINP    GEOM    SYMINP    ZMAT    AOBASIS   BASIS     P2S    ABASIS      S 
                                         1400     1410     1200     1210     1080     1600     1650     1300     1700   
                                           T        V       H0       H01     AOSYM     SMH    MOLCAS    ERIS     OPER   

              2       4        0.88       700     1000      520     2100   
                                         GEOM     BASIS   MCVARS     RHF  

 PROGRAMS   *        TOTAL    HF-SCF       INT
 CPU TIMES  *         5.84      3.07      2.68
 REAL TIME  *        10.12 SEC
 DISK USED  *       765.12 MB
 **********************************************************************************************************************************


 Program * Restricted Hartree-Fock

 Molecular orbitals read from record     2100.2  Type=RHF/CANONICAL  

 Initial occupancy:  45

 NELEC=   90   SYM=1   MS2= 0   THRE=1.0D-08   THRD=3.2D-06   THRG=3.2D-06  HFMA2=F  DIIS_START=2   DIIS_MAX=10   DIIS_INCORE=F

 Level shifts:    0.00 (CLOSED)    0.00 (OPEN)    0.30 (GAP_MIN)

 ITER           ETOT              DE          GRAD        DDIFF     DIIS  NEXP   TIME(IT)  TIME(TOT)  DIAG
   1    -1320.06554976   -1320.06554976     0.00D+00     0.13D+00     0     0       0.27      0.27    start
   2    -1320.06554976      -0.00000000     0.16D-06     0.38D-06     1     0       0.26      0.53    diag

 Final occupancy:  45

 !RHF STATE 1.1 Energy              -1320.065549763101
  RHF One-electron energy           -3413.577352174253
  RHF Two-electron energy            1292.264740997605
  RHF Kinetic energy                 1319.337780174145
  RHF Nuclear energy                  801.247061413546
  RHF Virial quotient                  -1.000551617334

 !RHF STATE 1.1 Dipole moment          -0.73259981     1.62912883     0.27861861
 Dipole moment /Debye                  -1.86208299     4.14083246     0.70817786

 Orbital energies:

           1.1          2.1          3.1          4.1          5.1          6.1          7.1          8.1          9.1         10.1
    -92.338281   -92.328212   -20.700882   -20.695048   -20.682922   -20.636406   -20.621541   -20.621052   -20.616036    -9.303232

          11.1         12.1         13.1         14.1         15.1         16.1         17.1         18.1         19.1         20.1
     -9.293053    -6.988282    -6.987983    -6.987906    -6.978085    -6.977766    -6.977491    -1.620085    -1.577318    -1.462847

          21.1         22.1         23.1         24.1         25.1         26.1         27.1         28.1         29.1         30.1
     -1.456432    -1.440681    -1.432127    -1.425188    -1.002286    -0.925145    -0.859713    -0.816288    -0.788870    -0.763835

          31.1         32.1         33.1         34.1         35.1         36.1         37.1         38.1         39.1         40.1
     -0.757413    -0.718404    -0.692185    -0.687251    -0.647852    -0.640441    -0.605814    -0.597293    -0.582084    -0.570055

          41.1         42.1         43.1         44.1         45.1         46.1         47.1
     -0.558903    -0.555327    -0.544271    -0.534184    -0.527468     0.119884     0.157001


 HOMO     45.1    -0.527468 =     -14.3531eV
 LUMO     46.1     0.119884 =       3.2622eV
 LUMO-HOMO         0.647353 =      17.6154eV

 Orbitals saved in record  2101.2


 **********************************************************************************************************************************
 DATASETS  * FILE   NREC   LENGTH (MB)   RECORD NAMES
              1      19      187.22       500      610      700      900      950      970     1000      129      960     1100   
                                          VAR    BASINP    GEOM    SYMINP    ZMAT    AOBASIS   BASIS     P2S    ABASIS      S 
                                         1400     1410     1200     1210     1080     1600     1650     1300     1700   
                                           T        V       H0       H01     AOSYM     SMH    MOLCAS    ERIS     OPER   

              2       5        1.54       700     1000      520     2100     2101   
                                         GEOM     BASIS   MCVARS     RHF      RHF  

 PROGRAMS   *        TOTAL    HF-SCF    HF-SCF       INT
 CPU TIMES  *         6.38      0.54      3.07      2.68
 REAL TIME  *        10.90 SEC
 DISK USED  *       765.12 MB
 **********************************************************************************************************************************


 PROGRAM * PAPT (Closed-shell)     Authors: C. Hampel, H.-J. Werner, 1991, P.J. Knowles, 2021


 Convergence thresholds:  THRVAR = 1.00D-08  THRDEN = 1.00D-06

 Number of core orbitals:          17 (  17 )
 Number of closed-shell orbitals:  28 (  28 )
 Number of external orbitals:      99 (  99 )

 Molecular orbitals read from record     2101.2  Type=RHF/CANONICAL  

 Number of N-1 electron functions:              28
 Number of N-2 electron functions:             406
 Number of singly external CSFs:              2772
 Number of doubly external CSFs:           3843378
 Total number of CSFs:                     3846151

 Length of J-op  integral file:               0.00 MB
 Length of K-op  integral file:               1.49 MB

 Integral transformation finished. Total CPU:   1.28 sec, npass=  1  Memory used:  13.86 MW

 Reference energy:                  -1320.06554976

                        CORR.ENERGY   TOTAL ENERGY   ENERGY CHANGE
 MP2:                   -1.59066963 -1321.65621939    -1.59066963

 SCS-MP2 correlation energy:           -1.52047747   (PS=  1.200000  PT=  0.333333)
 SCS-MP2 total energy:              -1321.58602723
 Iteration:   1     0.3835D+00
 Iteration:   2     0.5285D+00
 Iteration:   3     0.1374D+00
 Iteration:   4     0.7541D-01
 Iteration:   5     0.6124D-01
 Iteration:   6     0.1768D-01
 Iteration:   7     0.3698D-01
 Iteration:   8     0.1250D-01
 Iteration:   9     0.1038D-01
 Iteration:  10     0.1085D-01
 Iteration:  11     0.5023D-02
 Iteration:  12     0.5365D-01
 Iteration:  13     0.4868D-02
 Iteration:  14     0.7353D-02
 Iteration:  15     0.4226D-02
 Iteration:  16     0.2571D-02
 Iteration:  17     0.3918D-02
 Iteration:  18     0.9882D-03
 Iteration:  19     0.1530D-01
 Iteration:  20     0.4376D-03
 Iteration:  21     0.1169D-02
 Iteration:  22     0.2123D-03
 Iteration:  23     0.2513D-03
 Iteration:  24     0.1273D-03
 Iteration:  25     0.5978D-04
 PAPT operator written to  7000.1
 PAPT orbitals and eigenvalues written to  7000.2

 MP3(D):                -1.56352218 -1321.62907194     0.02714745



 RESULTS
 =======

  Reference energy                  -1320.065549763101
  MP3 singlet pair energy              -0.972672378333
  MP3 triplet pair energy              -0.590849797964
  MP3 correlation energy               -1.563522176298

 !MP3 total energy                  -1321.629071939399

 Timing summary (sec):

 STEP                 CPU(USER)    SYS     CPU(TOT)    WALL
 Transformation          1.42      0.13      1.55      1.73
 CCSD iterations        44.91      0.54     45.45     41.81

 Program statistics:

 Available memory in ccsd:               393212819
 Min. memory needed in ccsd:              10197655
 Max. memory used in ccsd:                13599025
 Max. memory used in cckext:              17331004 ( 1 integral passes)



 **********************************************************************************************************************************
 DATASETS  * FILE   NREC   LENGTH (MB)   RECORD NAMES
              1      21      284.20       500      610      700      900      950      970     1000      129      960     1100   
                                          VAR    BASINP    GEOM    SYMINP    ZMAT    AOBASIS   BASIS     P2S    ABASIS      S 
                                         1400     1410     1200     1210     1080     1600     1650     1300     1700     1380   
                                           T        V       H0       H01     AOSYM     SMH    MOLCAS    ERIS     OPER     JKOP   
                                         7000   
                                        PAPT AO    

              2       6        2.12       700     1000      520     2100     2101     7000   
                                         GEOM     BASIS   MCVARS     RHF      RHF     PAPT   

 PROGRAMS   *        TOTAL      PAPT    HF-SCF    HF-SCF       INT
 CPU TIMES  *        46.25     39.86      0.54      3.07      2.68
 REAL TIME  *        54.64 SEC
 DISK USED  *       765.12 MB
 **********************************************************************************************************************************


 PROGRAM * MP2 (Closed-shell)     Authors: C. Hampel, H.-J. Werner, 1991, M. Deegan, P.J. Knowles, 1992


 Convergence thresholds:  THRVAR = 1.00D-08  THRDEN = 1.00D-06

 Number of core orbitals:          17 (  17 )
 Number of closed-shell orbitals:  28 (  28 )
 Number of external orbitals:      99 (  99 )

 Molecular orbitals read from record     7000.2  Type=PAPT/CANONICAL (state 1.1)

 Number of N-1 electron functions:              28
 Number of N-2 electron functions:             406
 Number of singly external CSFs:              2772
 Number of doubly external CSFs:           3843378
 Total number of CSFs:                     3846151

 Length of J-op  integral file:               0.00 MB
 Length of K-op  integral file:               1.49 MB

 Integral transformation finished. Total CPU:   1.30 sec, npass=  1  Memory used:  13.86 MW
 Orbital energies read from record       7000.2  Type=PAPT/CANONICAL (state 1.1)

 Memory needed for MP2:                      0.09 MW

 SCS-MP2 correlation energy:           -1.507623265116   (PS=  1.200000  PT=  0.333333)
 SCS-MP2 total energy:              -1321.573173028217


  Reference energy                  -1320.065549763101
  MP2 singlet pair energy              -0.915254939721
  MP2 triplet pair energy              -0.657831435187
  MP2 correlation energy               -1.573086374909

 !MP2 total energy                  -1321.638636138010


 **********************************************************************************************************************************
 DATASETS  * FILE   NREC   LENGTH (MB)   RECORD NAMES
              1      21      284.20       500      610      700      900      950      970     1000      129      960     1100   
                                          VAR    BASINP    GEOM    SYMINP    ZMAT    AOBASIS   BASIS     P2S    ABASIS      S 
                                         1400     1410     1200     1210     1080     1600     1650     1300     1700     1380   
                                           T        V       H0       H01     AOSYM     SMH    MOLCAS    ERIS     OPER     JKOP   
                                         7000   
                                        PAPT AO    

              2       6        2.12       700     1000      520     2100     2101     7000   
                                         GEOM     BASIS   MCVARS     RHF      RHF     PAPT   

 PROGRAMS   *        TOTAL       MP2      PAPT    HF-SCF    HF-SCF       INT
 CPU TIMES  *        48.13      1.87     39.86      0.54      3.07      2.68
 REAL TIME  *        57.32 SEC
 DISK USED  *       765.12 MB
 **********************************************************************************************************************************

 Dump information in style XML to xml output                                                                      

 Orbitals will not be exported.

 **********************************************************************************************************************************

 MP2/cc-pVDZ energy=  -1321.638636138010

             MP2            PAPT          HF-SCF          HF-SCF
  -1321.63863614  -1321.62907194  -1320.06554976  -1320.06554976
 **********************************************************************************************************************************
 Molpro calculation terminated
