
 Working directory              : /var/folders/2v/xbgp75_9785319ghcgb4zr4r0000gp/T//molpro.ENzsL6I2VF/
 Global scratch directory       : /var/folders/2v/xbgp75_9785319ghcgb4zr4r0000gp/T//molpro.ENzsL6I2VF/
 Wavefunction directory         : /Users/sacpjk/wfu/
 Main file repository           : /var/folders/2v/xbgp75_9785319ghcgb4zr4r0000gp/T//molpro.ENzsL6I2VF/

 id        : peterk

 Nodes                        nprocs
 Cardiff-University-G34YLXT77Y    1
 GA implementation: MPI file
 GA implementation (serial work in mppx): MPI file

 Using customized tuning parameters: mindgm=1; mindgv=20; mindgc=4; mindgr=1; noblas=0; minvec=7
 default implementation of scratch files=df  


 Variables initialized (1032), CPU time= 0.00 sec
 
 symmetry,nosym
 
 
 geometry={
 6
  o         -0.350846522910   -0.783222408161   -0.684135090557
  h         -0.068820403941   -0.413273643348   -1.523999170866
  c          0.035067324752    0.128361852579    0.335301071427
  h         -0.288115724054   -0.301270820150    1.278367615473
  h          1.116122563095    0.267445321468    0.374341038266
  h         -0.443407236942    1.101959697613    0.220124536257
 }
 basis=aug-cc-pVTZ
 
 
 
 hf; mp4; counterpoise
 
 
 
 {put,xml;noorbitals,nobasis}
 Commands initialized (841), CPU time= 0.01 sec, 704 directives.
 Default parameters read. Elapsed time= 0.07 sec

 Checking input...
 Passed
1


                                         ***  PROGRAM SYSTEM MOLPRO  ***
                                       Copyright, TTI GmbH Stuttgart, 2015
                                    Version 2023.1 linked Tue Jun  6 09:54:11 2023


 **********************************************************************************************************************************
 LABEL *                                                                                                                                                                 
  64 bit serial version                                                                  DATE: 07-Jun-23          TIME: 08:48:58  
 **********************************************************************************************************************************

 SHA1:             8ebb0dd001088a5c915591db1a321413035db0b1
 **********************************************************************************************************************************

 Memory per process:       805 MW
 Total memory per node:   1074 MW
 Total GA space:           268 MW

 GA preallocation disabled
 GA check enabled

 Variable memory set to 805.3 MW

 ZSYMEL=NOSYM


 Geometry recognized as XYZ

 SETTING BASIS          =    AUG-CC-PVTZ


 Recomputing integrals since basis changed


 Using spherical harmonics

 Library entry O      S aug-cc-pVTZ          selected for orbital group  1
 Library entry O      P aug-cc-pVTZ          selected for orbital group  1
 Library entry O      D aug-cc-pVTZ          selected for orbital group  1
 Library entry O      F aug-cc-pVTZ          selected for orbital group  1
 Library entry H      S aug-cc-pVTZ          selected for orbital group  2
 Library entry H      P aug-cc-pVTZ          selected for orbital group  2
 Library entry H      D aug-cc-pVTZ          selected for orbital group  2
 Library entry C      S aug-cc-pVTZ          selected for orbital group  3
 Library entry C      P aug-cc-pVTZ          selected for orbital group  3
 Library entry C      D aug-cc-pVTZ          selected for orbital group  3
 Library entry C      F aug-cc-pVTZ          selected for orbital group  3


 PROGRAM * SEWARD (Integral evaluation for generally contracted gaussian basis sets)     Author: Roland Lindh, 1990

 Geometry written to block  1 of record 700


 Point group  C1  



 ATOMIC COORDINATES

 NR  ATOM    CHARGE       X              Y              Z

   1  O       8.00   -0.663003840   -1.480075846   -1.292827953
   2  H       1.00   -0.130051715   -0.780974000   -2.879941047
   3  C       6.00    0.066267640    0.242568746    0.633627194
   4  H       1.00   -0.544459811   -0.569319339    2.415764680
   5  H       1.00    2.109165966    0.505398411    0.707402040
   6  H       1.00   -0.837918239    2.082402029    0.415975087

 Bond lengths in Bohr (Angstrom)

 1-2  1.814306846  1-3  2.685250588  3-4  2.051381071  3-5  2.061056945  3-6  2.061531240
     ( 0.960089836)     ( 1.420973417)     ( 1.085544114)     ( 1.090664366)     ( 1.090915352)

 Bond angles

  1-3-4  106.76853260   1-3-5  112.12813205   1-3-6  112.18950395   2-1-3  107.49423241

  4-3-5  108.32856604   4-3-6  108.32203169   5-3-6  108.94776655

 NUCLEAR CHARGE:                   18
 NUMBER OF PRIMITIVE AOS:         242
 NUMBER OF SYMMETRY AOS:          216
 NUMBER OF CONTRACTIONS:          184   (  184A   )
 NUMBER OF INNER CORE ORBITALS:     0   (    0A   )
 NUMBER OF OUTER CORE ORBITALS:     2   (    2A   )
 NUMBER OF VALENCE ORBITALS:       12   (   12A   )


 NUCLEAR REPULSION ENERGY   40.34710778

 Eigenvalues of metric

         1 0.605E-04 0.734E-04 0.883E-04 0.203E-03 0.406E-03 0.485E-03 0.755E-03 0.771E-03


 Contracted 2-electron integrals neglected if value below      1.0D-11
 AO integral compression algorithm  1   Integral accuracy      1.0D-11

     721.945 MB (compressed) written to integral file ( 53.1%)


 NUMBER OF SORTED TWO-ELECTRON INTEGRALS:  144848710.     BUFFER LENGTH:  32768
 NUMBER OF SEGMENTS:  10  SEGMENT LENGTH:   15999503      RECORD LENGTH: 524288

 Memory used in sort:      16.56 MW

 SORT1 READ   170053774. AND WROTE   143586203. INTEGRALS IN    414 RECORDS. CPU TIME:     1.05 SEC, REAL TIME:     2.11 SEC
 SORT2 READ   143586203. AND WROTE   144848710. INTEGRALS IN   2754 RECORDS. CPU TIME:     0.83 SEC, REAL TIME:     1.63 SEC

 FILE SIZES:   FILE 1:   753.3 MBYTE,  FILE 4:  1736.5 MBYTE,   TOTAL:   2489.8 MBYTE

 OPERATOR DM      FOR CENTER  0  COORDINATES:    0.000000    0.000000    0.000000


 **********************************************************************************************************************************
 DATASETS  * FILE   NREC   LENGTH (MB)   RECORD NAMES
              1      19      630.80       500      610      700      900      950      970     1000      129      960     1100   
                                          VAR    BASINP    GEOM    SYMINP    ZMAT    AOBASIS   BASIS     P2S    ABASIS      S 
                                         1400     1410     1200     1210     1080     1600     1650     1300     1700   
                                           T        V       H0       H01     AOSYM     SMH    MOLCAS    ERIS     OPER   

 PROGRAMS   *        TOTAL       INT
 CPU TIMES  *         5.05      4.95
 REAL TIME  *         8.12 SEC
 DISK USED  *         2.32 GB
 **********************************************************************************************************************************


 Program * Restricted Hartree-Fock

 Orbital guess generated from atomic densities. Full valence occupancy:   14

 Initial occupancy:   9

 NELEC=   18   SYM=1   MS2= 0   THRE=1.0D-08   THRD=3.2D-06   THRG=3.2D-06  HFMA2=F  DIIS_START=2   DIIS_MAX=10   DIIS_INCORE=F

 Level shifts:    0.00 (CLOSED)    0.00 (OPEN)    0.30 (GAP_MIN)

 ITER           ETOT              DE          GRAD        DDIFF     DIIS  NEXP   TIME(IT)  TIME(TOT)  DIAG
   1     -115.05618394    -115.05618394     0.00D+00     0.46D-01     0     0       0.67      1.26    start
   2     -115.08424245      -0.02805852     0.49D-02     0.53D-02     1     0       0.69      1.95    diag
   3     -115.09152251      -0.00728006     0.27D-02     0.17D-02     2     0       0.69      2.64    diag
   4     -115.09205104      -0.00052853     0.53D-03     0.44D-03     3     0       0.73      3.37    diag
   5     -115.09208369      -0.00003265     0.10D-03     0.10D-03     4     0       0.76      4.13    diag
   6     -115.09208519      -0.00000150     0.19D-04     0.26D-04     5     0       0.73      4.86    diag
   7     -115.09208526      -0.00000007     0.41D-05     0.59D-05     6     0       0.71      5.57    diag
   8     -115.09208527      -0.00000000     0.10D-05     0.16D-05     7     0       0.71      6.28    fixocc
   9     -115.09208527      -0.00000000     0.32D-06     0.36D-06     0     0       0.68      6.96    diag

 Final occupancy:   9

 !RHF STATE 1.1 Energy               -115.092085266623
  RHF One-electron energy            -236.922735443662
  RHF Two-electron energy              81.483542400058
  RHF Kinetic energy                  114.927958593796
  RHF Nuclear energy                   40.347107776982
  RHF Virial quotient                  -1.001428083078

 !RHF STATE 1.1 Dipole moment           0.34124345     0.62183636    -0.08313637
 Dipole moment /Debye                   0.86735432     1.58055038    -0.21131158

 Orbital energies:

           1.1          2.1          3.1          4.1          5.1          6.1          7.1          8.1          9.1         10.1
    -20.559588   -11.270518    -1.358075    -0.926443    -0.691504    -0.620940    -0.593222    -0.505215    -0.452281     0.028472

          11.1
      0.042977


 HOMO      9.1    -0.452281 =     -12.3072eV
 LUMO     10.1     0.028472 =       0.7748eV
 LUMO-HOMO         0.480753 =      13.0819eV

 Orbitals saved in record  2100.2


 **********************************************************************************************************************************
 DATASETS  * FILE   NREC   LENGTH (MB)   RECORD NAMES
              1      19      630.80       500      610      700      900      950      970     1000      129      960     1100   
                                          VAR    BASINP    GEOM    SYMINP    ZMAT    AOBASIS   BASIS     P2S    ABASIS      S 
                                         1400     1410     1200     1210     1080     1600     1650     1300     1700   
                                           T        V       H0       H01     AOSYM     SMH    MOLCAS    ERIS     OPER   

              2       4        1.00       700     1000      520     2100   
                                         GEOM     BASIS   MCVARS     RHF  

 PROGRAMS   *        TOTAL    HF-SCF       INT
 CPU TIMES  *        12.02      6.97      4.95
 REAL TIME  *        17.70 SEC
 DISK USED  *         2.32 GB
 **********************************************************************************************************************************


 PROGRAM * MP4 (Closed-shell)     Authors: C. Hampel, H.-J. Werner, 1991, M. Deegan, P.J. Knowles, 1992


 Convergence thresholds:  THRVAR = 1.00D-08  THRDEN = 1.00D-06

 MP4(T)     terms to be evaluated (factor= 0.000)


 Number of core orbitals:           2 (   2 )
 Number of closed-shell orbitals:   7 (   7 )
 Number of external orbitals:     175 ( 175 )

 Molecular orbitals read from record     2100.2  Type=RHF/CANONICAL  

 Number of N-1 electron functions:               7
 Number of N-2 electron functions:              28
 Number of singly external CSFs:              1225
 Number of doubly external CSFs:            750925
 Total number of CSFs:                      752151

 Length of J-op  integral file:               0.00 MB
 Length of K-op  integral file:               2.39 MB

 Memory could be reduced to 53.22 Mwords without degradation in triples

 Integral transformation finished. Total CPU:   2.71 sec, npass=  1  Memory used:  27.38 MW

 Reference energy:                   -115.09208527

                        CORR.ENERGY   TOTAL ENERGY   ENERGY CHANGE
 MP2:                   -0.43690054  -115.52898581    -0.43690054

 SCS-MP2 correlation energy:           -0.43757207   (PS=  1.200000  PT=  0.333333)
 SCS-MP2 total energy:               -115.52965734

 MP3(D):                -0.45109849  -115.54318376    -0.01419795
 MP4(DQ):               -0.45175371  -115.54383898    -0.00065522
 MP4(SDQ):              -0.45503277  -115.54711803    -0.00327905

 Norm of t1 vector:      0.04472352      S-energy:    -0.00327905      T1 diagnostic:  0.00845195


 Total CPU time for triples:     26.87 sec


 RESULTS
 =======

  Reference energy                   -115.092085266622
  MP4(SDQ) singlet pair energy         -0.311461122000
  MP4(SDQ) triplet pair energy         -0.140292590728
  MP4(SDQ) correlation energy          -0.455032765110

  Triples contribution                 -0.016634774744
  Total correlation energy             -0.471667539854

  MP4(SDQ) total energy              -115.547118031732
 !MP4(SDTQ) total energy             -115.563752806476

 Timing summary (sec):

 STEP                 CPU(USER)    SYS     CPU(TOT)    WALL
 Transformation          2.73      0.28      3.01      4.23
 CCSD iterations        14.78      0.16     14.94      3.35
 Triples                26.87      0.96     27.83     35.39

 Program statistics:

 Available memory in ccsd:               805306163
 Min. memory needed in ccsd:               2385617
 Max. memory used in ccsd:                 3007350
 Max. memory used in cckext:               2163954 ( 1 integral passes)



 **********************************************************************************************************************************
 DATASETS  * FILE   NREC   LENGTH (MB)   RECORD NAMES
              1      20      786.12       500      610      700      900      950      970     1000      129      960     1100   
                                          VAR    BASINP    GEOM    SYMINP    ZMAT    AOBASIS   BASIS     P2S    ABASIS      S 
                                         1400     1410     1200     1210     1080     1600     1650     1300     1700     1380   
                                           T        V       H0       H01     AOSYM     SMH    MOLCAS    ERIS     OPER     JKOP   

              2       4        1.00       700     1000      520     2100   
                                         GEOM     BASIS   MCVARS     RHF  

 PROGRAMS   *        TOTAL       MP4    HF-SCF       INT
 CPU TIMES  *        44.28     32.26      6.97      4.95
 REAL TIME  *        60.75 SEC
 DISK USED  *         2.32 GB
 **********************************************************************************************************************************

 Counterpoise: absolute minimum monomer separation=    -1.000 Bragg radius scale factor=     1.400 Number of monomers= 1
 Counterpoise skipped because only a single monomer


 **********************************************************************************************************************************
 DATASETS  * FILE   NREC   LENGTH (MB)   RECORD NAMES
              1      20      786.12       500      610      700      900      950      970     1000      129      960     1100   
                                          VAR    BASINP    GEOM    SYMINP    ZMAT    AOBASIS   BASIS     P2S    ABASIS      S 
                                         1400     1410     1200     1210     1080     1600     1650     1300     1700     1380   
                                           T        V       H0       H01     AOSYM     SMH    MOLCAS    ERIS     OPER     JKOP   

              2       4        1.00       700     1000      520     2100   
                                         GEOM     BASIS   MCVARS     RHF  

 PROGRAMS   *        TOTALCOUNTERPOI       MP4    HF-SCF       INT
 CPU TIMES  *        44.28      0.00     32.26      6.97      4.95
 REAL TIME  *        60.76 SEC
 DISK USED  *         2.32 GB
 **********************************************************************************************************************************

 Dump information in style XML to xml output                                                                      

 Orbitals will not be exported.

 **********************************************************************************************************************************

 MP4/aug-cc-pVTZ energy=   -115.563752806476

             MP4          HF-SCF
   -115.56375281   -115.09208527
 **********************************************************************************************************************************
 Molpro calculation terminated
