
 Working directory              : /var/folders/2v/xbgp75_9785319ghcgb4zr4r0000gp/T//molpro.1LFfT9sqxi/
 Global scratch directory       : /var/folders/2v/xbgp75_9785319ghcgb4zr4r0000gp/T//molpro.1LFfT9sqxi/
 Wavefunction directory         : /Users/sacpjk/wfu/
 Main file repository           : /var/folders/2v/xbgp75_9785319ghcgb4zr4r0000gp/T//molpro.1LFfT9sqxi/

 id        : peterk

 Nodes                        nprocs
 Cardiff-University-G34YLXT77Y    1
 GA implementation: MPI file
 GA implementation (serial work in mppx): MPI file

 Using customized tuning parameters: mindgm=1; mindgv=20; mindgc=4; mindgr=1; noblas=0; minvec=7
 default implementation of scratch files=df  


 Variables initialized (1037), CPU time= 0.01 sec
 
 symmetry,nosym
 
 
 geometry={
 12
  c         -1.451532589048   -1.212963296421   -0.094727684545
  h         -0.801569745646   -2.074075173608   -0.227643071893
  h         -2.132508558849   -1.135491237646   -0.938592959757
  h         -2.064549486661   -1.351759283419    0.792280678295
  c         -0.696800510846    0.085049580740    0.037865822274
  o         -1.273515957695    1.160344436331    0.194454564502
  n          0.653832612108   -0.012453103688   -0.026752146478
  h          1.054784239927   -0.922987082530   -0.156267244560
  c          1.522074724085    1.139517356532    0.082690935242
  h          0.885580594204    2.007817799717    0.217475542263
  h          2.187664231432    1.048062158332    0.938783816528
  h          2.116540446989    1.268937845660   -0.819568251870
 }
 basis=aug-cc-pVDZ
 
 
 
 hf; ccsd(t); counterpoise
 
 
 
 {put,xml;noorbitals,nobasis}
 Commands initialized (841), CPU time= 0.00 sec, 716 directives.
 Default parameters read. Elapsed time= 0.10 sec

 Checking input...
 Passed
1


                                         ***  PROGRAM SYSTEM MOLPRO  ***
                                       Copyright, TTI GmbH Stuttgart, 2015
                                    Version 2023.1 linked Fri Jul 14 07:57:55 2023


 **********************************************************************************************************************************
 LABEL *                                                                                                                                                                 
  64 bit serial version                                                                  DATE: 14-Jul-23          TIME: 22:20:17  
 **********************************************************************************************************************************

 SHA1:             8f90ea6339eadc8ec4622dc21e4296b0c92029f5
 **********************************************************************************************************************************

 Memory per process:      1573 MW
 Total memory per node:   2097 MW
 Total GA space:           524 MW

 GA preallocation disabled
 GA check enabled

 Variable memory set to 1572.9 MW

 ZSYMEL=NOSYM


 Geometry recognized as XYZ

 SETTING BASIS          =    AUG-CC-PVDZ


 Recomputing integrals since basis changed


 Using spherical harmonics

 Library entry C      S aug-cc-pVDZ          selected for orbital group  1
 Library entry C      P aug-cc-pVDZ          selected for orbital group  1
 Library entry C      D aug-cc-pVDZ          selected for orbital group  1
 Library entry H      S aug-cc-pVDZ          selected for orbital group  2
 Library entry H      P aug-cc-pVDZ          selected for orbital group  2
 Library entry O      S aug-cc-pVDZ          selected for orbital group  4
 Library entry O      P aug-cc-pVDZ          selected for orbital group  4
 Library entry O      D aug-cc-pVDZ          selected for orbital group  4
 Library entry N      S aug-cc-pVDZ          selected for orbital group  5
 Library entry N      P aug-cc-pVDZ          selected for orbital group  5
 Library entry N      D aug-cc-pVDZ          selected for orbital group  5


 PROGRAM * SEWARD (Integral evaluation for generally contracted gaussian basis sets)     Author: Roland Lindh, 1990

 Geometry written to block  1 of record 700


 Point group  C1  



 ATOMIC COORDINATES

 NR  ATOM    CHARGE       X              Y              Z

   1  C       6.00   -2.742999054   -2.292168429   -0.179009380
   2  H       1.00   -1.514747289   -3.919434040   -0.430183060
   3  H       1.00   -4.029857135   -2.145767456   -1.773683636
   4  H       1.00   -3.901433101   -2.554454832    1.497193496
   5  C       6.00   -1.316762129    0.160720415    0.071556034
   6  O       8.00   -2.406596375    2.192733195    0.367465871
   7  N       7.00    1.235564568   -0.023532955   -0.050554230
   8  H       1.00    1.993253334   -1.744192803   -0.295302294
   9  C       6.00    2.876304370    2.153375718    0.156263221
  10  H       1.00    1.673504784    3.794225750    0.410969214
  11  H       1.00    4.134086250    1.980550441    1.774044303
  12  H       1.00    3.999681777    2.397944997   -1.548759536

 Bond lengths in Bohr (Angstrom)

 1-2  2.054186940  1-3  2.054366800  1-4  2.054366004  1-5  2.848437901  5-6  2.324731652
     ( 1.087028915)     ( 1.087124093)     ( 1.087123672)     ( 1.507328424)     ( 1.230195012)

  5- 7  2.561880518   7- 8  1.895959965   7- 9  2.733812709   9-10  2.050363580   9-11  2.056477441
       ( 1.355688787)       ( 1.003298806)       ( 1.446671384)       ( 1.085005681)       ( 1.088240997)

  9-12  2.056427371
       ( 1.088214501)

 Bond angles

  1-5-6  121.94937241   1-5-7  115.63995729   2-1-3  109.63827190   2-1-4  109.62066912

  2-1-5  113.17461219   3-1-4  106.81163439   3-1-5  108.69676201   4-1-5  108.69400884

  5- 7- 8  118.00621069   5- 7- 9  122.48312985   6- 5- 7  122.41067020   7- 9-10  107.13197896

  7- 9-11  111.07971118   7- 9-12  111.09000569   8- 7- 9  119.51064217  10- 9-11  109.16700179

 10- 9-12  109.16453086  11- 9-12  109.15526957

 NUCLEAR CHARGE:                   40
 NUMBER OF PRIMITIVE AOS:         262
 NUMBER OF SYMMETRY AOS:          252
 NUMBER OF CONTRACTIONS:          178   (  178A   )
 NUMBER OF INNER CORE ORBITALS:     0   (    0A   )
 NUMBER OF OUTER CORE ORBITALS:     5   (    5A   )
 NUMBER OF VALENCE ORBITALS:       27   (   27A   )


 NUCLEAR REPULSION ENERGY  180.56084116


 Eigenvalues of metric

         1 0.397E-04 0.123E-03 0.148E-03 0.238E-03 0.394E-03 0.440E-03 0.530E-03 0.579E-03


 Contracted 2-electron integrals neglected if value below      1.0D-12
 AO integral compression algorithm  1   Integral accuracy      1.0D-12

     686.031 MB (compressed) written to integral file ( 60.0%)


 NUMBER OF SORTED TWO-ELECTRON INTEGRALS:  126906346.     BUFFER LENGTH:  32768
 NUMBER OF SEGMENTS:   8  SEGMENT LENGTH:   15999503      RECORD LENGTH: 524288

 Memory used in sort:      16.56 MW

 SORT1 READ   142775771. AND WROTE   125520332. INTEGRALS IN    363 RECORDS. CPU TIME:     0.91 SEC, REAL TIME:     1.20 SEC
 SORT2 READ   125520332. AND WROTE   126906346. INTEGRALS IN   2617 RECORDS. CPU TIME:     0.74 SEC, REAL TIME:     0.96 SEC

 FILE SIZES:   FILE 1:   717.4 MBYTE,  FILE 4:  1522.6 MBYTE,   TOTAL:   2240.0 MBYTE

 OPERATOR DM      FOR CENTER  0  COORDINATES:    0.000000    0.000000    0.000000


 **********************************************************************************************************************************
 DATASETS  * FILE   NREC   LENGTH (MB)   RECORD NAMES
              1      19      622.58       500      610      700      900      950      970     1000      129      960     1100   
                                          VAR    BASINP    GEOM    SYMINP    ZMAT    AOBASIS   BASIS     P2S    ABASIS      S 
                                         1400     1410     1200     1210     1080     1600     1650     1300     1700   
                                           T        V       H0       H01     AOSYM     SMH    MOLCAS    ERIS     OPER   

 PROGRAMS   *        TOTAL       INT
 CPU TIMES  *         4.60      4.52
 REAL TIME  *         5.98 SEC
 DISK USED  *         2.09 GB
 **********************************************************************************************************************************


 Program * Restricted Hartree-Fock

 Orbital guess generated from atomic densities. Full valence occupancy:   32

 Initial occupancy:  20

 NELEC=   40   SYM=1   MS2= 0   THRE=1.0D-08   THRD=3.2D-06   THRG=3.2D-06  HFMA2=F  DIIS_START=2   DIIS_MAX=10   DIIS_INCORE=F

 Level shifts:    0.00 (CLOSED)    0.00 (OPEN)    0.30 (GAP_MIN)

 ITER           ETOT              DE          GRAD        DDIFF     DIIS  NEXP   TIME(IT)  TIME(TOT)  DIAG
   1     -246.92829871    -246.92829871     0.00D+00     0.68D-01     0     0       0.53      1.02    start
   2     -246.99569348      -0.06739476     0.57D-02     0.11D-01     1     0       0.52      1.54    diag
   3     -247.03904551      -0.04335204     0.43D-02     0.41D-02     2     0       0.52      2.06    diag
   4     -247.04143999      -0.00239448     0.66D-03     0.13D-02     3     0       0.53      2.59    diag
   5     -247.04166554      -0.00022554     0.18D-03     0.42D-03     4     0       0.55      3.14    diag
   6     -247.04169625      -0.00003071     0.57D-04     0.15D-03     5     0       0.53      3.67    diag
   7     -247.04170123      -0.00000499     0.26D-04     0.53D-04     6     0       0.52      4.19    diag
   8     -247.04170212      -0.00000089     0.10D-04     0.24D-04     7     0       0.53      4.72    fixocc
   9     -247.04170226      -0.00000014     0.37D-05     0.11D-04     8     0       0.53      5.25    diag
  10     -247.04170227      -0.00000001     0.91D-06     0.28D-05     9     0       0.52      5.77    diag/orth
  11     -247.04170227      -0.00000000     0.24D-06     0.47D-06     0     0       0.53      6.30    diag

 Final occupancy:  20

 !RHF STATE 1.1 Energy               -247.041702271173
  RHF One-electron energy            -693.437068806044
  RHF Two-electron energy             265.834525371676
  RHF Kinetic energy                  246.732990570611
  RHF Nuclear energy                  180.560841163195
  RHF Virial quotient                  -1.001251197498

 !RHF STATE 1.1 Dipole moment           1.03939918    -1.26615575    -0.19869932
 Dipole moment /Debye                   2.64188919    -3.21824691    -0.50504330

 Orbital energies:

           1.1          2.1          3.1          4.1          5.1          6.1          7.1          8.1          9.1         10.1
    -20.518761   -15.594362   -11.355091   -11.263296   -11.242494    -1.374509    -1.233485    -1.021472    -0.935081    -0.791486

          11.1         12.1         13.1         14.1         15.1         16.1         17.1         18.1         19.1         20.1
     -0.691485    -0.653003    -0.632965    -0.586377    -0.578763    -0.556632    -0.544267    -0.502214    -0.418627    -0.389619

          21.1         22.1
      0.028885     0.042831


 HOMO     20.1    -0.389619 =     -10.6021eV
 LUMO     21.1     0.028885 =       0.7860eV
 LUMO-HOMO         0.418504 =      11.3881eV

 Orbitals saved in record  2100.2


 **********************************************************************************************************************************
 DATASETS  * FILE   NREC   LENGTH (MB)   RECORD NAMES
              1      19      622.58       500      610      700      900      950      970     1000      129      960     1100   
                                          VAR    BASINP    GEOM    SYMINP    ZMAT    AOBASIS   BASIS     P2S    ABASIS      S 
                                         1400     1410     1200     1210     1080     1600     1650     1300     1700   
                                           T        V       H0       H01     AOSYM     SMH    MOLCAS    ERIS     OPER   

              2       4        1.07       700     1000      520     2100   
                                         GEOM     BASIS   MCVARS     RHF  

 PROGRAMS   *        TOTAL    HF-SCF       INT
 CPU TIMES  *        10.91      6.31      4.52
 REAL TIME  *        14.11 SEC
 DISK USED  *         2.09 GB
 **********************************************************************************************************************************


 PROGRAM * CCSD (Closed-shell coupled cluster)     Authors: C. Hampel, H.-J. Werner, 1991, M. Deegan, P.J. Knowles, 1992


 Convergence thresholds:  THRVAR = 1.00D-08  THRDEN = 1.00D-06

 CCSD(T)     terms to be evaluated (factor= 1.000)


 Number of core orbitals:           5 (   5 )
 Number of closed-shell orbitals:  15 (  15 )
 Number of external orbitals:     158 ( 158 )

 Molecular orbitals read from record     2100.2  Type=RHF/CANONICAL  

 Number of N-1 electron functions:              15
 Number of N-2 electron functions:             120
 Number of singly external CSFs:              2370
 Number of doubly external CSFs:           2809635
 Total number of CSFs:                     2812006

 Length of J-op  integral file:               0.00 MB
 Length of K-op  integral file:               2.24 MB
 Length of 3-ext integral record:             0.00 MB

 Memory could be reduced to 76.19 Mwords without degradation in triples

 Integral transformation finished. Total CPU:   2.60 sec, npass=  1  Memory used:  52.31 MW

 Reference energy:                   -247.04170227

 MP2 singlet pair energy:              -0.50114414
 MP2 triplet pair energy:              -0.30355705
 MP2 correlation energy:               -0.80470119
 MP2 total energy:                   -247.84640346

 SCS-MP2 correlation energy:           -0.79025291   (PS=  1.200000  PT=  0.333333)
 SCS-MP2 total energy:               -247.83195518

 ITER.      SQ.NORM     CORR.ENERGY   TOTAL ENERGY   ENERGY CHANGE        DEN1      VAR(S)    VAR(P)  DIIS     TIME  TIME/IT
   1      1.27038991    -0.84359779  -247.88530006    -0.03889660    -0.01417368  0.63D-02  0.50D-02  1  1    18.81     5.20
   2      1.29184925    -0.84611696  -247.88781923    -0.00251917    -0.02194133  0.13D-03  0.82D-03  2  2    24.54     5.62
   3      1.30038270    -0.84662830  -247.88833057    -0.00051135    -0.00418798  0.13D-03  0.38D-04  3  3    29.87     5.60
   4      1.30351894    -0.84648967  -247.88819194     0.00013864    -0.00111455  0.13D-04  0.61D-05  4  4    35.05     5.64
   5      1.30471209    -0.84647046  -247.88817273     0.00001921    -0.00027446  0.20D-05  0.76D-06  5  5    40.13     5.57
   6      1.30503531    -0.84644925  -247.88815152     0.00002121    -0.00004068  0.26D-06  0.12D-06  6  6    45.21     5.52
   7      1.30512145    -0.84644002  -247.88814229     0.00000923    -0.00000270  0.32D-07  0.18D-07  6  1    50.30     5.49
   8      1.30514790    -0.84643925  -247.88814153     0.00000077    -0.00000465  0.58D-08  0.31D-08  6  2    55.53     5.49
   9      1.30514908    -0.84643946  -247.88814173    -0.00000020     0.00000224  0.12D-08  0.44D-09  6  3    60.95     5.51

 Norm of t1 vector:      0.11436059      S-energy:    -0.00000094      T1 diagnostic:  0.01476389
                                                                       D1 diagnostic:  0.05847462
                                                                       D2 diagnostic:  0.16083552 (external, symmetry=1)


 Total CPU time for triples:     88.44 sec


 RESULTS
 =======

  Reference energy                   -247.041702271174
  CCSD singlet pair energy             -0.572132224807
  CCSD triplet pair energy             -0.274306288411
  CCSD correlation energy              -0.846439456755

  Triples (T) contribution             -0.030707643888
  Total correlation energy             -0.877147100642

  CCSD total energy                  -247.888141727929
  CCSD[T] energy                     -247.920785220884
  CCSD-T energy                      -247.918153287191
 !CCSD(T) total energy               -247.918849371817

 Timing summary (sec):

 STEP                 CPU(USER)    SYS     CPU(TOT)    WALL
 Transformation          2.68      0.24      2.92      3.01
 CCSD iterations        58.35      1.85     60.20     49.71
 Triples                88.44      3.25     91.69     92.98

 Program statistics:

 Available memory in ccsd:              1572863080
 Min. memory needed in ccsd:               7139894
 Max. memory used in ccsd:                 9662684
 Max. memory used in cckext:               7954185 ( 9 integral passes)



 **********************************************************************************************************************************
 DATASETS  * FILE   NREC   LENGTH (MB)   RECORD NAMES
              1      20      893.79       500      610      700      900      950      970     1000      129      960     1100   
                                          VAR    BASINP    GEOM    SYMINP    ZMAT    AOBASIS   BASIS     P2S    ABASIS      S 
                                         1400     1410     1200     1210     1080     1600     1650     1300     1700     1380   
                                           T        V       H0       H01     AOSYM     SMH    MOLCAS    ERIS     OPER     JKOP   

              2       4        1.07       700     1000      520     2100   
                                         GEOM     BASIS   MCVARS     RHF  

 PROGRAMS   *        TOTAL   CCSD(T)    HF-SCF       INT
 CPU TIMES  *       149.30    138.38      6.31      4.52
 REAL TIME  *       159.87 SEC
 DISK USED  *         2.09 GB
 **********************************************************************************************************************************

 Counterpoise: absolute minimum monomer separation=    -1.000 Bragg radius scale factor=     1.400 Number of monomers= 1
 Counterpoise skipped because only a single monomer


 **********************************************************************************************************************************
 DATASETS  * FILE   NREC   LENGTH (MB)   RECORD NAMES
              1      20      893.79       500      610      700      900      950      970     1000      129      960     1100   
                                          VAR    BASINP    GEOM    SYMINP    ZMAT    AOBASIS   BASIS     P2S    ABASIS      S 
                                         1400     1410     1200     1210     1080     1600     1650     1300     1700     1380   
                                           T        V       H0       H01     AOSYM     SMH    MOLCAS    ERIS     OPER     JKOP   

              2       4        1.07       700     1000      520     2100   
                                         GEOM     BASIS   MCVARS     RHF  

 PROGRAMS   *        TOTALCOUNTERPOI   CCSD(T)    HF-SCF       INT
 CPU TIMES  *       149.31      0.00    138.38      6.31      4.52
 REAL TIME  *       159.88 SEC
 DISK USED  *         2.09 GB
 **********************************************************************************************************************************

 Dump information in style XML to xml output                                                                      

 Orbitals will not be exported.

 **********************************************************************************************************************************

 CCSD(T)/aug-cc-pVDZ energy=   -247.918849371817

         CCSD(T)          HF-SCF
   -247.91884937   -247.04170227
 **********************************************************************************************************************************
 Molpro calculation terminated
