
 Working directory              : /var/folders/2v/xbgp75_9785319ghcgb4zr4r0000gp/T//molpro.eb4xWoCNUi/
 Global scratch directory       : /var/folders/2v/xbgp75_9785319ghcgb4zr4r0000gp/T//molpro.eb4xWoCNUi/
 Wavefunction directory         : /Users/sacpjk/wfu/
 Main file repository           : /var/folders/2v/xbgp75_9785319ghcgb4zr4r0000gp/T//molpro.eb4xWoCNUi/

 id        : peterk

 Nodes                        nprocs
 Cardiff-University-G34YLXT77Y    1
 GA implementation: MPI file
 GA implementation (serial work in mppx): MPI file

 Using customized tuning parameters: mindgm=1; mindgv=20; mindgc=4; mindgr=1; noblas=0; minvec=7
 default implementation of scratch files=df  


 Variables initialized (1032), CPU time= 0.00 sec
 
 core,small
 angstrom
 
 geometry={
 C;H,C,1.10678917;H,C,1.10678917,H,102.02249921
 }
 basis=cc-pCVQZ
 
 
 
 hf; mp2
 
 
 
 {put,xml;noorbitals,nobasis}
 Commands initialized (841), CPU time= 0.01 sec, 704 directives.
 Default parameters read. Elapsed time= 3.47 sec

 Checking input...
 Passed
1


                                         ***  PROGRAM SYSTEM MOLPRO  ***
                                       Copyright, TTI GmbH Stuttgart, 2015
                                    Version 2023.1 linked Tue Jun  6 09:54:11 2023


 **********************************************************************************************************************************
 LABEL *                                                                                                                                                                 
  64 bit serial version                                                                  DATE: 12-Jun-23          TIME: 10:38:46  
 **********************************************************************************************************************************

 SHA1:             8ebb0dd001088a5c915591db1a321413035db0b1
 **********************************************************************************************************************************

 Memory per process:       393 MW
 Total memory per node:    524 MW
 Total GA space:           131 MW

 GA preallocation disabled
 GA check enabled

 Variable memory set to 393.2 MW

 ZUNIT=ANG

 SETTING BASIS          =    CC-PCVQZ


 Recomputing integrals since basis changed


 Using spherical harmonics

 Library entry C      S cc-pCVQZ             selected for orbital group  1
 Library entry C      P cc-pCVQZ             selected for orbital group  1
 Library entry C      D cc-pCVQZ             selected for orbital group  1
 Library entry C      F cc-pCVQZ             selected for orbital group  1
 Library entry C      G cc-pCVQZ             selected for orbital group  1
 Library entry H      S cc-pVQZ              selected for orbital group  2
 Library entry H      P cc-pVQZ              selected for orbital group  2
 Library entry H      D cc-pVQZ              selected for orbital group  2
 Library entry H      F cc-pVQZ              selected for orbital group  2


 PROGRAM * SEWARD (Integral evaluation for generally contracted gaussian basis sets)     Author: Roland Lindh, 1990

 Geometry written to block  1 of record 700

 Orientation using atomic masses  
 Molecule type: Asymmetric top,     Order of principal axis = 2
 Symmetry elements: X,Y
 Rotational constants:     217.0003324    603.7701822    338.7501129 GHz  (calculated with average atomic masses)

 Point group  C2v 



 ATOMIC COORDINATES

 NR  ATOM    CHARGE       X              Y              Z

   1  C       6.00    0.000000000    0.000000000   -0.189118426
   2  H       1.00    0.000000000    1.625681259    1.126803885
   3  H       1.00    0.000000000   -1.625681259    1.126803885

 Bond lengths in Bohr (Angstrom)

 1-2  2.091528409  1-3  2.091528409
     ( 1.106789170)     ( 1.106789170)

 Bond angles

  2-1-3  102.02249921

 NUCLEAR CHARGE:                    8
 NUMBER OF PRIMITIVE AOS:         191
 NUMBER OF SYMMETRY AOS:          161
 NUMBER OF CONTRACTIONS:          144   (   54A1  +   30B1  +   40B2  +   20A2  )
 NUMBER OF INNER CORE ORBITALS:     0   (    0A1  +    0B1  +    0B2  +    0A2  )
 NUMBER OF OUTER CORE ORBITALS:     1   (    1A1  +    0B1  +    0B2  +    0A2  )
 NUMBER OF VALENCE ORBITALS:        6   (    3A1  +    1B1  +    2B2  +    0A2  )


 NUCLEAR REPULSION ENERGY    6.04499440

 Eigenvalues of metric

         1 0.274E-04 0.241E-03 0.990E-03 0.188E-02 0.219E-02 0.499E-02 0.903E-02 0.114E-01
         2 0.178E-02 0.132E-01 0.495E-01 0.108E+00 0.132E+00 0.154E+00 0.165E+00 0.257E+00
         3 0.271E-03 0.136E-02 0.203E-02 0.114E-01 0.136E-01 0.149E-01 0.380E-01 0.489E-01
         4 0.136E-01 0.526E-01 0.142E+00 0.252E+00 0.258E+00 0.350E+00 0.430E+00 0.480E+00


 Contracted 2-electron integrals neglected if value below      1.0D-12
 AO integral compression algorithm  1   Integral accuracy      1.0D-12

     93.323 MB (compressed) written to integral file ( 63.7%)


 NUMBER OF SORTED TWO-ELECTRON INTEGRALS:   14072140.     BUFFER LENGTH:  32768
 NUMBER OF SEGMENTS:   1  SEGMENT LENGTH:   14072140      RECORD LENGTH: 524288

 Memory used in sort:      14.63 MW

 SORT1 READ    18319987. AND WROTE    12823708. INTEGRALS IN     37 RECORDS. CPU TIME:     0.16 SEC, REAL TIME:     0.20 SEC
 SORT2 READ    12823708. AND WROTE    14072140. INTEGRALS IN    356 RECORDS. CPU TIME:     0.17 SEC, REAL TIME:     0.20 SEC

 FILE SIZES:   FILE 1:   123.8 MBYTE,  FILE 4:   155.3 MBYTE,   TOTAL:    279.1 MBYTE

 OPERATOR DM      FOR CENTER  0  COORDINATES:    0.000000    0.000000    0.000000


 **********************************************************************************************************************************
 DATASETS  * FILE   NREC   LENGTH (MB)   RECORD NAMES
              1      19       95.57       500      610      700      900      950      970     1000      129      960     1100   
                                          VAR    BASINP    GEOM    SYMINP    ZMAT    AOBASIS   BASIS     P2S    ABASIS      S 
                                         1400     1410     1200     1210     1080     1600     1650     1300     1700   
                                           T        V       H0       H01     AOSYM     SMH    MOLCAS    ERIS     OPER   

 PROGRAMS   *        TOTAL       INT
 CPU TIMES  *         1.13      1.03
 REAL TIME  *         6.73 SEC
 DISK USED  *       266.50 MB
 **********************************************************************************************************************************


 Program * Restricted Hartree-Fock

 Orbital guess generated from atomic densities. Full valence occupancy:    4   1   2   0

 Initial occupancy:   3   0   1   0

 NELEC=    8   SYM=1   MS2= 0   THRE=1.0D-08   THRD=3.2D-06   THRG=3.2D-06  HFMA2=F  DIIS_START=2   DIIS_MAX=10   DIIS_INCORE=F

 Level shifts:    0.00 (CLOSED)    0.00 (OPEN)    0.30 (GAP_MIN)

 ITER           ETOT              DE          GRAD        DDIFF     DIIS  NEXP   TIME(IT)  TIME(TOT)  DIAG
   1      -38.88388817     -38.88388817     0.00D+00     0.72D-01     0     0       0.03      0.06    start
   2      -38.89475114      -0.01086297     0.68D-02     0.50D-02     1     0       0.03      0.09    diag
   3      -38.89516219      -0.00041104     0.13D-02     0.12D-02     2     0       0.03      0.12    diag
   4      -38.89520898      -0.00004680     0.36D-03     0.31D-03     3     0       0.03      0.15    diag
   5      -38.89521302      -0.00000403     0.89D-04     0.12D-03     4     0       0.03      0.18    diag
   6      -38.89521330      -0.00000029     0.23D-04     0.41D-04     5     0       0.03      0.21    diag
   7      -38.89521331      -0.00000001     0.27D-05     0.73D-05     6     0       0.03      0.24    diag
   8      -38.89521331      -0.00000000     0.61D-06     0.17D-05     7     0       0.03      0.27    fixocc
   9      -38.89521331      -0.00000000     0.10D-06     0.12D-06     0     0       0.03      0.30    diag

 Final occupancy:   3   0   1   0

 !RHF STATE 1.1 Energy                -38.895213310413
  RHF One-electron energy             -63.589371265306
  RHF Two-electron energy              18.649163556093
  RHF Kinetic energy                   38.868938133653
  RHF Nuclear energy                    6.044994398800
  RHF Virial quotient                  -1.000675994201

 !RHF STATE 1.1 Dipole moment           0.00000000     0.00000000     0.75095352
 Dipole moment /Debye                   0.00000000     0.00000000     1.90873346

 Orbital energies:

           1.1          2.1          3.1          4.1          5.1
    -11.291231    -0.892919    -0.396125     0.122321     0.324634

           1.2          2.2
      0.042177     0.380469

           1.3          2.3          3.3
     -0.565247     0.187980     0.290365

           1.4          2.4
      0.571052     0.894487


 HOMO      3.1    -0.396125 =     -10.7791eV
 LUMO      1.2     0.042177 =       1.1477eV
 LUMO-HOMO         0.438303 =      11.9268eV

 Orbitals saved in record  2100.2


 **********************************************************************************************************************************
 DATASETS  * FILE   NREC   LENGTH (MB)   RECORD NAMES
              1      19       95.57       500      610      700      900      950      970     1000      129      960     1100   
                                          VAR    BASINP    GEOM    SYMINP    ZMAT    AOBASIS   BASIS     P2S    ABASIS      S 
                                         1400     1410     1200     1210     1080     1600     1650     1300     1700   
                                           T        V       H0       H01     AOSYM     SMH    MOLCAS    ERIS     OPER   

              2       4        0.50       700     1000      520     2100   
                                         GEOM     BASIS   MCVARS     RHF  

 PROGRAMS   *        TOTAL    HF-SCF       INT
 CPU TIMES  *         1.44      0.31      1.03
 REAL TIME  *         7.61 SEC
 DISK USED  *       266.50 MB
 **********************************************************************************************************************************


 PROGRAM * MP2 (Closed-shell)     Authors: C. Hampel, H.-J. Werner, 1991, M. Deegan, P.J. Knowles, 1992


 CORETYPE=SMALL

 Convergence thresholds:  THRVAR = 1.00D-08  THRDEN = 1.00D-06

 Number of closed-shell orbitals:   4 (   3   0   1   0 )
 Number of external orbitals:     140 (  51  30  39  20 )

 Molecular orbitals read from record     2100.2  Type=RHF/CANONICAL  

 Number of N-1 electron functions:               4
 Number of N-2 electron functions:              10
 Number of singly external CSFs:               192
 Number of doubly external CSFs:             42924
 Total number of CSFs:                       43117

 Length of J-op  integral file:               0.00 MB
 Length of K-op  integral file:               0.46 MB

 Integral transformation finished. Total CPU:   0.06 sec, npass=  1  Memory used:   0.15 MW

 Memory needed for MP2:                      0.03 MW

 SCS-MP2 correlation energy:           -0.217563847490   (PS=  1.200000  PT=  0.333333)
 SCS-MP2 total energy:                -39.112777157903


  Reference energy                    -38.895213310413

  Correlated core orbitals:             1.1
  Orbital energies:                   -11.2912

  MP2 core-core energy                 -0.039244685772
  MP2 core-valence energy              -0.011961399859
  MP2 valence correlation energy       -0.148711438850

  MP2 singlet pair energy              -0.161257017369
  MP2 triplet pair energy              -0.038660507112
  MP2 correlation energy               -0.199917524481

 !MP2 total energy                    -39.095130834894


 **********************************************************************************************************************************
 DATASETS  * FILE   NREC   LENGTH (MB)   RECORD NAMES
              1      20       96.32       500      610      700      900      950      970     1000      129      960     1100   
                                          VAR    BASINP    GEOM    SYMINP    ZMAT    AOBASIS   BASIS     P2S    ABASIS      S 
                                         1400     1410     1200     1210     1080     1600     1650     1300     1700     1380   
                                           T        V       H0       H01     AOSYM     SMH    MOLCAS    ERIS     OPER     JKOP   

              2       4        0.50       700     1000      520     2100   
                                         GEOM     BASIS   MCVARS     RHF  

 PROGRAMS   *        TOTAL       MP2    HF-SCF       INT
 CPU TIMES  *         1.53      0.08      0.31      1.03
 REAL TIME  *         8.07 SEC
 DISK USED  *       266.50 MB
 **********************************************************************************************************************************

 Dump information in style XML to xml output                                                                      

 Orbitals will not be exported.

 **********************************************************************************************************************************

 MP2/cc-pCVQZ energy=    -39.095130834894

             MP2          HF-SCF
    -39.09513083    -38.89521331
 **********************************************************************************************************************************
 Molpro calculation terminated
