
 Working directory              : /var/folders/2v/xbgp75_9785319ghcgb4zr4r0000gp/T//molpro.FQraKteNcj/
 Global scratch directory       : /var/folders/2v/xbgp75_9785319ghcgb4zr4r0000gp/T//molpro.FQraKteNcj/
 Wavefunction directory         : /Users/sacpjk/wfu/
 Main file repository           : /var/folders/2v/xbgp75_9785319ghcgb4zr4r0000gp/T//molpro.FQraKteNcj/

 id        : peterk

 Nodes                        nprocs
 Cardiff-University-G34YLXT77Y    1
 GA implementation: MPI file
 GA implementation (serial work in mppx): MPI file

 Using customized tuning parameters: mindgm=1; mindgv=20; mindgc=4; mindgr=1; noblas=0; minvec=7
 default implementation of scratch files=df  


 Variables initialized (1032), CPU time= 0.00 sec
 
 symmetry,nosym
 
 
 geometry={
            9
     C         -0.71731126      0.00000000      0.73536428
     C         -1.09398697      0.00000000     -0.56903173
     O          0.00000000      0.00000000     -1.38121434
     C          1.09398697      0.00000000     -0.56903173
     C          0.71731126      0.00000000      0.73536428
     H         -1.37199245      0.00000000      1.59213938
     H         -2.04808591      0.00000000     -1.06786475
     H          2.04808591      0.00000000     -1.06786475
     H          1.37199245      0.00000000      1.59213938
 }
 basis=cc-pVTZ
 
 
 
 hf; ccsd(t)
 
 
 
 {put,xml;noorbitals,nobasis}
 Commands initialized (841), CPU time= 0.01 sec, 704 directives.
 Default parameters read. Elapsed time= 1.39 sec

 Checking input...
 Passed
1


                                         ***  PROGRAM SYSTEM MOLPRO  ***
                                       Copyright, TTI GmbH Stuttgart, 2015
                                    Version 2023.1 linked Tue Jun  6 09:54:11 2023


 **********************************************************************************************************************************
 LABEL *                                                                                                                                                                 
  64 bit serial version                                                                  DATE: 11-Jun-23          TIME: 23:57:25  
 **********************************************************************************************************************************

 SHA1:             8ebb0dd001088a5c915591db1a321413035db0b1
 **********************************************************************************************************************************

 Memory per process:       393 MW
 Total memory per node:    524 MW
 Total GA space:           131 MW

 GA preallocation disabled
 GA check enabled

 Variable memory set to 393.2 MW

 ZSYMEL=NOSYM


 Geometry recognized as XYZ

 SETTING BASIS          =    CC-PVTZ


 Recomputing integrals since basis changed


 Using spherical harmonics

 Library entry C      S cc-pVTZ              selected for orbital group  1
 Library entry C      P cc-pVTZ              selected for orbital group  1
 Library entry C      D cc-pVTZ              selected for orbital group  1
 Library entry C      F cc-pVTZ              selected for orbital group  1
 Library entry O      S cc-pVTZ              selected for orbital group  2
 Library entry O      P cc-pVTZ              selected for orbital group  2
 Library entry O      D cc-pVTZ              selected for orbital group  2
 Library entry O      F cc-pVTZ              selected for orbital group  2
 Library entry H      S cc-pVTZ              selected for orbital group  4
 Library entry H      P cc-pVTZ              selected for orbital group  4
 Library entry H      D cc-pVTZ              selected for orbital group  4


 PROGRAM * SEWARD (Integral evaluation for generally contracted gaussian basis sets)     Author: Roland Lindh, 1990

 Geometry written to block  1 of record 700


 Point group  C1  



 ATOMIC COORDINATES

 NR  ATOM    CHARGE       X              Y              Z

   1  C       6.00   -1.355521828    0.000000000    1.389637091
   2  C       6.00   -2.067335757    0.000000000   -1.075314126
   3  O       8.00    0.000000000    0.000000000   -2.610116822
   4  C       6.00    2.067335757    0.000000000   -1.075314126
   5  C       6.00    1.355521828    0.000000000    1.389637091
   6  H       1.00   -2.592689976    0.000000000    3.008707380
   7  H       1.00   -3.870321450    0.000000000   -2.017971916
   8  H       1.00    3.870321450    0.000000000   -2.017971916
   9  H       1.00    2.592689976    0.000000000    3.008707380

 Bond lengths in Bohr (Angstrom)

 1-2  2.565670199  1-5  2.711043655  1-6  2.037639229  2-3  2.574780855  2-7  2.034541992
     ( 1.357694200)     ( 1.434622520)     ( 1.078272244)     ( 1.362515351)     ( 1.076633257)

 3-4  2.574780855  4-5  2.565670199  4-8  2.034541992  5-9  2.037639229
     ( 1.362515351)     ( 1.357694200)     ( 1.076633257)     ( 1.078272244)

 Bond angles

  1-2-3  110.48307374   1-2-7  133.70933251   1-5-4  106.10734474   1-5-9  127.38426163

  2-1-5  106.10734474   2-1-6  126.50839363   2-3-4  106.81916303   3-2-7  115.80759375

  3-4-5  110.48307374   3-4-8  115.80759375   4-5-9  126.50839363   5-1-6  127.38426163

  5-4-8  133.70933251

 NUCLEAR CHARGE:                   36
 NUMBER OF PRIMITIVE AOS:         303
 NUMBER OF SYMMETRY AOS:          274
 NUMBER OF CONTRACTIONS:          206   (  206A   )
 NUMBER OF INNER CORE ORBITALS:     0   (    0A   )
 NUMBER OF OUTER CORE ORBITALS:     5   (    5A   )
 NUMBER OF VALENCE ORBITALS:       24   (   24A   )


 NUCLEAR REPULSION ENERGY  160.96170046

 EXTRA SYMMETRY OF AOS IN SYMMETRY 1:   1 1 1 1 1 2 1 1 2 1   1 2 1 1 2 1 1 2 1 2   1 1 2 1 2 1 1 2 2 1   1 1 1 1 1 2 1 1 2 1
                                        1 2 1 1 2 1 1 2 1 2   1 1 2 1 2 1 1 2 2 1   1 1 1 1 1 2 1 1 2 1   1 2 1 1 2 1 1 2 1 2
                                        1 1 2 1 2 1 1 2 2 1   1 1 1 1 1 2 1 1 2 1   1 2 1 1 2 1 1 2 1 2   1 1 2 1 2 1 1 2 2 1
                                        1 1 1 1 1 2 1 1 2 1   1 2 1 1 2 1 1 2 1 2   1 1 2 1 2 1 1 2 2 1   1 1 1 1 2 1 1 2 1 1
                                        2 1 1 2 1 1 1 1 2 1   1 2 1 1 2 1 1 2 1 1   1 1 2 1 1 2 1 1 2 1   1 2 1 1 1 1 2 1 1 2
                                        1 1 2 1 1 2

 Eigenvalues of metric

         1 0.123E-03 0.744E-03 0.999E-03 0.110E-02 0.117E-02 0.134E-02 0.141E-02 0.144E-02


 Contracted 2-electron integrals neglected if value below      1.0D-11
 AO integral compression algorithm  1   Integral accuracy      1.0D-11

     504.889 MB (compressed) written to integral file ( 25.4%)


 NUMBER OF SORTED TWO-ELECTRON INTEGRALS:  227303181.     BUFFER LENGTH:  32768
 NUMBER OF SEGMENTS:  15  SEGMENT LENGTH:   15999503      RECORD LENGTH: 524288

 Memory used in sort:      16.56 MW

 SORT1 READ   248681748. AND WROTE   108305472. INTEGRALS IN    317 RECORDS. CPU TIME:     1.54 SEC, REAL TIME:     1.93 SEC
 SORT2 READ   108305472. AND WROTE   227303181. INTEGRALS IN   1926 RECORDS. CPU TIME:     1.15 SEC, REAL TIME:     1.43 SEC

 FILE SIZES:   FILE 1:   536.6 MBYTE,  FILE 4:  1329.7 MBYTE,   TOTAL:   1866.3 MBYTE

 OPERATOR DM      FOR CENTER  0  COORDINATES:    0.000000    0.000000    0.000000


 **********************************************************************************************************************************
 DATASETS  * FILE   NREC   LENGTH (MB)   RECORD NAMES
              1      19      456.73       500      610      700      900      950      970     1000      129      960     1100   
                                          VAR    BASINP    GEOM    SYMINP    ZMAT    AOBASIS   BASIS     P2S    ABASIS      S 
                                         1400     1410     1200     1210     1080     1600     1650     1300     1700   
                                           T        V       H0       H01     AOSYM     SMH    MOLCAS    ERIS     OPER   

 PROGRAMS   *        TOTAL       INT
 CPU TIMES  *         8.51      8.40
 REAL TIME  *        13.52 SEC
 DISK USED  *         1.74 GB
 **********************************************************************************************************************************


 Program * Restricted Hartree-Fock

 Orbital guess generated from atomic densities. Full valence occupancy:   29

 Initial occupancy:  18

 NELEC=   36   SYM=1   MS2= 0   THRE=1.0D-08   THRD=3.2D-06   THRG=3.2D-06  HFMA2=F  DIIS_START=2   DIIS_MAX=10   DIIS_INCORE=F

 Level shifts:    0.00 (CLOSED)    0.00 (OPEN)    0.30 (GAP_MIN)

 ITER           ETOT              DE          GRAD        DDIFF     DIIS  NEXP   TIME(IT)  TIME(TOT)  DIAG
   1     -228.65600451    -228.65600451     0.00D+00     0.55D-01     0     0       1.09      2.02    start
   2     -228.69769754      -0.04169303     0.34D-02     0.47D-02     1     0       1.04      3.06    diag
   3     -228.70520468      -0.00750714     0.15D-02     0.18D-02     2     0       1.06      4.12    diag
   4     -228.70664324      -0.00143856     0.58D-03     0.69D-03     3     0       1.04      5.16    diag
   5     -228.70674438      -0.00010114     0.17D-03     0.18D-03     4     0       1.00      6.16    diag
   6     -228.70676324      -0.00001886     0.49D-04     0.71D-04     5     0       1.09      7.25    diag
   7     -228.70676887      -0.00000563     0.21D-04     0.46D-04     6     0       1.10      8.35    diag
   8     -228.70676935      -0.00000048     0.61D-05     0.14D-04     7     0       1.10      9.45    fixocc
   9     -228.70676939      -0.00000004     0.21D-05     0.42D-05     8     0       1.10     10.55    diag
  10     -228.70676939      -0.00000000     0.37D-06     0.81D-06     9     0       1.17     11.72    diag/orth
  11     -228.70676939      -0.00000000     0.85D-07     0.16D-06     0     0       1.08     12.80    diag

 Final occupancy:  18

 !RHF STATE 1.1 Energy               -228.706769393376
  RHF One-electron energy            -629.049938275132
  RHF Two-electron energy             239.381468420772
  RHF Kinetic energy                  228.317617687837
  RHF Nuclear energy                  160.961700460983
  RHF Virial quotient                  -1.001704431351

 !RHF STATE 1.1 Dipole moment           0.00000000    -0.00000000     0.29673186
 Dipole moment /Debye                   0.00000000    -0.00000000     0.75421717

 Orbital energies:

           1.1          2.1          3.1          4.1          5.1          6.1          7.1          8.1          9.1         10.1
    -20.620940   -11.286068   -11.286020   -11.229567   -11.228598    -1.455122    -1.081919    -1.002487    -0.804732    -0.779576

          11.1         12.1         13.1         14.1         15.1         16.1         17.1         18.1         19.1         20.1
     -0.737534    -0.631043    -0.607586    -0.575442    -0.562911    -0.538314    -0.396513    -0.319133     0.149647     0.158427


 HOMO     18.1    -0.319133 =      -8.6841eV
 LUMO     19.1     0.149647 =       4.0721eV
 LUMO-HOMO         0.468780 =      12.7562eV

 Orbitals saved in record  2100.2


 **********************************************************************************************************************************
 DATASETS  * FILE   NREC   LENGTH (MB)   RECORD NAMES
              1      19      456.73       500      610      700      900      950      970     1000      129      960     1100   
                                          VAR    BASINP    GEOM    SYMINP    ZMAT    AOBASIS   BASIS     P2S    ABASIS      S 
                                         1400     1410     1200     1210     1080     1600     1650     1300     1700   
                                           T        V       H0       H01     AOSYM     SMH    MOLCAS    ERIS     OPER   

              2       4        1.19       700     1000      520     2100   
                                         GEOM     BASIS   MCVARS     RHF  

 PROGRAMS   *        TOTAL    HF-SCF       INT
 CPU TIMES  *        21.32     12.80      8.40
 REAL TIME  *        28.67 SEC
 DISK USED  *         1.74 GB
 **********************************************************************************************************************************


 PROGRAM * CCSD (Closed-shell coupled cluster)     Authors: C. Hampel, H.-J. Werner, 1991, M. Deegan, P.J. Knowles, 1992


 Convergence thresholds:  THRVAR = 1.00D-08  THRDEN = 1.00D-06

 CCSD(T)     terms to be evaluated (factor= 1.000)


 Number of core orbitals:           5 (   5 )
 Number of closed-shell orbitals:  13 (  13 )
 Number of external orbitals:     188 ( 188 )

 Molecular orbitals read from record     2100.2  Type=RHF/CANONICAL  

 Number of N-1 electron functions:              13
 Number of N-2 electron functions:              91
 Number of singly external CSFs:              2444
 Number of doubly external CSFs:           2987790
 Total number of CSFs:                     2990235

 Length of J-op  integral file:               0.00 MB
 Length of K-op  integral file:               2.98 MB
 Length of 3-ext integral record:             0.00 MB

 Memory could be reduced to 110.75 Mwords without degradation in triples

 Integral transformation finished. Total CPU:   6.75 sec, npass=  1  Memory used:  68.81 MW

 Reference energy:                   -228.70676939

 MP2 singlet pair energy:              -0.53812450
 MP2 triplet pair energy:              -0.33120879
 MP2 correlation energy:               -0.86933329
 MP2 total energy:                   -229.57610269

 SCS-MP2 correlation energy:           -0.85183487   (PS=  1.200000  PT=  0.333333)
 SCS-MP2 total energy:               -229.55860427

 ITER.      SQ.NORM     CORR.ENERGY   TOTAL ENERGY   ENERGY CHANGE        DEN1      VAR(S)    VAR(P)  DIIS     TIME  TIME/IT
   1      1.26661788    -0.88225530  -229.58902469    -0.01292201     0.01180774  0.51D-02  0.56D-02  1  1    38.12    10.67
   2      1.28549455    -0.88371321  -229.59048260    -0.00145791    -0.02083775  0.85D-04  0.74D-03  2  2    48.19    10.87
   3      1.29342251    -0.88385867  -229.59062806    -0.00014547    -0.00399088  0.91D-04  0.54D-04  3  3    57.05    10.63
   4      1.29634475    -0.88378989  -229.59055928     0.00006878    -0.00109836  0.71D-05  0.95D-05  4  4    66.59    10.65
   5      1.29763805    -0.88382147  -229.59059086    -0.00003158    -0.00029483  0.22D-05  0.82D-06  5  5    76.41    10.72
   6      1.29800197    -0.88380502  -229.59057441     0.00001645    -0.00005101  0.38D-06  0.14D-06  6  6    85.66    10.64
   7      1.29809248    -0.88380234  -229.59057173     0.00000267    -0.00000371  0.92D-07  0.36D-07  6  2    95.58    10.66
   8      1.29812421    -0.88380107  -229.59057047     0.00000127    -0.00000077  0.16D-07  0.67D-08  6  1   105.11    10.61
   9      1.29813510    -0.88380062  -229.59057001     0.00000046     0.00000208  0.82D-09  0.11D-08  6  4   115.30    10.66
  10      1.29813742    -0.88380084  -229.59057023    -0.00000022    -0.00000041  0.95D-10  0.80D-10  6  3   125.17    10.66

 Norm of t1 vector:      0.09652933      S-energy:    -0.00000012      T1 diagnostic:  0.01338621
                                                                       D1 diagnostic:  0.04310485
                                                                       D2 diagnostic:  0.18991322 (internal)

 Doubles amplitudes (print threshold =  0.500E-01):

         I         J         SYM. A    SYM. B    A         B      T(IJ, AB)

        13        13         1         1         1         1     -0.07782384


 Total CPU time for triples:    185.11 sec


 RESULTS
 =======

  Reference energy                   -228.706769393375
  CCSD singlet pair energy             -0.589781369601
  CCSD triplet pair energy             -0.294019348283
  CCSD correlation energy              -0.883800837316

  Triples (T) contribution             -0.044360106214
  Total correlation energy             -0.928160943530

  CCSD total energy                  -229.590570230691
  CCSD[T] energy                     -229.636379264531
  CCSD-T energy                      -229.634319608452
 !CCSD(T) total energy               -229.634930336905

 Timing summary (sec):

 STEP                 CPU(USER)    SYS     CPU(TOT)    WALL
 Transformation          6.88      0.60      7.48      7.98
 CCSD iterations       118.39      4.83    123.22    107.09
 Triples               185.11      6.95    192.06    201.21

 Program statistics:

 Available memory in ccsd:               393215306
 Min. memory needed in ccsd:               7710861
 Max. memory used in ccsd:                10377941
 Max. memory used in cckext:               8133374 (10 integral passes)



 **********************************************************************************************************************************
 DATASETS  * FILE   NREC   LENGTH (MB)   RECORD NAMES
              1      20      832.92       500      610      700      900      950      970     1000      129      960     1100   
                                          VAR    BASINP    GEOM    SYMINP    ZMAT    AOBASIS   BASIS     P2S    ABASIS      S 
                                         1400     1410     1200     1210     1080     1600     1650     1300     1700     1380   
                                           T        V       H0       H01     AOSYM     SMH    MOLCAS    ERIS     OPER     JKOP   

              2       4        1.19       700     1000      520     2100   
                                         GEOM     BASIS   MCVARS     RHF  

 PROGRAMS   *        TOTAL   CCSD(T)    HF-SCF       INT
 CPU TIMES  *       310.27    288.94     12.80      8.40
 REAL TIME  *       345.58 SEC
 DISK USED  *         1.74 GB
 **********************************************************************************************************************************

 Dump information in style XML to xml output                                                                      

 Orbitals will not be exported.

 **********************************************************************************************************************************

 CCSD(T)/cc-pVTZ energy=   -229.634930336905

         CCSD(T)          HF-SCF
   -229.63493034   -228.70676939
 **********************************************************************************************************************************
 Molpro calculation terminated
