
 Working directory              : /var/folders/2v/xbgp75_9785319ghcgb4zr4r0000gp/T//molpro.k3PM7C1uNZ/
 Global scratch directory       : /var/folders/2v/xbgp75_9785319ghcgb4zr4r0000gp/T//molpro.k3PM7C1uNZ/
 Wavefunction directory         : /Users/sacpjk/wfu/
 Main file repository           : /var/folders/2v/xbgp75_9785319ghcgb4zr4r0000gp/T//molpro.k3PM7C1uNZ/

 id        : peterk

 Nodes                        nprocs
 Cardiff-University-G34YLXT77Y    1
 GA implementation: MPI file
 GA implementation (serial work in mppx): MPI file

 Using customized tuning parameters: mindgm=1; mindgv=20; mindgc=4; mindgr=1; noblas=0; minvec=7
 default implementation of scratch files=df  


 Variables initialized (1037), CPU time= 0.01 sec
 
 symmetry,nosym
 
 
 geometry={
 8
  c         -0.434803299979    0.316189783769   -0.230664827602
  o         -0.688982357910    1.272292030939   -0.929502575867
  o         -1.382707918986   -0.458150442963    0.337021777401
  h         -2.243707306849   -0.090851455961    0.069250635151
  c          0.940831852973   -0.165260045731    0.119486080121
  h          1.679217666079    0.472290041950   -0.351364243895
  h          1.067042368787   -0.153405320171    1.199521404459
  h          1.063108995886   -1.193104591884   -0.213748249663
 }
 basis=aug-cc-pVDZ
 
 
 
 hf; mp2
 
 
 
 {put,xml;noorbitals,nobasis}
 Commands initialized (841), CPU time= 0.00 sec, 716 directives.
 Default parameters read. Elapsed time= 5.35 sec

 Checking input...
 Passed
1


                                         ***  PROGRAM SYSTEM MOLPRO  ***
                                       Copyright, TTI GmbH Stuttgart, 2015
                                    Version 2023.1 linked Fri Jul 14 07:57:55 2023


 **********************************************************************************************************************************
 LABEL *                                                                                                                                                                 
  64 bit serial version                                                                  DATE: 15-Jul-23          TIME: 12:52:38  
 **********************************************************************************************************************************

 SHA1:             8f90ea6339eadc8ec4622dc21e4296b0c92029f5
 **********************************************************************************************************************************

 Memory per process:      1573 MW
 Total memory per node:   2097 MW
 Total GA space:           524 MW

 GA preallocation disabled
 GA check enabled

 Variable memory set to 1572.9 MW

 ZSYMEL=NOSYM


 Geometry recognized as XYZ

 SETTING BASIS          =    AUG-CC-PVDZ


 Recomputing integrals since basis changed


 Using spherical harmonics

 Library entry C      S aug-cc-pVDZ          selected for orbital group  1
 Library entry C      P aug-cc-pVDZ          selected for orbital group  1
 Library entry C      D aug-cc-pVDZ          selected for orbital group  1
 Library entry O      S aug-cc-pVDZ          selected for orbital group  2
 Library entry O      P aug-cc-pVDZ          selected for orbital group  2
 Library entry O      D aug-cc-pVDZ          selected for orbital group  2
 Library entry H      S aug-cc-pVDZ          selected for orbital group  3
 Library entry H      P aug-cc-pVDZ          selected for orbital group  3


 PROGRAM * SEWARD (Integral evaluation for generally contracted gaussian basis sets)     Author: Roland Lindh, 1990

 Geometry written to block  1 of record 700


 Point group  C1  



 ATOMIC COORDINATES

 NR  ATOM    CHARGE       X              Y              Z

   1  C       6.00   -0.821659155    0.597512095   -0.435893351
   2  O       8.00   -1.301987961    2.404283489   -1.756505301
   3  O       8.00   -2.612939277   -0.865778861    0.636878857
   4  H       1.00   -4.239992314   -0.171684370    0.130864734
   5  C       6.00    1.777914531   -0.312296226    0.225795967
   6  H       1.00    3.173261493    0.892498831   -0.663982191
   7  H       1.00    2.016417840   -0.289894041    2.266766935
   8  H       1.00    2.008984843   -2.254640917   -0.403925651

 Bond lengths in Bohr (Angstrom)

 1-2  2.288919954  1-3  2.549655880  1-5  2.832554904  3-4  1.839869299  5-6  2.047004993
     ( 1.211244277)     ( 1.349219787)     ( 1.498923504)     ( 0.973616904)     ( 1.083228393)

 5-7  2.054981308  5-8  2.054907712
     ( 1.087449277)     ( 1.087410332)

 Bond angles

  1-3-4  106.80191145   1-5-6  109.57256808   1-5-7  109.57389652   1-5-8  109.58561376

  2-1-3  123.25385323   2-1-5  125.51430755   3-1-5  111.23183915   6-5-7  110.25385240

  6-5-8  110.27152505   7-5-8  107.55443570

 NUCLEAR CHARGE:                   32
 NUMBER OF PRIMITIVE AOS:         192
 NUMBER OF SYMMETRY AOS:          184
 NUMBER OF CONTRACTIONS:          128   (  128A   )
 NUMBER OF INNER CORE ORBITALS:     0   (    0A   )
 NUMBER OF OUTER CORE ORBITALS:     4   (    4A   )
 NUMBER OF VALENCE ORBITALS:       20   (   20A   )


 NUCLEAR REPULSION ENERGY  121.22795390

 Eigenvalues of metric

         1 0.107E-03 0.161E-03 0.506E-03 0.581E-03 0.607E-03 0.800E-03 0.137E-02 0.152E-02


 Contracted 2-electron integrals neglected if value below      1.0D-11
 AO integral compression algorithm  1   Integral accuracy      1.0D-11

     171.966 MB (compressed) written to integral file ( 53.7%)


 NUMBER OF SORTED TWO-ELECTRON INTEGRALS:   34084896.     BUFFER LENGTH:  32768
 NUMBER OF SEGMENTS:   3  SEGMENT LENGTH:   15998004      RECORD LENGTH: 524288

 Memory used in sort:      16.56 MW

 SORT1 READ    40015940. AND WROTE    33913169. INTEGRALS IN     98 RECORDS. CPU TIME:     0.24 SEC, REAL TIME:     0.33 SEC
 SORT2 READ    33913169. AND WROTE    34084896. INTEGRALS IN    656 RECORDS. CPU TIME:     0.24 SEC, REAL TIME:     0.30 SEC

 FILE SIZES:   FILE 1:   202.7 MBYTE,  FILE 4:   411.1 MBYTE,   TOTAL:    613.8 MBYTE

 OPERATOR DM      FOR CENTER  0  COORDINATES:    0.000000    0.000000    0.000000


 **********************************************************************************************************************************
 DATASETS  * FILE   NREC   LENGTH (MB)   RECORD NAMES
              1      19      172.08       500      610      700      900      950      970     1000      129      960     1100   
                                          VAR    BASINP    GEOM    SYMINP    ZMAT    AOBASIS   BASIS     P2S    ABASIS      S 
                                         1400     1410     1200     1210     1080     1600     1650     1300     1700   
                                           T        V       H0       H01     AOSYM     SMH    MOLCAS    ERIS     OPER   

 PROGRAMS   *        TOTAL       INT
 CPU TIMES  *         1.58      1.49
 REAL TIME  *        10.48 SEC
 DISK USED  *       585.83 MB
 **********************************************************************************************************************************


 Program * Restricted Hartree-Fock

 Orbital guess generated from atomic densities. Full valence occupancy:   24

 Initial occupancy:  16

 NELEC=   32   SYM=1   MS2= 0   THRE=1.0D-08   THRD=3.2D-06   THRG=3.2D-06  HFMA2=F  DIIS_START=2   DIIS_MAX=10   DIIS_INCORE=F

 Level shifts:    0.00 (CLOSED)    0.00 (OPEN)    0.30 (GAP_MIN)

 ITER           ETOT              DE          GRAD        DDIFF     DIIS  NEXP   TIME(IT)  TIME(TOT)  DIAG
   1     -227.74767078    -227.74767078     0.00D+00     0.83D-01     0     0       0.13      0.25    start
   2     -227.81206242      -0.06439164     0.78D-02     0.15D-01     1     0       0.13      0.38    diag
   3     -227.84703831      -0.03497588     0.52D-02     0.56D-02     2     0       0.12      0.50    diag
   4     -227.84871191      -0.00167361     0.82D-03     0.14D-02     3     0       0.13      0.63    diag
   5     -227.84899851      -0.00028660     0.34D-03     0.56D-03     4     0       0.13      0.76    diag
   6     -227.84903112      -0.00003261     0.95D-04     0.17D-03     5     0       0.12      0.88    diag
   7     -227.84903756      -0.00000644     0.38D-04     0.83D-04     6     0       0.13      1.01    diag
   8     -227.84903857      -0.00000101     0.14D-04     0.32D-04     7     0       0.12      1.13    fixocc
   9     -227.84903872      -0.00000014     0.50D-05     0.15D-04     8     0       0.13      1.26    diag
  10     -227.84903872      -0.00000001     0.98D-06     0.28D-05     9     0       0.12      1.38    diag/orth
  11     -227.84903872      -0.00000000     0.23D-06     0.43D-06     0     0       0.13      1.51    diag

 Final occupancy:  16

 !RHF STATE 1.1 Energy               -227.849038720664
  RHF One-electron energy            -551.656799698160
  RHF Two-electron energy             202.579807081224
  RHF Kinetic energy                  227.506781301603
  RHF Nuclear energy                  121.227953896272
  RHF Virial quotient                  -1.001504383373

 !RHF STATE 1.1 Dipole moment           0.17213675    -0.63564030     0.46448506
 Dipole moment /Debye                   0.43752797    -1.61563649     1.18060326

 Orbital energies:

           1.1          2.1          3.1          4.1          5.1          6.1          7.1          8.1          9.1         10.1
    -20.626669   -20.562168   -11.399850   -11.252561    -1.471836    -1.366854    -1.031534    -0.828686    -0.709462    -0.682974

          11.1         12.1         13.1         14.1         15.1         16.1         17.1         18.1
     -0.653081    -0.585593    -0.574758    -0.562767    -0.484130    -0.455638     0.032929     0.046773


 HOMO     16.1    -0.455638 =     -12.3985eV
 LUMO     17.1     0.032929 =       0.8961eV
 LUMO-HOMO         0.488567 =      13.2946eV

 Orbitals saved in record  2100.2


 **********************************************************************************************************************************
 DATASETS  * FILE   NREC   LENGTH (MB)   RECORD NAMES
              1      19      172.08       500      610      700      900      950      970     1000      129      960     1100   
                                          VAR    BASINP    GEOM    SYMINP    ZMAT    AOBASIS   BASIS     P2S    ABASIS      S 
                                         1400     1410     1200     1210     1080     1600     1650     1300     1700   
                                           T        V       H0       H01     AOSYM     SMH    MOLCAS    ERIS     OPER   

              2       4        0.76       700     1000      520     2100   
                                         GEOM     BASIS   MCVARS     RHF  

 PROGRAMS   *        TOTAL    HF-SCF       INT
 CPU TIMES  *         3.09      1.51      1.49
 REAL TIME  *        14.59 SEC
 DISK USED  *       585.83 MB
 **********************************************************************************************************************************


 PROGRAM * MP2 (Closed-shell)     Authors: C. Hampel, H.-J. Werner, 1991, M. Deegan, P.J. Knowles, 1992


 Convergence thresholds:  THRVAR = 1.00D-08  THRDEN = 1.00D-06

 Number of core orbitals:           4 (   4 )
 Number of closed-shell orbitals:  12 (  12 )
 Number of external orbitals:     112 ( 112 )

 Molecular orbitals read from record     2100.2  Type=RHF/CANONICAL  

 Number of N-1 electron functions:              12
 Number of N-2 electron functions:              78
 Number of singly external CSFs:              1344
 Number of doubly external CSFs:            903840
 Total number of CSFs:                      905185

 Length of J-op  integral file:               0.00 MB
 Length of K-op  integral file:               1.19 MB

 Integral transformation finished. Total CPU:   0.27 sec, npass=  1  Memory used:   2.48 MW

 Memory needed for MP2:                      0.08 MW

 SCS-MP2 correlation energy:           -0.656968182293   (PS=  1.200000  PT=  0.333333)
 SCS-MP2 total energy:               -228.506006902957


  Reference energy                   -227.849038720664
  MP2 singlet pair energy              -0.410662941888
  MP2 triplet pair energy              -0.263848905044
  MP2 correlation energy               -0.674511846931

 !MP2 total energy                   -228.523550567595


 **********************************************************************************************************************************
 DATASETS  * FILE   NREC   LENGTH (MB)   RECORD NAMES
              1      20      186.99       500      610      700      900      950      970     1000      129      960     1100   
                                          VAR    BASINP    GEOM    SYMINP    ZMAT    AOBASIS   BASIS     P2S    ABASIS      S 
                                         1400     1410     1200     1210     1080     1600     1650     1300     1700     1380   
                                           T        V       H0       H01     AOSYM     SMH    MOLCAS    ERIS     OPER     JKOP   

              2       4        0.76       700     1000      520     2100   
                                         GEOM     BASIS   MCVARS     RHF  

 PROGRAMS   *        TOTAL       MP2    HF-SCF       INT
 CPU TIMES  *         3.42      0.33      1.51      1.49
 REAL TIME  *        20.35 SEC
 DISK USED  *       585.83 MB
 **********************************************************************************************************************************

 Dump information in style XML to xml output                                                                      

 Orbitals will not be exported.

 **********************************************************************************************************************************

 MP2/aug-cc-pVDZ energy=   -228.523550567595

             MP2          HF-SCF
   -228.52355057   -227.84903872
 **********************************************************************************************************************************
 Molpro calculation terminated
