
 Working directory              : /var/folders/2v/xbgp75_9785319ghcgb4zr4r0000gp/T//molpro.RiN9miNbcc/
 Global scratch directory       : /var/folders/2v/xbgp75_9785319ghcgb4zr4r0000gp/T//molpro.RiN9miNbcc/
 Wavefunction directory         : /Users/sacpjk/wfu/
 Main file repository           : /var/folders/2v/xbgp75_9785319ghcgb4zr4r0000gp/T//molpro.RiN9miNbcc/

 id        : peterk

 Nodes                        nprocs
 Cardiff-University-G34YLXT77Y    1
 GA implementation: MPI file
 GA implementation (serial work in mppx): MPI file

 Using customized tuning parameters: mindgm=1; mindgv=20; mindgc=4; mindgr=1; noblas=0; minvec=7
 default implementation of scratch files=df  


 Variables initialized (1032), CPU time= 0.01 sec
 
 symmetry,nosym
 
 
 geometry={
           16
     H         -1.20945818      1.86172566      1.29003846
     C         -0.45440791      1.35504148      0.69809425
     C          0.48269242      0.47260917      1.24701344
     C         -0.45440791      1.35504148     -0.69809425
     H          2.36299609      1.39459750      0.00000000
     P          1.78720189      0.08011503      0.00000000
     C         -0.45440791     -1.47386852      0.69782325
     H          0.66001749      0.39345614      2.31291482
     C         -0.45440791     -1.47386852     -0.69782325
     H         -1.20945818      1.86172566     -1.29003846
     C          0.48269242      0.47260917     -1.24701344
     H          0.66001749      0.39345614     -2.31291482
     H          0.26801935     -2.07939874     -1.23145844
     H         -1.36755424     -1.26692145      1.23885944
     H          0.26801935     -2.07939874      1.23145844
     H         -1.36755424     -1.26692145     -1.23885944
 }
 basis=cc-pVDZ
 
 
 
 hf; ccsd(t)
 
 
 
 {put,xml;noorbitals,nobasis}
 Commands initialized (841), CPU time= 0.00 sec, 704 directives.
 Default parameters read. Elapsed time= 1.45 sec

 Checking input...
 Passed
1


                                         ***  PROGRAM SYSTEM MOLPRO  ***
                                       Copyright, TTI GmbH Stuttgart, 2015
                                    Version 2023.1 linked Tue Jun  6 09:54:11 2023


 **********************************************************************************************************************************
 LABEL *                                                                                                                                                                 
  64 bit serial version                                                                  DATE: 11-Jun-23          TIME: 23:24:56  
 **********************************************************************************************************************************

 SHA1:             8ebb0dd001088a5c915591db1a321413035db0b1
 **********************************************************************************************************************************

 Memory per process:       393 MW
 Total memory per node:    524 MW
 Total GA space:           131 MW

 GA preallocation disabled
 GA check enabled

 Variable memory set to 393.2 MW

 ZSYMEL=NOSYM


 Geometry recognized as XYZ

 SETTING BASIS          =    CC-PVDZ


 Recomputing integrals since basis changed


 Using spherical harmonics

 Library entry H      S cc-pVDZ              selected for orbital group  1
 Library entry H      P cc-pVDZ              selected for orbital group  1
 Library entry C      S cc-pVDZ              selected for orbital group  2
 Library entry C      P cc-pVDZ              selected for orbital group  2
 Library entry C      D cc-pVDZ              selected for orbital group  2
 Library entry P      S cc-pVDZ              selected for orbital group  4
 Library entry P      P cc-pVDZ              selected for orbital group  4
 Library entry P      D cc-pVDZ              selected for orbital group  4


 PROGRAM * SEWARD (Integral evaluation for generally contracted gaussian basis sets)     Author: Roland Lindh, 1990

 Geometry written to block  1 of record 700


 Point group  C1  



 ATOMIC COORDINATES

 NR  ATOM    CHARGE       X              Y              Z

   1  H       1.00   -2.285544719    3.518151617    2.437819380
   2  C       6.00   -0.858706499    2.560657285    1.319206942
   3  C       6.00    0.912156476    0.893101895    2.356513875
   4  C       6.00   -0.858706499    2.560657285   -1.319206942
   5  H       1.00    4.465415444    2.635407329    0.000000000
   6  P      15.00    3.377322102    0.151395465    0.000000000
   7  C       6.00   -0.858706499   -2.785207847    1.318694826
   8  H       1.00    1.247252294    0.743524347    4.370775559
   9  C       6.00   -0.858706499   -2.785207847   -1.318694826
  10  H       1.00   -2.285544719    3.518151617   -2.437819380
  11  C       6.00    0.912156476    0.893101895   -2.356513875
  12  H       1.00    1.247252294    0.743524347   -4.370775559
  13  H       1.00    0.506483168   -3.929494122   -2.327119185
  14  H       1.00   -2.584302974   -2.394134562    2.341105049
  15  H       1.00    0.506483168   -3.929494122    2.327119185
  16  H       1.00   -2.584302974   -2.394134562   -2.341105049

 Bond lengths in Bohr (Angstrom)

 1-2  2.050355211  2-3  2.644371821  2-4  2.638413883  3-6  3.490032612  3-8  2.047416123
     ( 1.085001252)     ( 1.399341305)     ( 1.396188500)     ( 1.846845724)     ( 1.083445954)

  4-10  2.050355211   4-11  2.644371821   5- 6  2.711874271   6-11  3.490032612   7- 9  2.637389652
       ( 1.085001252)       ( 1.399341305)       ( 1.435062063)       ( 1.846845724)       ( 1.395646500)

  7-14  2.043512704   7-15  2.046962041   9-13  2.046962041   9-16  2.043512704  11-12  2.047416123
       ( 1.081380353)       ( 1.083205663)       ( 1.083205663)       ( 1.081380353)       ( 1.083445954)

 Bond angles

  1-2-3  123.12717988   1-2-4  123.06362890   2-3-6  110.00921129   2-3-8  122.79202884

  2- 4-10  123.06362890   2- 4-11  113.09580051   3- 2- 4  113.09580051   3- 6- 5   95.09136973

  3- 6-11   84.94131870   4-11- 6  110.00921129   4-11-12  122.79202884   5- 6-11   95.09136973

  6- 3- 8  122.21831602   6-11-12  122.21831602   7- 9-13  119.51453814   7- 9-16  120.02117155

  9- 7-14  120.02117155   9- 7-15  119.51453814  10- 4-11  123.12717988  13- 9-16  115.06702609

 14- 7-15  115.06702609

 NUCLEAR CHARGE:                   60
 NUMBER OF PRIMITIVE AOS:         267
 NUMBER OF SYMMETRY AOS:          260
 NUMBER OF CONTRACTIONS:          147   (  147A   )
 NUMBER OF INNER CORE ORBITALS:     1   (    1A   )
 NUMBER OF OUTER CORE ORBITALS:    10   (   10A   )
 NUMBER OF VALENCE ORBITALS:       37   (   37A   )


 NUCLEAR REPULSION ENERGY  360.28907026


 Eigenvalues of metric

         1 0.985E-03 0.282E-02 0.284E-02 0.403E-02 0.443E-02 0.115E-01 0.122E-01 0.150E-01


 Contracted 2-electron integrals neglected if value below      1.0D-11
 AO integral compression algorithm  1   Integral accuracy      1.0D-11

     248.775 MB (compressed) written to integral file ( 49.2%)


 NUMBER OF SORTED TWO-ELECTRON INTEGRALS:   59170881.     BUFFER LENGTH:  32768
 NUMBER OF SEGMENTS:   4  SEGMENT LENGTH:   15999503      RECORD LENGTH: 524288

 Memory used in sort:      16.56 MW

 SORT1 READ    63262518. AND WROTE    56716474. INTEGRALS IN    165 RECORDS. CPU TIME:     0.47 SEC, REAL TIME:     0.64 SEC
 SORT2 READ    56716474. AND WROTE    59170881. INTEGRALS IN    949 RECORDS. CPU TIME:     0.42 SEC, REAL TIME:     0.53 SEC

 FILE SIZES:   FILE 1:   279.9 MBYTE,  FILE 4:   692.1 MBYTE,   TOTAL:    972.0 MBYTE

 OPERATOR DM      FOR CENTER  0  COORDINATES:    0.000000    0.000000    0.000000


 **********************************************************************************************************************************
 DATASETS  * FILE   NREC   LENGTH (MB)   RECORD NAMES
              1      19      247.47       500      610      700      900      950      970     1000      129      960     1100   
                                          VAR    BASINP    GEOM    SYMINP    ZMAT    AOBASIS   BASIS     P2S    ABASIS      S 
                                         1400     1410     1200     1210     1080     1600     1650     1300     1700   
                                           T        V       H0       H01     AOSYM     SMH    MOLCAS    ERIS     OPER   

 PROGRAMS   *        TOTAL       INT
 CPU TIMES  *         3.79      3.70
 REAL TIME  *         8.46 SEC
 DISK USED  *       927.55 MB
 **********************************************************************************************************************************


 Program * Restricted Hartree-Fock

 Orbital guess generated from atomic densities. Full valence occupancy:   48

 Initial occupancy:  30

 NELEC=   60   SYM=1   MS2= 0   THRE=1.0D-08   THRD=3.2D-06   THRG=3.2D-06  HFMA2=F  DIIS_START=2   DIIS_MAX=10   DIIS_INCORE=F

 Level shifts:    0.00 (CLOSED)    0.00 (OPEN)    0.30 (GAP_MIN)

 ITER           ETOT              DE          GRAD        DDIFF     DIIS  NEXP   TIME(IT)  TIME(TOT)  DIAG
   1     -572.98106397    -572.98106397     0.00D+00     0.95D-01     0     0       0.27      0.52    start
   2     -573.04653496      -0.06547099     0.34D-02     0.80D-02     1     0       0.27      0.79    diag
   3     -573.05458303      -0.00804807     0.13D-02     0.29D-02     2     0       0.29      1.08    diag
   4     -573.05616380      -0.00158077     0.52D-03     0.11D-02     3     0       0.29      1.37    diag
   5     -573.05622330      -0.00005950     0.71D-04     0.21D-03     4     0       0.27      1.64    diag
   6     -573.05623402      -0.00001072     0.30D-04     0.85D-04     5     0       0.28      1.92    diag
   7     -573.05623725      -0.00000323     0.16D-04     0.39D-04     6     0       0.30      2.22    diag
   8     -573.05623832      -0.00000107     0.61D-05     0.26D-04     7     0       0.28      2.50    fixocc
   9     -573.05623850      -0.00000019     0.25D-05     0.12D-04     8     0       0.31      2.81    diag
  10     -573.05623852      -0.00000002     0.89D-06     0.38D-05     9     0       0.28      3.09    diag/orth
  11     -573.05623852      -0.00000000     0.31D-06     0.10D-05     9     0       0.30      3.39    diag
  12     -573.05623852      -0.00000000     0.99D-07     0.25D-06     0     0       0.28      3.67    diag

 Final occupancy:  30

 !RHF STATE 1.1 Energy               -573.056238521546
  RHF One-electron energy           -1500.371369459094
  RHF Two-electron energy             567.026060674996
  RHF Kinetic energy                  572.705193016083
  RHF Nuclear energy                  360.289070262552
  RHF Virial quotient                  -1.000612960228

 !RHF STATE 1.1 Dipole moment          -0.42762222     0.12542741    -0.00000000
 Dipole moment /Debye                  -1.08690726     0.31880468    -0.00000000

 Orbital energies:

           1.1          2.1          3.1          4.1          5.1          6.1          7.1          8.1          9.1         10.1
    -79.942605   -11.251708   -11.251683   -11.240155   -11.238976   -11.234159   -11.232991    -7.482965    -5.376746    -5.376417

          11.1         12.1         13.1         14.1         15.1         16.1         17.1         18.1         19.1         20.1
     -5.375019    -1.129621    -1.019742    -0.961621    -0.898963    -0.797496    -0.741257    -0.710679    -0.674107    -0.631193

          21.1         22.1         23.1         24.1         25.1         26.1         27.1         28.1         29.1         30.1
     -0.572755    -0.555094    -0.548980    -0.526452    -0.507425    -0.455323    -0.446820    -0.356506    -0.315013    -0.307184

          31.1         32.1
      0.113421     0.137447


 HOMO     30.1    -0.307184 =      -8.3589eV
 LUMO     31.1     0.113421 =       3.0863eV
 LUMO-HOMO         0.420605 =      11.4452eV

 Orbitals saved in record  2100.2


 **********************************************************************************************************************************
 DATASETS  * FILE   NREC   LENGTH (MB)   RECORD NAMES
              1      19      247.47       500      610      700      900      950      970     1000      129      960     1100   
                                          VAR    BASINP    GEOM    SYMINP    ZMAT    AOBASIS   BASIS     P2S    ABASIS      S 
                                         1400     1410     1200     1210     1080     1600     1650     1300     1700   
                                           T        V       H0       H01     AOSYM     SMH    MOLCAS    ERIS     OPER   

              2       4        0.98       700     1000      520     2100   
                                         GEOM     BASIS   MCVARS     RHF  

 PROGRAMS   *        TOTAL    HF-SCF       INT
 CPU TIMES  *         7.46      3.67      3.70
 REAL TIME  *        14.24 SEC
 DISK USED  *       927.55 MB
 **********************************************************************************************************************************


 PROGRAM * CCSD (Closed-shell coupled cluster)     Authors: C. Hampel, H.-J. Werner, 1991, M. Deegan, P.J. Knowles, 1992


 Convergence thresholds:  THRVAR = 1.00D-08  THRDEN = 1.00D-06

 CCSD(T)     terms to be evaluated (factor= 1.000)


 Number of core orbitals:          11 (  11 )
 Number of closed-shell orbitals:  19 (  19 )
 Number of external orbitals:     117 ( 117 )

 Molecular orbitals read from record     2100.2  Type=RHF/CANONICAL  

 Number of N-1 electron functions:              19
 Number of N-2 electron functions:             190
 Number of singly external CSFs:              2223
 Number of doubly external CSFs:           2471976
 Total number of CSFs:                     2474200

 Length of J-op  integral file:               0.00 MB
 Length of K-op  integral file:               1.55 MB
 Length of 3-ext integral record:             0.00 MB

 Memory could be reduced to 40.69 Mwords without degradation in triples

 Integral transformation finished. Total CPU:   2.47 sec, npass=  1  Memory used:  39.12 MW

 Reference energy:                   -573.05623852

 MP2 singlet pair energy:              -0.59720914
 MP2 triplet pair energy:              -0.37383314
 MP2 correlation energy:               -0.97104229
 MP2 total energy:                   -574.02728081

 SCS-MP2 correlation energy:           -0.94925826   (PS=  1.200000  PT=  0.333333)
 SCS-MP2 total energy:               -574.00549678

 ITER.      SQ.NORM     CORR.ENERGY   TOTAL ENERGY   ENERGY CHANGE        DEN1      VAR(S)    VAR(P)  DIIS     TIME  TIME/IT
   1      1.40507237    -1.01574934  -574.07198786    -0.04470705    -0.01283513  0.48D-02  0.10D-01  1  1    18.28     9.08
   2      1.44186174    -1.02220410  -574.07844262    -0.00645476    -0.03090135  0.12D-03  0.14D-02  2  2    26.74     9.29
   3      1.45460465    -1.02236159  -574.07860011    -0.00015749    -0.00586408  0.39D-04  0.12D-03  3  3    35.68     9.51
   4      1.46015374    -1.02257760  -574.07881612    -0.00021601    -0.00151002  0.40D-05  0.17D-04  4  4    44.53     9.67
   5      1.46201198    -1.02261988  -574.07885841    -0.00004229    -0.00038883  0.55D-06  0.20D-05  5  5    53.25     9.77
   6      1.46248207    -1.02260534  -574.07884386     0.00001454    -0.00006474  0.65D-07  0.15D-06  6  6    61.28     9.70
   7      1.46254222    -1.02260737  -574.07884589    -0.00000203    -0.00000158  0.15D-07  0.15D-07  6  2    69.13     9.62
   8      1.46255466    -1.02260738  -574.07884591    -0.00000002    -0.00000116  0.34D-08  0.18D-08  6  1    76.82     9.50
   9      1.46255416    -1.02260759  -574.07884611    -0.00000021     0.00000173  0.92D-09  0.37D-09  6  4    83.84     9.30

 Norm of t1 vector:      0.09896622      S-energy:    -0.00000013      T1 diagnostic:  0.01135220
                                                                       D1 diagnostic:  0.02932138
                                                                       D2 diagnostic:  0.19816308 (internal)

 Doubles amplitudes (print threshold =  0.500E-01):

         I         J         SYM. A    SYM. B    A         B      T(IJ, AB)

        18        18         1         1         1         1     -0.08821995
        19        19         1         1         2         2     -0.06028380


 Total CPU time for triples:     80.01 sec


 RESULTS
 =======

  Reference energy                   -573.056238521547
  CCSD singlet pair energy             -0.690972818935
  CCSD triplet pair energy             -0.331634638828
  CCSD correlation energy              -1.022607591915

  Triples (T) contribution             -0.047639816800
  Total correlation energy             -1.070247408714

  CCSD total energy                  -574.078846113462
  CCSD[T] energy                     -574.127536912619
  CCSD-T energy                      -574.126091503443
 !CCSD(T) total energy               -574.126485930261

 Timing summary (sec):

 STEP                 CPU(USER)    SYS     CPU(TOT)    WALL
 Transformation          2.57      0.27      2.84      3.88
 CCSD iterations        81.43      2.74     84.17     84.36
 Triples                80.01      4.71     84.72     92.99

 Program statistics:

 Available memory in ccsd:               393214526
 Min. memory needed in ccsd:               6337459
 Max. memory used in ccsd:                 8530021
 Max. memory used in cckext:               8530429 ( 9 integral passes)



 **********************************************************************************************************************************
 DATASETS  * FILE   NREC   LENGTH (MB)   RECORD NAMES
              1      20      411.97       500      610      700      900      950      970     1000      129      960     1100   
                                          VAR    BASINP    GEOM    SYMINP    ZMAT    AOBASIS   BASIS     P2S    ABASIS      S 
                                         1400     1410     1200     1210     1080     1600     1650     1300     1700     1380   
                                           T        V       H0       H01     AOSYM     SMH    MOLCAS    ERIS     OPER     JKOP   

              2       4        0.98       700     1000      520     2100   
                                         GEOM     BASIS   MCVARS     RHF  

 PROGRAMS   *        TOTAL   CCSD(T)    HF-SCF       INT
 CPU TIMES  *       163.92    156.46      3.67      3.70
 REAL TIME  *       196.30 SEC
 DISK USED  *       927.55 MB
 **********************************************************************************************************************************

 Dump information in style XML to xml output                                                                      

 Orbitals will not be exported.

 **********************************************************************************************************************************

 CCSD(T)/cc-pVDZ energy=   -574.126485930261

         CCSD(T)          HF-SCF
   -574.12648593   -573.05623852
 **********************************************************************************************************************************
 Molpro calculation terminated
