
 Working directory              : /tmp/peterk/molpro.Ncsa2SR65B/
 Global scratch directory       : /tmp/peterk/molpro.Ncsa2SR65B/
 Wavefunction directory         : /home/peterk/wfu/
 Main file repository           : /tmp/peterk/molpro.Ncsa2SR65B/

 id        : peterk

 Nodes     nprocs
 marat        1
 GA implementation: MPI file
 GA implementation (serial work in mppx): MPI file

 Using customized tuning parameters: mindgm=1; mindgv=20; mindgc=4; mindgr=1; noblas=0; minvec=7
 default implementation of scratch files=df  


 Variables initialized (1032), CPU time= 0.00 sec
 
 core,small
 angstrom
 
 geometry={
 H;N,H,1.05238269;O,N,1.20847128,H,108.08480747
 }
 basis=cc-pCV5Z
 
 
 
 hf; hf; papt; mp2
 
 
 
 {put,xml;noorbitals,nobasis}
 Commands initialized (841), CPU time= 0.01 sec, 708 directives.
 Default parameters read. Elapsed time= 0.05 sec

 Checking input...
 Passed
1


                                         ***  PROGRAM SYSTEM MOLPRO  ***
                                       Copyright, TTI GmbH Stuttgart, 2015
                                    Version 2023.1 linked Sat Jun 10 08:01:27 2023


 **********************************************************************************************************************************
 LABEL *                                                                                                                                                                 
  (16 PROC) 64 bit serial version                                                        DATE: 12-Jun-23          TIME: 11:59:06  
 **********************************************************************************************************************************

 SHA1:             8376d659ba1296ca7ee514c57770fe2c96af278c
 **********************************************************************************************************************************

 Memory per process:      1074 MW
 Total memory per node:   1074 MW

 GA preallocation disabled
 GA check disabled

 Variable memory set to 1073.7 MW

 ZUNIT=ANG

 SETTING BASIS          =    CC-PCV5Z


 Recomputing integrals since basis changed


 Using spherical harmonics

 Library entry H      S cc-pV5Z              selected for orbital group  1
 Library entry H      P cc-pV5Z              selected for orbital group  1
 Library entry H      D cc-pV5Z              selected for orbital group  1
 Library entry H      F cc-pV5Z              selected for orbital group  1
 Library entry H      G cc-pV5Z              selected for orbital group  1
 Library entry N      S cc-pCV5Z             selected for orbital group  2
 Library entry N      P cc-pCV5Z             selected for orbital group  2
 Library entry N      D cc-pCV5Z             selected for orbital group  2
 Library entry N      F cc-pCV5Z             selected for orbital group  2
 Library entry N      G cc-pCV5Z             selected for orbital group  2
 Library entry N      H cc-pCV5Z             selected for orbital group  2
 Library entry O      S cc-pCV5Z             selected for orbital group  3
 Library entry O      P cc-pCV5Z             selected for orbital group  3
 Library entry O      D cc-pCV5Z             selected for orbital group  3
 Library entry O      F cc-pCV5Z             selected for orbital group  3
 Library entry O      G cc-pCV5Z             selected for orbital group  3
 Library entry O      H cc-pCV5Z             selected for orbital group  3


 PROGRAM * SEWARD (Integral evaluation for generally contracted gaussian basis sets)     Author: Roland Lindh, 1990

 Geometry written to block  1 of record 700

 Orientation using atomic masses  
 Molecule type: Asymmetric top
 Symmetry elements: X
 Rotational constants:      39.4752865     42.4383239    565.3877201 GHz  (calculated with average atomic masses)

 Point group  Cs  



 ATOMIC COORDINATES

 NR  ATOM    CHARGE       X              Y              Z

   1  H       1.00    0.000000000    1.668937369   -1.926645665
   2  N       7.00    0.000000000   -0.161179941   -1.148405194
   3  O       8.00    0.000000000    0.035964495    1.126749145

 Bond lengths in Bohr (Angstrom)

 1-2  1.988715062  2-3  2.283679749
     ( 1.052382690)     ( 1.208471280)

 Bond angles

  1-2-3  108.08480747

 NUCLEAR CHARGE:                   16
 NUMBER OF PRIMITIVE AOS:         497
 NUMBER OF SYMMETRY AOS:          382
 NUMBER OF CONTRACTIONS:          345   (  215A'  +  130A"  )
 NUMBER OF INNER CORE ORBITALS:     0   (    0A'  +    0A"  )
 NUMBER OF OUTER CORE ORBITALS:     2   (    2A'  +    0A"  )
 NUMBER OF VALENCE ORBITALS:        9   (    7A'  +    2A"  )


 NUCLEAR REPULSION ENERGY   30.35206907


 Eigenvalues of metric

         1 0.289E-05 0.341E-05 0.538E-04 0.769E-04 0.250E-03 0.289E-03 0.345E-03 0.436E-03
         2 0.428E-03 0.504E-03 0.168E-02 0.201E-02 0.871E-02 0.137E-01 0.303E-01 0.325E-01


 Contracted 2-electron integrals neglected if value below      1.0D-12
 AO integral compression algorithm  1   Integral accuracy      1.0D-12

     3310.879 MB (compressed) written to integral file ( 38.1%)


 NUMBER OF SORTED TWO-ELECTRON INTEGRALS:  899007580.     BUFFER LENGTH:  32768
 NUMBER OF SEGMENTS:  29  SEGMENT LENGTH:   31996000      RECORD LENGTH: 524288

 Memory used in sort:      32.55 MW

 SORT1 READ  1087137109. AND WROTE   684806625. INTEGRALS IN   1971 RECORDS. CPU TIME:    16.58 SEC, REAL TIME:   199.96 SEC
 SORT2 READ   684806625. AND WROTE   899007580. INTEGRALS IN  12630 RECORDS. CPU TIME:    14.96 SEC, REAL TIME:    85.41 SEC

 FILE SIZES:   FILE 1:  3344.0 MBYTE,  FILE 4:  8267.0 MBYTE,   TOTAL:  11611.1 MBYTE

 OPERATOR DM      FOR CENTER  0  COORDINATES:    0.000000    0.000000    0.000000


 **********************************************************************************************************************************
 DATASETS  * FILE   NREC   LENGTH (MB)   RECORD NAMES
              1      19     2686.34       500      610      700      900      950      970     1000      129      960     1100   
                                          VAR    BASINP    GEOM    SYMINP    ZMAT    AOBASIS   BASIS     P2S    ABASIS      S 
                                         1400     1410     1200     1210     1080     1600     1650     1300     1700   
                                           T        V       H0       H01     AOSYM     SMH    MOLCAS    ERIS     OPER   

 PROGRAMS   *        TOTAL       INT
 CPU TIMES  *       152.93    152.82
 REAL TIME  *       412.65 SEC
 DISK USED  *        10.81 GB
 **********************************************************************************************************************************


 Program * Restricted Hartree-Fock

 Orbital guess generated from atomic densities. Full valence occupancy:    9   2

 Initial occupancy:   7   1

 NELEC=   16   SYM=1   MS2= 0   THRE=1.0D-08   THRD=3.2D-06   THRG=3.2D-06  HFMA2=F  DIIS_START=2   DIIS_MAX=10   DIIS_INCORE=F

 Level shifts:    0.00 (CLOSED)    0.00 (OPEN)    0.30 (GAP_MIN)

 ITER           ETOT              DE          GRAD        DDIFF     DIIS  NEXP   TIME(IT)  TIME(TOT)  DIAG
   1     -129.79833849    -129.79833849     0.00D+00     0.30D-01     0     0       3.87      7.73    start
   2     -129.82545996      -0.02712147     0.63D-02     0.40D-02     1     0       4.04     11.77    diag
   3     -129.84850410      -0.02304414     0.48D-02     0.21D-02     2     0       3.95     15.72    diag
   4     -129.84930894      -0.00080484     0.75D-03     0.39D-03     3     0       3.93     19.65    diag
   5     -129.84943368      -0.00012474     0.24D-03     0.17D-03     4     0       3.91     23.56    diag
   6     -129.84945370      -0.00002002     0.71D-04     0.67D-04     5     0       3.87     27.43    diag
   7     -129.84945955      -0.00000585     0.35D-04     0.43D-04     6     0       3.96     31.39    diag
   8     -129.84946023      -0.00000068     0.12D-04     0.16D-04     7     0       3.95     35.34    fixocc
   9     -129.84946026      -0.00000003     0.24D-05     0.32D-05     8     0       3.93     39.27    diag
  10     -129.84946026      -0.00000000     0.54D-06     0.79D-06     9     0       3.94     43.21    diag/orth
  11     -129.84946026      -0.00000000     0.11D-06     0.13D-06     0     0       3.97     47.18    diag

 Final occupancy:   7   1

 !RHF STATE 1.1 Energy               -129.849460261807
  RHF One-electron energy            -237.754601443562
  RHF Two-electron energy              77.553072109685
  RHF Kinetic energy                  129.630415879811
  RHF Nuclear energy                   30.352069072069
  RHF Virial quotient                  -1.001689760698

 !RHF STATE 1.1 Dipole moment           0.00000000     0.57514961    -0.53212934
 Dipole moment /Debye                   0.00000000     1.46188450    -1.35253787

 Orbital energies:

           1.1          2.1          3.1          4.1          5.1          6.1          7.1          8.1          9.1
    -20.652330   -15.711669    -1.528436    -0.993912    -0.746573    -0.665494    -0.430445     0.095173     0.204018

           1.2          2.2          3.2
     -0.595370     0.074161     0.294343


 HOMO      7.1    -0.430445 =     -11.7130eV
 LUMO      2.2     0.074161 =       2.0180eV
 LUMO-HOMO         0.504606 =      13.7310eV

 Orbitals saved in record  2100.2


 **********************************************************************************************************************************
 DATASETS  * FILE   NREC   LENGTH (MB)   RECORD NAMES
              1      19     2686.34       500      610      700      900      950      970     1000      129      960     1100   
                                          VAR    BASINP    GEOM    SYMINP    ZMAT    AOBASIS   BASIS     P2S    ABASIS      S 
                                         1400     1410     1200     1210     1080     1600     1650     1300     1700   
                                           T        V       H0       H01     AOSYM     SMH    MOLCAS    ERIS     OPER   

              2       4        1.41       700     1000      520     2100   
                                         GEOM     BASIS   MCVARS     RHF  

 PROGRAMS   *        TOTAL    HF-SCF       INT
 CPU TIMES  *       200.11     47.18    152.82
 REAL TIME  *       464.36 SEC
 DISK USED  *        10.81 GB
 **********************************************************************************************************************************


 Program * Restricted Hartree-Fock

 Molecular orbitals read from record     2100.2  Type=RHF/CANONICAL  

 Initial occupancy:   7   1

 NELEC=   16   SYM=1   MS2= 0   THRE=1.0D-08   THRD=3.2D-06   THRG=3.2D-06  HFMA2=F  DIIS_START=2   DIIS_MAX=10   DIIS_INCORE=F

 Level shifts:    0.00 (CLOSED)    0.00 (OPEN)    0.30 (GAP_MIN)

 ITER           ETOT              DE          GRAD        DDIFF     DIIS  NEXP   TIME(IT)  TIME(TOT)  DIAG
   1     -129.84946026    -129.84946026     0.00D+00     0.31D-01     0     0       3.91      3.91    start
   2     -129.84946026      -0.00000000     0.50D-07     0.49D-07     1     0       3.92      7.83    diag

 Final occupancy:   7   1

 !RHF STATE 1.1 Energy               -129.849460261818
  RHF One-electron energy            -237.754597060826
  RHF Two-electron energy              77.553067726939
  RHF Kinetic energy                  129.630413573004
  RHF Nuclear energy                   30.352069072069
  RHF Virial quotient                  -1.001689778523

 !RHF STATE 1.1 Dipole moment           0.00000000     0.57514693    -0.53212506
 Dipole moment /Debye                   0.00000000     1.46187769    -1.35252698

 Orbital energies:

           1.1          2.1          3.1          4.1          5.1          6.1          7.1          8.1          9.1
    -20.652328   -15.711670    -1.528436    -0.993912    -0.746573    -0.665494    -0.430445     0.095173     0.204018

           1.2          2.2          3.2
     -0.595370     0.074161     0.294343


 HOMO      7.1    -0.430445 =     -11.7130eV
 LUMO      2.2     0.074161 =       2.0180eV
 LUMO-HOMO         0.504606 =      13.7310eV

 Orbitals saved in record  2101.2


 **********************************************************************************************************************************
 DATASETS  * FILE   NREC   LENGTH (MB)   RECORD NAMES
              1      19     2686.34       500      610      700      900      950      970     1000      129      960     1100   
                                          VAR    BASINP    GEOM    SYMINP    ZMAT    AOBASIS   BASIS     P2S    ABASIS      S 
                                         1400     1410     1200     1210     1080     1600     1650     1300     1700   
                                           T        V       H0       H01     AOSYM     SMH    MOLCAS    ERIS     OPER   

              2       5        3.21       700     1000      520     2100     2101   
                                         GEOM     BASIS   MCVARS     RHF      RHF  

 PROGRAMS   *        TOTAL    HF-SCF    HF-SCF       INT
 CPU TIMES  *       207.97      7.86     47.18    152.82
 REAL TIME  *       473.04 SEC
 DISK USED  *        10.81 GB
 **********************************************************************************************************************************


 PROGRAM * PAPT (Closed-shell)     Authors: C. Hampel, H.-J. Werner, 1991, P.J. Knowles, 2021


 CORETYPE=SMALL

 Convergence thresholds:  THRVAR = 1.00D-08  THRDEN = 1.00D-06

 Number of closed-shell orbitals:   8 (   7   1 )
 Number of external orbitals:     337 ( 208 129 )

 Molecular orbitals read from record     2101.2  Type=RHF/CANONICAL  

 Number of N-1 electron functions:               8
 Number of N-2 electron functions:              36
 Number of singly external CSFs:              1585
 Number of doubly external CSFs:           1874621
 Total number of CSFs:                     1876207

 Length of J-op  integral file:               0.00 MB
 Length of K-op  integral file:               4.40 MB

 Integral transformation finished. Total CPU:   6.38 sec, npass=  1  Memory used:   3.30 MW

 Reference energy:                   -129.84946026

                        CORR.ENERGY   TOTAL ENERGY   ENERGY CHANGE
 MP2:                   -0.59839611  -130.44785637    -0.59839611

 SCS-MP2 correlation energy:           -0.60718736   (PS=  1.200000  PT=  0.333333)
 SCS-MP2 total energy:               -130.45664762
 Iteration:   1     0.4251D+00
 Iteration:   2     0.5742D+00
 Iteration:   3     0.1703D+00
 Iteration:   4     0.1295D+00
 Iteration:   5     0.2026D+01
 Iteration:   6     0.4136D-01
 Iteration:   7     0.7588D-01
 Iteration:   8     0.1750D-01
 Iteration:   9     0.1237D-01
 Iteration:  10     0.3770D-01
 Iteration:  11     0.4477D-02
 Iteration:  12     0.2436D-02
 Iteration:  13     0.1414D-01
 Iteration:  14     0.6211D-03
 Iteration:  15     0.1514D-02
 Iteration:  16     0.2895D-03
 Iteration:  17     0.2244D-03
 Iteration:  18     0.1869D-03
 Iteration:  19     0.3886D-04
 PAPT operator written to  7000.1
 PAPT orbitals and eigenvalues written to  7000.2

 MP3(D):                -0.59342293  -130.44288319     0.00497318



 RESULTS
 =======

  Reference energy                   -129.849460261818

  Correlated core orbitals:             1.1       2.1
  Orbital energies:                   -20.6523  -15.7117

  MP3 core-core energy                 -0.082362174889
  MP3 core-valence energy              -0.036731514629
  MP3 valence correlation energy       -0.474329241124

  MP3 singlet pair energy              -0.422639153085
  MP3 triplet pair energy              -0.170783777558
  MP3 correlation energy               -0.593422930643

 !MP3 total energy                   -130.442883192461

 Timing summary (sec):

 STEP                 CPU(USER)    SYS     CPU(TOT)    WALL
 Transformation          6.46      0.46      6.92      7.01
 CCSD iterations       221.71      0.50    222.21     13.87

 Program statistics:

 Available memory in ccsd:              1073741561
 Min. memory needed in ccsd:               5531381
 Max. memory used in ccsd:                 7148084
 Max. memory used in cckext:              11003559 ( 1 integral passes)



 **********************************************************************************************************************************
 DATASETS  * FILE   NREC   LENGTH (MB)   RECORD NAMES
              1      21     2713.04       500      610      700      900      950      970     1000      129      960     1100   
                                          VAR    BASINP    GEOM    SYMINP    ZMAT    AOBASIS   BASIS     P2S    ABASIS      S 
                                         1400     1410     1200     1210     1080     1600     1650     1300     1700     1380   
                                           T        V       H0       H01     AOSYM     SMH    MOLCAS    ERIS     OPER     JKOP   
                                         7000   
                                        PAPT AO    

              2       6        4.76       700     1000      520     2100     2101     7000   
                                         GEOM     BASIS   MCVARS     RHF      RHF     PAPT   

 PROGRAMS   *        TOTAL      PAPT    HF-SCF    HF-SCF       INT
 CPU TIMES  *       227.77     19.80      7.86     47.18    152.82
 REAL TIME  *       493.96 SEC
 DISK USED  *        10.81 GB
 **********************************************************************************************************************************


 PROGRAM * MP2 (Closed-shell)     Authors: C. Hampel, H.-J. Werner, 1991, M. Deegan, P.J. Knowles, 1992


 CORETYPE=SMALL

 Convergence thresholds:  THRVAR = 1.00D-08  THRDEN = 1.00D-06

 Number of closed-shell orbitals:   8 (   7   1 )
 Number of external orbitals:     337 ( 208 129 )

 Molecular orbitals read from record     7000.2  Type=PAPT/CANONICAL (state 1.1)

 Number of N-1 electron functions:               8
 Number of N-2 electron functions:              36
 Number of singly external CSFs:              1585
 Number of doubly external CSFs:           1874621
 Total number of CSFs:                     1876207

 Length of J-op  integral file:               0.00 MB
 Length of K-op  integral file:               4.40 MB

 Integral transformation finished. Total CPU:   6.30 sec, npass=  1  Memory used:   3.30 MW
 Orbital energies read from record       7000.2  Type=PAPT/CANONICAL (state 1.1)

 Memory needed for MP2:                      0.31 MW

 SCS-MP2 correlation energy:           -0.610974597410   (PS=  1.200000  PT=  0.333333)
 SCS-MP2 total energy:               -130.460434859227


  Reference energy                   -129.849460261818

  Correlated core orbitals:             1.1       2.1
  Orbital energies:                   -19.0988  -14.4058

  MP2 core-core energy                 -0.082825089426
  MP2 core-valence energy              -0.036457107212
  MP2 valence correlation energy       -0.479847372642

  MP2 singlet pair energy              -0.412239574754
  MP2 triplet pair energy              -0.186889994526
  MP2 correlation energy               -0.599129569280

 !MP2 total energy                   -130.448589831098


 **********************************************************************************************************************************
 DATASETS  * FILE   NREC   LENGTH (MB)   RECORD NAMES
              1      21     2713.04       500      610      700      900      950      970     1000      129      960     1100   
                                          VAR    BASINP    GEOM    SYMINP    ZMAT    AOBASIS   BASIS     P2S    ABASIS      S 
                                         1400     1410     1200     1210     1080     1600     1650     1300     1700     1380   
                                           T        V       H0       H01     AOSYM     SMH    MOLCAS    ERIS     OPER     JKOP   
                                         7000   
                                        PAPT AO    

              2       6        4.76       700     1000      520     2100     2101     7000   
                                         GEOM     BASIS   MCVARS     RHF      RHF     PAPT   

 PROGRAMS   *        TOTAL       MP2      PAPT    HF-SCF    HF-SCF       INT
 CPU TIMES  *       238.05     10.28     19.80      7.86     47.18    152.82
 REAL TIME  *       505.32 SEC
 DISK USED  *        10.81 GB
 **********************************************************************************************************************************

 Dump information in style XML to xml output                                                                      

 Orbitals will not be exported.

 **********************************************************************************************************************************

 MP2/cc-pCV5Z energy=   -130.448589831098

             MP2            PAPT          HF-SCF          HF-SCF
   -130.44858983   -130.44288319   -129.84946026   -129.84946026
 **********************************************************************************************************************************
 Molpro calculation terminated
