
 Working directory              : /tmp/peterk/molpro.NW2j3m1EM3/
 Global scratch directory       : /tmp/peterk/molpro.NW2j3m1EM3/
 Wavefunction directory         : /home/peterk/wfu/
 Main file repository           : /tmp/peterk/molpro.NW2j3m1EM3/

 id        : peterk

 Nodes     nprocs
 marat        1
 GA implementation: MPI file
 GA implementation (serial work in mppx): MPI file

 Using customized tuning parameters: mindgm=1; mindgv=20; mindgc=4; mindgr=1; noblas=0; minvec=7
 default implementation of scratch files=df  


 Variables initialized (1032), CPU time= 0.00 sec
 
 symmetry,nosym
 
 
 geometry={
           13
     C         -1.95562211     -0.53954090      0.00000805
     C         -1.13108458      0.71318040      0.00005005
     C          0.20564837      0.80700882      0.00002705
     C          1.15756998     -0.30167414     -0.00004295
     C          2.48359820     -0.12620320     -0.00003495
     H         -2.60507076     -0.56886261      0.87713351
     H         -2.60511309     -0.56877265     -0.87708907
     H         -1.35131756     -1.44334918     -0.00005395
     H         -1.69365291      1.64032011      0.00010405
     H          0.64577091      1.79837477      0.00006505
     H          0.76527501     -1.31050982     -0.00010395
     H          3.16470753     -0.96498882     -0.00008695
     H          2.91929100      0.86501723      0.00002405
 }
 basis=cc-pVQZ
 
 
 
 hf; ccsd(t)
 
 
 
 {put,xml;noorbitals,nobasis}
 Commands initialized (841), CPU time= 0.01 sec, 708 directives.
 Default parameters read. Elapsed time= 0.05 sec

 Checking input...
 Passed
1


                                         ***  PROGRAM SYSTEM MOLPRO  ***
                                       Copyright, TTI GmbH Stuttgart, 2015
                                    Version 2023.1 linked Sat Jun 10 08:01:27 2023


 **********************************************************************************************************************************
 LABEL *                                                                                                                                                                 
  (16 PROC) 64 bit serial version                                                        DATE: 11-Jun-23          TIME: 20:43:14  
 **********************************************************************************************************************************

 SHA1:             8376d659ba1296ca7ee514c57770fe2c96af278c
 **********************************************************************************************************************************

 Memory per process:      1074 MW
 Total memory per node:   1074 MW

 GA preallocation disabled
 GA check disabled

 Variable memory set to 1073.7 MW

 ZSYMEL=NOSYM


 Geometry recognized as XYZ

 SETTING BASIS          =    CC-PVQZ


 Recomputing integrals since basis changed


 Using spherical harmonics

 Library entry C      S cc-pVQZ              selected for orbital group  1
 Library entry C      P cc-pVQZ              selected for orbital group  1
 Library entry C      D cc-pVQZ              selected for orbital group  1
 Library entry C      F cc-pVQZ              selected for orbital group  1
 Library entry C      G cc-pVQZ              selected for orbital group  1
 Library entry H      S cc-pVQZ              selected for orbital group  2
 Library entry H      P cc-pVQZ              selected for orbital group  2
 Library entry H      D cc-pVQZ              selected for orbital group  2
 Library entry H      F cc-pVQZ              selected for orbital group  2


 PROGRAM * SEWARD (Integral evaluation for generally contracted gaussian basis sets)     Author: Roland Lindh, 1990

 Geometry written to block  1 of record 700


 Point group  C1  



 ATOMIC COORDINATES

 NR  ATOM    CHARGE       X              Y              Z

   1  C       6.00   -3.695590191   -1.019584534    0.000015212
   2  C       6.00   -2.137440080    1.347715633    0.000094581
   3  C       6.00    0.388619097    1.525025650    0.000051117
   4  C       6.00    2.187490232   -0.570081503   -0.000081164
   5  C       6.00    4.693320402   -0.238489484   -0.000066046
   6  H       1.00   -4.922870272   -1.074994535    1.657542109
   7  H       1.00   -4.922950264   -1.074824536   -1.657458129
   8  H       1.00   -2.553620096   -2.727534652   -0.000101951
   9  H       1.00   -3.200540150    3.099755765    0.000196626
  10  H       1.00    1.220330159    3.398435785    0.000122927
  11  H       1.00    1.446160179   -2.476504643   -0.000196437
  12  H       1.00    5.980430496   -1.823564583   -0.000164312
  13  H       1.00    5.516660468    1.634645658    0.000045448

 Bond lengths in Bohr (Angstrom)

 1-2  2.834068076  1-6  2.063172818  1-7  2.063172820  1-8  2.054553314  2-3  2.532274434
     ( 1.499724240)     ( 1.091784037)     ( 1.091784038)     ( 1.087222792)     ( 1.340021922)

  2- 9  2.049347796   3- 4  2.761414739   3-10  2.049733843   4- 5  2.527674446   4-11  2.045487582
       ( 1.084468151)       ( 1.461277750)       ( 1.084672438)       ( 1.337587713)       ( 1.082425414)

  5-12  2.041841197   5-13  2.046099738
       ( 1.080495830)       ( 1.082749352)

 Bond angles

  1-2-3  127.36793620   1-2-9  115.39873262   2-1-6  110.45402152   2-1-7  110.45386782

  2- 1- 8  112.87971288   2- 3- 4  126.63443987   2- 3-10  117.95423915   3- 2- 9  117.23333118

  3- 4- 5  123.11152689   3- 4-11  118.10139595   4- 3-10  115.41132098   4- 5-12  121.53918017

  4- 5-13  121.26603237   5- 4-11  118.78707715   6- 1- 7  106.90709601   6- 1- 8  107.95995642

  7- 1- 8  107.95986127  12- 5-13  117.19478746

 NUCLEAR CHARGE:                   38
 NUMBER OF PRIMITIVE AOS:         711
 NUMBER OF SYMMETRY AOS:          596
 NUMBER OF CONTRACTIONS:          515   (  515A   )
 NUMBER OF INNER CORE ORBITALS:     0   (    0A   )
 NUMBER OF OUTER CORE ORBITALS:     5   (    5A   )
 NUMBER OF VALENCE ORBITALS:       28   (   28A   )


 NUCLEAR REPULSION ENERGY  155.81513849


 Eigenvalues of metric

         1 0.328E-04 0.644E-04 0.660E-04 0.826E-04 0.934E-04 0.111E-03 0.140E-03 0.153E-03


 Contracted 2-electron integrals neglected if value below      1.0D-12
 AO integral compression algorithm  1   Integral accuracy      1.0D-12

     21075.591 MB (compressed) written to integral file ( 30.1%)


 NUMBER OF SORTED TWO-ELECTRON INTEGRALS: 8827284885.     BUFFER LENGTH:  32768
 NUMBER OF SEGMENTS: 185  SEGMENT LENGTH:   47999545      RECORD LENGTH: 131072

 Memory used in sort:      48.16 MW

 SORT1 READ  8746625500. AND WROTE  5673039240. INTEGRALS IN  65018 RECORDS. CPU TIME:    87.41 SEC, REAL TIME:   258.00 SEC
 SORT2 READ  5673039240. AND WROTE  8827284885. INTEGRALS IN  80397 RECORDS. CPU TIME:    66.09 SEC, REAL TIME:   569.57 SEC

 FILE SIZES:   FILE 1: 21115.5 MBYTE,  FILE 4: 68176.4 MBYTE,   TOTAL:  89291.9 MBYTE

 OPERATOR DM      FOR CENTER  0  COORDINATES:    0.000000    0.000000    0.000000


 **********************************************************************************************************************************
 DATASETS  * FILE   NREC   LENGTH (MB)   RECORD NAMES
              1      19    18258.09       500      610      700      900      950      970     1000      129      960     1100   
                                          VAR    BASINP    GEOM    SYMINP    ZMAT    AOBASIS   BASIS     P2S    ABASIS      S 
                                         1400     1410     1200     1210     1080     1600     1650     1300     1700   
                                           T        V       H0       H01     AOSYM     SMH    MOLCAS    ERIS     OPER   

 PROGRAMS   *        TOTAL       INT
 CPU TIMES  *       382.98    382.88
 REAL TIME  *      1079.66 SEC
 DISK USED  *        83.16 GB
 **********************************************************************************************************************************


 Program * Restricted Hartree-Fock

 Orbital guess generated from atomic densities. Full valence occupancy:   33

 Initial occupancy:  19

 NELEC=   38   SYM=1   MS2= 0   THRE=1.0D-08   THRD=3.2D-06   THRG=3.2D-06  HFMA2=F  DIIS_START=2   DIIS_MAX=10   DIIS_INCORE=F

 Level shifts:    0.00 (CLOSED)    0.00 (OPEN)    0.30 (GAP_MIN)

 ITER           ETOT              DE          GRAD        DDIFF     DIIS  NEXP   TIME(IT)  TIME(TOT)  DIAG
   1     -193.97547252    -193.97547252     0.00D+00     0.24D-01     0     0      77.23    152.87    start
   2     -194.03201148      -0.05653895     0.20D-02     0.20D-02     1     0      76.32    229.19    diag
   3     -194.03840708      -0.00639560     0.73D-03     0.62D-03     2     0      73.10    302.29    diag
   4     -194.03944822      -0.00104114     0.25D-03     0.27D-03     3     0      66.43    368.72    diag
   5     -194.03949995      -0.00005173     0.66D-04     0.63D-04     4     0      65.55    434.27    diag
   6     -194.03950625      -0.00000629     0.18D-04     0.26D-04     5     0      64.62    498.89    diag
   7     -194.03950667      -0.00000043     0.41D-05     0.70D-05     6     0      64.63    563.52    diag
   8     -194.03950672      -0.00000005     0.12D-05     0.20D-05     7     0      63.14    626.66    fixocc
   9     -194.03950673      -0.00000001     0.70D-06     0.93D-06     8     0      62.06    688.72    diag
  10     -194.03950673      -0.00000000     0.19D-06     0.26D-06     0     0      61.97    750.69    diag/orth

 Final occupancy:  19

 !RHF STATE 1.1 Energy               -194.039506733096
  RHF One-electron energy            -568.850008679899
  RHF Two-electron energy             218.995363459324
  RHF Kinetic energy                  193.826481930718
  RHF Nuclear energy                  155.815138487479
  RHF Virial quotient                  -1.001099049006

 !RHF STATE 1.1 Dipole moment          -0.20680257    -0.06309745     0.00000118
 Dipole moment /Debye                  -0.52563969    -0.16037772     0.00000300

 Orbital energies:

           1.1          2.1          3.1          4.1          5.1          6.1          7.1          8.1          9.1         10.1
    -11.233968   -11.233466   -11.226309   -11.222558   -11.222513    -1.095868    -1.026436    -0.933388    -0.809062    -0.728388

          11.1         12.1         13.1         14.1         15.1         16.1         17.1         18.1         19.1         20.1
     -0.658216    -0.616663    -0.570893    -0.568215    -0.537545    -0.523453    -0.476975    -0.432791    -0.312950     0.113507

          21.1
      0.116190


 HOMO     19.1    -0.312950 =      -8.5158eV
 LUMO     20.1     0.113507 =       3.0887eV
 LUMO-HOMO         0.426457 =      11.6045eV

 Orbitals saved in record  2100.2


 **********************************************************************************************************************************
 DATASETS  * FILE   NREC   LENGTH (MB)   RECORD NAMES
              1      19    18258.09       500      610      700      900      950      970     1000      129      960     1100   
                                          VAR    BASINP    GEOM    SYMINP    ZMAT    AOBASIS   BASIS     P2S    ABASIS      S 
                                         1400     1410     1200     1210     1080     1600     1650     1300     1700   
                                           T        V       H0       H01     AOSYM     SMH    MOLCAS    ERIS     OPER   

              2       4        4.71       700     1000      520     2100   
                                         GEOM     BASIS   MCVARS     RHF  

 PROGRAMS   *        TOTAL    HF-SCF       INT
 CPU TIMES  *      1133.68    750.69    382.88
 REAL TIME  *      2325.07 SEC
 DISK USED  *        83.16 GB
 **********************************************************************************************************************************


 PROGRAM * CCSD (Closed-shell coupled cluster)     Authors: C. Hampel, H.-J. Werner, 1991, M. Deegan, P.J. Knowles, 1992


 Convergence thresholds:  THRVAR = 1.00D-08  THRDEN = 1.00D-06

 CCSD(T)     terms to be evaluated (factor= 1.000)


 Number of core orbitals:           5 (   5 )
 Number of closed-shell orbitals:  14 (  14 )
 Number of external orbitals:     496 ( 496 )

 Molecular orbitals read from record     2100.2  Type=RHF/CANONICAL  

 Number of N-1 electron functions:              14
 Number of N-2 electron functions:             105
 Number of singly external CSFs:              6944
 Number of doubly external CSFs:          24113040
 Total number of CSFs:                    24119985

 Length of J-op  integral file:               0.00 MB
 Length of K-op  integral file:              18.27 MB
 Length of 3-ext integral record:             0.00 MB

 For full I/O caching in triples, increase memory by 1000.59 Mwords to 2074.38 Mwords.

 Multipassing necessary in transformation. To avoid, increase memory by 3.12 Mwords.

 Integral transformation finished. Total CPU: 529.15 sec, npass=  2  Memory used:1004.07 MW

 Reference energy:                   -194.03950673

 MP2 singlet pair energy:              -0.58580284
 MP2 triplet pair energy:              -0.29087753
 MP2 correlation energy:               -0.87668037
 MP2 total energy:                   -194.91618710

 SCS-MP2 correlation energy:           -0.88395387   (PS=  1.200000  PT=  0.333333)
 SCS-MP2 total energy:               -194.92346061

 ITER.      SQ.NORM     CORR.ENERGY   TOTAL ENERGY   ENERGY CHANGE        DEN1      VAR(S)    VAR(P)  DIIS     TIME  TIME/IT
   1      1.29561119    -0.90735188  -194.94685861    -0.03067151    -0.00756011  0.38D-02  0.48D-02  1  1  2037.81   415.22
   2      1.31705952    -0.91109863  -194.95060536    -0.00374675    -0.02058576  0.72D-04  0.77D-03  2  2  2406.49   424.99
   3      1.32667865    -0.91134267  -194.95084940    -0.00024404    -0.00504040  0.30D-04  0.80D-04  3  3  2777.78   419.95
   4      1.33041135    -0.91141235  -194.95091908    -0.00006968    -0.00123624  0.25D-05  0.12D-04  4  4  3148.46   412.57
   5      1.33166865    -0.91143362  -194.95094035    -0.00002127    -0.00026932  0.49D-06  0.15D-05  5  5  3524.19   414.04
   6      1.33202999    -0.91142834  -194.95093507     0.00000528    -0.00004939  0.47D-07  0.16D-06  6  6  3902.76   420.26
   7      1.33209074    -0.91142579  -194.95093253     0.00000254    -0.00000531  0.22D-07  0.21D-07  6  2  4280.68   424.19
   8      1.33210436    -0.91142575  -194.95093248     0.00000005    -0.00000064  0.56D-08  0.39D-08  6  1  4659.15   427.32
   9      1.33210514    -0.91142601  -194.95093275    -0.00000027     0.00000143  0.11D-08  0.72D-09  6  4  5030.21   427.86

 Norm of t1 vector:      0.08311580      S-energy:    -0.00000028      T1 diagnostic:  0.01110682
                                                                       D1 diagnostic:  0.03586668
                                                                       D2 diagnostic:  0.20532079 (internal)

 Doubles amplitudes (print threshold =  0.500E-01):

         I         J         SYM. A    SYM. B    A         B      T(IJ, AB)

        14        14         1         1         1         1     -0.09639416

   CPU time for triples:   2140.33 sec for i =  1 -  8 / 14 (~  20.5 % done)
   CPU time for triples:   1866.32 sec for i =  9 - 10 / 14 (~  38.5 % done)
   CPU time for triples:   2695.32 sec for i = 11 - 12 / 14 (~  64.5 % done)
   CPU time for triples:   3692.75 sec for i = 13 - 14 / 14 (  100.0 % done)

 Total CPU time for triples:  10394.72 sec


 RESULTS
 =======

  Reference energy                   -194.039506733097
  CCSD singlet pair energy             -0.645867181007
  CCSD triplet pair energy             -0.265558548587
  CCSD correlation energy              -0.911426012983

  Triples (T) contribution             -0.043304849946
  Total correlation energy             -0.954730862930

  CCSD total energy                  -194.950932746080
  CCSD[T] energy                     -194.995275443114
  CCSD-T energy                      -194.993851781037
 !CCSD(T) total energy               -194.994237596026

 Timing summary (sec):

 STEP                 CPU(USER)    SYS     CPU(TOT)    WALL
 Transformation        532.61     17.87    550.48    552.27
 CCSD iterations      4499.79    102.94   4602.73   3853.15
 Triples             10394.72     87.62  10482.34  10509.84

 Program statistics:

 Available memory in ccsd:              1073741021
 Min. memory needed in ccsd:              59253288
 Max. memory used in ccsd:                81378762
 Max. memory used in cckext:              57888231 ( 9 integral passes)



 **********************************************************************************************************************************
 DATASETS  * FILE   NREC   LENGTH (MB)   RECORD NAMES
              1      20    25110.97       500      610      700      900      950      970     1000      129      960     1100   
                                          VAR    BASINP    GEOM    SYMINP    ZMAT    AOBASIS   BASIS     P2S    ABASIS      S 
                                         1400     1410     1200     1210     1080     1600     1650     1300     1700     1380   
                                           T        V       H0       H01     AOSYM     SMH    MOLCAS    ERIS     OPER     JKOP   

              2       4        4.71       700     1000      520     2100   
                                         GEOM     BASIS   MCVARS     RHF  

 PROGRAMS   *        TOTAL   CCSD(T)    HF-SCF       INT
 CPU TIMES  *     15426.63  14292.94    750.69    382.88
 REAL TIME  *     17240.69 SEC
 DISK USED  *        83.16 GB
 **********************************************************************************************************************************

 Dump information in style XML to xml output                                                                      

 Orbitals will not be exported.

 **********************************************************************************************************************************

 CCSD(T)/cc-pVQZ energy=   -194.994237596026

         CCSD(T)          HF-SCF
   -194.99423760   -194.03950673
 **********************************************************************************************************************************
 Molpro calculation terminated
