
 Working directory              : /tmp/peterk/molpro.wDiNKnXoBU/
 Global scratch directory       : /tmp/peterk/molpro.wDiNKnXoBU/
 Wavefunction directory         : /home/peterk/wfu/
 Main file repository           : /tmp/peterk/molpro.wDiNKnXoBU/

 id        : peterk

 Nodes     nprocs
 marat        1
 GA implementation: MPI file
 GA implementation (serial work in mppx): MPI file

 Using customized tuning parameters: mindgm=1; mindgv=20; mindgc=4; mindgr=1; noblas=0; minvec=7
 default implementation of scratch files=df  


 Variables initialized (1032), CPU time= 0.01 sec
 
 core,small
 angstrom
 
 geometry={
 O1;C,O1,1.16039505;O2,C,1.16039505,O1,180
 }
 basis=cc-pCV5Z
 
 
 
 hf; hf; papt; mp3
 
 
 
 {put,xml;noorbitals,nobasis}
 Commands initialized (841), CPU time= 0.00 sec, 708 directives.
 Default parameters read. Elapsed time= 0.05 sec

 Checking input...
 Passed
1


                                         ***  PROGRAM SYSTEM MOLPRO  ***
                                       Copyright, TTI GmbH Stuttgart, 2015
                                    Version 2023.1 linked Sat Jun 10 08:01:27 2023


 **********************************************************************************************************************************
 LABEL *                                                                                                                                                                 
  (16 PROC) 64 bit serial version                                                        DATE: 12-Jun-23          TIME: 12:12:12  
 **********************************************************************************************************************************

 SHA1:             8376d659ba1296ca7ee514c57770fe2c96af278c
 **********************************************************************************************************************************

 Memory per process:      1074 MW
 Total memory per node:   1074 MW

 GA preallocation disabled
 GA check disabled

 Variable memory set to 1073.7 MW

 ZUNIT=ANG

 SETTING BASIS          =    CC-PCV5Z


 Recomputing integrals since basis changed


 Using spherical harmonics

 Library entry O      S cc-pCV5Z             selected for orbital group  1
 Library entry O      P cc-pCV5Z             selected for orbital group  1
 Library entry O      D cc-pCV5Z             selected for orbital group  1
 Library entry O      F cc-pCV5Z             selected for orbital group  1
 Library entry O      G cc-pCV5Z             selected for orbital group  1
 Library entry O      H cc-pCV5Z             selected for orbital group  1
 Library entry C      S cc-pCV5Z             selected for orbital group  2
 Library entry C      P cc-pCV5Z             selected for orbital group  2
 Library entry C      D cc-pCV5Z             selected for orbital group  2
 Library entry C      F cc-pCV5Z             selected for orbital group  2
 Library entry C      G cc-pCV5Z             selected for orbital group  2
 Library entry C      H cc-pCV5Z             selected for orbital group  2


 PROGRAM * SEWARD (Integral evaluation for generally contracted gaussian basis sets)     Author: Roland Lindh, 1990

 Geometry written to block  1 of record 700

 Orientation using atomic masses  
 Molecule type: Linear
 Symmetry elements: X,Y,Z
 Rotational constants:      11.7292910     11.7292910      0.0000000 GHz  (calculated with average atomic masses)

 Point group  D2h 



 ATOMIC COORDINATES

 NR  ATOM    CHARGE       X              Y              Z

   1  O1      8.00    0.000000000    0.000000000   -2.192828841
   2  O2      8.00    0.000000000    0.000000000    2.192828841
   3  C       6.00    0.000000000    0.000000000    0.000000000

 Bond lengths in Bohr (Angstrom)

 1-3  2.192828841  2-3  2.192828841
     ( 1.160395050)     ( 1.160395050)

 Bond angles

  1-3-2  180.00000000

 NUCLEAR CHARGE:                   22
 NUMBER OF PRIMITIVE AOS:         636
 NUMBER OF SYMMETRY AOS:          486
 NUMBER OF CONTRACTIONS:          435   (   88Ag  +   57B3u +   57B2u +   33B1g +   77B1u +   48B2g +   48B3g +   27Au  )
 NUMBER OF INNER CORE ORBITALS:     0   (    0Ag  +    0B3u +    0B2u +    0B1g +    0B1u +    0B2g +    0B3g +    0Au  )
 NUMBER OF OUTER CORE ORBITALS:     3   (    2Ag  +    0B3u +    0B2u +    0B1g +    1B1u +    0B2g +    0B3g +    0Au  )
 NUMBER OF VALENCE ORBITALS:       12   (    3Ag  +    2B3u +    2B2u +    0B1g +    3B1u +    1B2g +    1B3g +    0Au  )


 NUCLEAR REPULSION ENERGY   58.37208888

 EXTRA SYMMETRY OF AOS IN SYMMETRY 1:   1 1 1 1 1 1 1 1 1 1   1 1 1 1 1 1 1 1 1 1   2 1 2 1 2 1 2 1 2 1   2 1 2 1 2 1 2 1 2 1
                                        2 1 2 1 3 2 1 3 2 1   3 2 2 3 1 1 1 1 1 1   1 1 1 1 1 1 2 1 2 1   2 1 2 1 2 1 2 1 2 1
                                        3 2 1 3 2 1 3 2
 EXTRA SYMMETRY OF AOS IN SYMMETRY 2:   1 1 1 1 1 1 1 1 1 1   1 1 1 1 1 1 1 2 1 2   1 2 1 2 1 2 1 2 1 2   1 2 1 2 3 1 1 1 1 1
                                        1 1 1 1 1 2 1 2 1 2   1 2 1 2 1 2 3
 EXTRA SYMMETRY OF AOS IN SYMMETRY 3:   1 1 1 1 1 1 1 1 1 1   1 1 1 1 1 1 1 2 1 2   1 2 1 2 1 2 1 2 1 2   1 2 1 2 3 1 1 1 1 1
                                        1 1 1 1 1 2 1 2 1 2   1 2 1 2 1 2 3
 EXTRA SYMMETRY OF AOS IN SYMMETRY 4:   1 1 1 1 1 1 1 1 1 1   1 1 1 2 1 2 1 2 2 1   1 1 1 1 1 1 1 1 2 1   2 1 2
 EXTRA SYMMETRY OF AOS IN SYMMETRY 5:   1 1 1 1 1 1 1 1 1 1   1 1 1 1 1 1 1 1 1 1   2 1 2 1 2 1 2 1 2 1   2 1 2 1 2 1 2 1 2 1
                                        2 1 2 1 3 2 1 3 2 1   3 2 2 3 1 1 1 1 1 1   1 1 1 1 1 2 1 2 1 2   1 2 1 2 2 3 1
 EXTRA SYMMETRY OF AOS IN SYMMETRY 6:   1 1 1 1 1 1 1 1 1 1   1 1 1 1 1 1 1 2 1 2   1 2 1 2 1 2 1 2 1 2   1 2 1 2 3 1 1 1 1 1
                                        1 1 1 2 1 2 1 2
 EXTRA SYMMETRY OF AOS IN SYMMETRY 7:   1 1 1 1 1 1 1 1 1 1   1 1 1 1 1 1 1 2 1 2   1 2 1 2 1 2 1 2 1 2   1 2 1 2 3 1 1 1 1 1
                                        1 1 1 2 1 2 1 2
 EXTRA SYMMETRY OF AOS IN SYMMETRY 8:   1 1 1 1 1 1 1 1 1 1   1 1 1 2 1 2 1 2 2 1   1 1 1 1 1 2 1

 Eigenvalues of metric

         1 0.244E-05 0.334E-05 0.571E-04 0.186E-03 0.359E-03 0.418E-03 0.575E-03 0.108E-02
         2 0.254E-03 0.472E-03 0.515E-03 0.323E-02 0.212E-01 0.237E-01 0.374E-01 0.393E-01
         3 0.254E-03 0.472E-03 0.515E-03 0.323E-02 0.212E-01 0.237E-01 0.374E-01 0.393E-01
         4 0.154E-01 0.511E-01 0.664E-01 0.115E+00 0.151E+00 0.178E+00 0.226E+00 0.275E+00
         5 0.331E-05 0.287E-04 0.143E-03 0.313E-03 0.342E-03 0.521E-03 0.999E-03 0.310E-02
         6 0.436E-03 0.546E-03 0.477E-02 0.173E-01 0.311E-01 0.401E-01 0.547E-01 0.756E-01
         7 0.436E-03 0.546E-03 0.477E-02 0.173E-01 0.311E-01 0.401E-01 0.547E-01 0.756E-01
         8 0.185E-01 0.287E-01 0.654E-01 0.152E+00 0.155E+00 0.305E+00 0.391E+00 0.483E+00


 Contracted 2-electron integrals neglected if value below      1.0D-12
 AO integral compression algorithm  1   Integral accuracy      1.0D-12

     2063.335 MB (compressed) written to integral file ( 33.6%)


 NUMBER OF SORTED TWO-ELECTRON INTEGRALS:  571148779.     BUFFER LENGTH:  32768
 NUMBER OF SEGMENTS:  18  SEGMENT LENGTH:   31999594      RECORD LENGTH: 524288

 Memory used in sort:      32.56 MW

 SORT1 READ   767661696. AND WROTE   351897082. INTEGRALS IN   1017 RECORDS. CPU TIME:    33.46 SEC, REAL TIME:   129.70 SEC
 SORT2 READ   351897082. AND WROTE   571148779. INTEGRALS IN   7871 RECORDS. CPU TIME:    14.20 SEC, REAL TIME:    58.29 SEC

 FILE SIZES:   FILE 1:  2097.5 MBYTE,  FILE 4:  4265.7 MBYTE,   TOTAL:   6363.2 MBYTE

 OPERATOR DM      FOR CENTER  0  COORDINATES:    0.000000    0.000000    0.000000


 **********************************************************************************************************************************
 DATASETS  * FILE   NREC   LENGTH (MB)   RECORD NAMES
              1      19     1570.04       500      610      700      900      950      970     1000      129      960     1100   
                                          VAR    BASINP    GEOM    SYMINP    ZMAT    AOBASIS   BASIS     P2S    ABASIS      S 
                                         1400     1410     1200     1210     1080     1600     1650     1300     1700   
                                           T        V       H0       H01     AOSYM     SMH    MOLCAS    ERIS     OPER   

 PROGRAMS   *        TOTAL       INT
 CPU TIMES  *       185.30    185.16
 REAL TIME  *       330.81 SEC
 DISK USED  *         5.93 GB
 **********************************************************************************************************************************


 Program * Restricted Hartree-Fock

 Orbital guess generated from atomic densities. Full valence occupancy:    5   2   2   0   4   1   1   0


 Initial occupancy:   4   1   1   0   3   1   1   0

 NELEC=   22   SYM=1   MS2= 0   THRE=1.0D-08   THRD=3.2D-06   THRG=3.2D-06  HFMA2=F  DIIS_START=2   DIIS_MAX=10   DIIS_INCORE=F

 Level shifts:    0.00 (CLOSED)    0.00 (OPEN)    0.30 (GAP_MIN)

 ITER           ETOT              DE          GRAD        DDIFF     DIIS  NEXP   TIME(IT)  TIME(TOT)  DIAG
   1     -187.65350111    -187.65350111     0.00D+00     0.54D-01     0     0       0.91      1.79    start
   2     -187.69202738      -0.03852627     0.11D-01     0.83D-02     1     0       0.93      2.72    diag
   3     -187.72464293      -0.03261555     0.81D-02     0.38D-02     2     0       0.92      3.64    diag
   4     -187.72492680      -0.00028387     0.67D-03     0.39D-03     3     0       0.89      4.53    diag
   5     -187.72495786      -0.00003107     0.20D-03     0.15D-03     4     0       0.94      5.47    diag
   6     -187.72496013      -0.00000227     0.50D-04     0.46D-04     5     0       0.89      6.36    diag
   7     -187.72496019      -0.00000006     0.63D-05     0.64D-05     6     0       0.92      7.28    diag
   8     -187.72496019      -0.00000000     0.12D-05     0.13D-05     7     0       0.91      8.19    fixocc
   9     -187.72496019      -0.00000000     0.16D-06     0.12D-06     0     0       0.98      9.17    diag

 Final occupancy:   4   1   1   0   3   1   1   0

 !RHF STATE 1.1 Energy               -187.724960192632
  RHF One-electron energy            -372.530231891076
  RHF Two-electron energy             126.433182817521
  RHF Kinetic energy                  187.452123122140
  RHF Nuclear energy                   58.372088880924
  RHF Virial quotient                  -1.001455502696

 !RHF STATE 1.1 Dipole moment           0.00000000     0.00000000     0.00000000
 Dipole moment /Debye                   0.00000000     0.00000000     0.00000000

 Orbital energies:

           1.1          2.1          3.1          4.1          5.1          6.1
    -20.649340   -11.459025    -1.530722    -0.800740     0.106092     0.321337

           1.2          2.2          3.2
     -0.715834     0.162397     0.216995

           1.3          2.3          3.3
     -0.715834     0.162397     0.216995

           1.4          2.4
      0.471499     1.211018

           1.5          2.5          3.5          4.5          5.5
    -20.649384    -1.477564    -0.743687     0.190280     0.373001

           1.6          2.6          3.6
     -0.544903     0.356749     0.858824

           1.7          2.7          3.7
     -0.544903     0.356749     0.858824

           1.8          2.8
      0.976785     1.780985


 HOMO      1.7    -0.544903 =     -14.8276eV
 LUMO      5.1     0.106092 =       2.8869eV
 LUMO-HOMO         0.650994 =      17.7145eV

 Orbitals saved in record  2100.2


 **********************************************************************************************************************************
 DATASETS  * FILE   NREC   LENGTH (MB)   RECORD NAMES
              1      19     1570.04       500      610      700      900      950      970     1000      129      960     1100   
                                          VAR    BASINP    GEOM    SYMINP    ZMAT    AOBASIS   BASIS     P2S    ABASIS      S 
                                         1400     1410     1200     1210     1080     1600     1650     1300     1700   
                                           T        V       H0       H01     AOSYM     SMH    MOLCAS    ERIS     OPER   

              2       4        0.88       700     1000      520     2100   
                                         GEOM     BASIS   MCVARS     RHF  

 PROGRAMS   *        TOTAL    HF-SCF       INT
 CPU TIMES  *       194.47      9.17    185.16
 REAL TIME  *       340.83 SEC
 DISK USED  *         5.93 GB
 **********************************************************************************************************************************


 Program * Restricted Hartree-Fock

 Molecular orbitals read from record     2100.2  Type=RHF/CANONICAL  

 Initial occupancy:   4   1   1   0   3   1   1   0

 NELEC=   22   SYM=1   MS2= 0   THRE=1.0D-08   THRD=3.2D-06   THRG=3.2D-06  HFMA2=F  DIIS_START=2   DIIS_MAX=10   DIIS_INCORE=F

 Level shifts:    0.00 (CLOSED)    0.00 (OPEN)    0.30 (GAP_MIN)

 ITER           ETOT              DE          GRAD        DDIFF     DIIS  NEXP   TIME(IT)  TIME(TOT)  DIAG
   1     -187.72496019    -187.72496019     0.00D+00     0.54D-01     0     0       0.90      0.90    start
   2     -187.72496019      -0.00000000     0.57D-07     0.42D-07     1     0       0.91      1.81    diag

 Final occupancy:   4   1   1   0   3   1   1   0

 !RHF STATE 1.1 Energy               -187.724960192635
  RHF One-electron energy            -372.530234824257
  RHF Two-electron energy             126.433185750698
  RHF Kinetic energy                  187.452129308995
  RHF Nuclear energy                   58.372088880924
  RHF Virial quotient                  -1.001455469643

 !RHF STATE 1.1 Dipole moment           0.00000000     0.00000000     0.00000000
 Dipole moment /Debye                   0.00000000     0.00000000     0.00000000

 Orbital energies:

           1.1          2.1          3.1          4.1          5.1          6.1
    -20.649340   -11.459023    -1.530722    -0.800740     0.106092     0.321337

           1.2          2.2          3.2
     -0.715834     0.162397     0.216996

           1.3          2.3          3.3
     -0.715834     0.162397     0.216996

           1.4          2.4
      0.471499     1.211018

           1.5          2.5          3.5          4.5          5.5
    -20.649384    -1.477563    -0.743687     0.190280     0.373002

           1.6          2.6          3.6
     -0.544903     0.356749     0.858824

           1.7          2.7          3.7
     -0.544903     0.356749     0.858824

           1.8          2.8
      0.976785     1.780985


 HOMO      1.7    -0.544903 =     -14.8276eV
 LUMO      5.1     0.106092 =       2.8869eV
 LUMO-HOMO         0.650995 =      17.7145eV

 Orbitals saved in record  2101.2


 **********************************************************************************************************************************
 DATASETS  * FILE   NREC   LENGTH (MB)   RECORD NAMES
              1      19     1570.04       500      610      700      900      950      970     1000      129      960     1100   
                                          VAR    BASINP    GEOM    SYMINP    ZMAT    AOBASIS   BASIS     P2S    ABASIS      S 
                                         1400     1410     1200     1210     1080     1600     1650     1300     1700   
                                           T        V       H0       H01     AOSYM     SMH    MOLCAS    ERIS     OPER   

              2       5        1.71       700     1000      520     2100     2101   
                                         GEOM     BASIS   MCVARS     RHF      RHF  

 PROGRAMS   *        TOTAL    HF-SCF    HF-SCF       INT
 CPU TIMES  *       196.31      1.83      9.17    185.16
 REAL TIME  *       342.92 SEC
 DISK USED  *         5.93 GB
 **********************************************************************************************************************************


 PROGRAM * PAPT (Closed-shell)     Authors: C. Hampel, H.-J. Werner, 1991, P.J. Knowles, 2021


 CORETYPE=SMALL

 Convergence thresholds:  THRVAR = 1.00D-08  THRDEN = 1.00D-06

 Number of closed-shell orbitals:  11 (   4   1   1   0   3   1   1   0 )
 Number of external orbitals:     424 (  84  56  56  33  74  47  47  27 )

 Molecular orbitals read from record     2101.2  Type=RHF/CANONICAL  

 Number of N-1 electron functions:              11
 Number of N-2 electron functions:              66
 Number of singly external CSFs:               764
 Number of doubly external CSFs:           1420868
 Total number of CSFs:                     1421633

 Length of J-op  integral file:               0.00 MB
 Length of K-op  integral file:               1.89 MB

 Integral transformation finished. Total CPU:   3.03 sec, npass=  1  Memory used:   1.92 MW

 Reference energy:                   -187.72496019

                        CORR.ENERGY   TOTAL ENERGY   ENERGY CHANGE
 MP2:                   -0.84007108  -188.56503127    -0.84007108

 SCS-MP2 correlation energy:           -0.84341948   (PS=  1.200000  PT=  0.333333)
 SCS-MP2 total energy:               -188.56837967
 Iteration:   1     0.3804D+00
 Iteration:   2     0.5626D+00
 Iteration:   3     0.2091D+00
 Iteration:   4     0.1094D+00
 Iteration:   5     0.1211D+01
 Iteration:   6     0.4062D-01
 Iteration:   7     0.7901D-01
 Iteration:   8     0.1617D-01
 Iteration:   9     0.1806D-01
 Iteration:  10     0.1356D-01
 Iteration:  11     0.3497D-02
 Iteration:  12     0.1928D-01
 Iteration:  13     0.7291D-03
 Iteration:  14     0.3073D-03
 Iteration:  15     0.3125D-02
 Iteration:  16     0.1868D-03
 Iteration:  17     0.4814D-04
 PAPT operator written to  7000.1
 PAPT orbitals and eigenvalues written to  7000.2

 MP3(D):                -0.81842832  -188.54338851     0.02164276



 RESULTS
 =======

  Reference energy                   -187.724960192635

  Correlated core orbitals:             1.1       2.1       1.5
  Orbital energies:                   -20.6493  -11.4590  -20.6494

  MP3 core-core energy                 -0.123594568219
  MP3 core-valence energy              -0.054519603160
  MP3 valence correlation energy       -0.640314146973

  MP3 singlet pair energy              -0.566290303925
  MP3 triplet pair energy              -0.252138014427
  MP3 correlation energy               -0.818428318352

 !MP3 total energy                   -188.543388510987

 Timing summary (sec):

 STEP                 CPU(USER)    SYS     CPU(TOT)    WALL
 Transformation          3.07      0.25      3.32      3.34
 CCSD iterations       202.82      0.27    203.09      6.79

 Program statistics:

 Available memory in ccsd:              1073741336
 Min. memory needed in ccsd:               3755147
 Max. memory used in ccsd:                 5032445
 Max. memory used in cckext:               4223823 ( 1 integral passes)



 **********************************************************************************************************************************
 DATASETS  * FILE   NREC   LENGTH (MB)   RECORD NAMES
              1      21     1589.44       500      610      700      900      950      970     1000      129      960     1100   
                                          VAR    BASINP    GEOM    SYMINP    ZMAT    AOBASIS   BASIS     P2S    ABASIS      S 
                                         1400     1410     1200     1210     1080     1600     1650     1300     1700     1380   
                                           T        V       H0       H01     AOSYM     SMH    MOLCAS    ERIS     OPER     JKOP   
                                         7000   
                                        PAPT AO    

              2       6        2.43       700     1000      520     2100     2101     7000   
                                         GEOM     BASIS   MCVARS     RHF      RHF     PAPT   

 PROGRAMS   *        TOTAL      PAPT    HF-SCF    HF-SCF       INT
 CPU TIMES  *       205.52      9.20      1.83      9.17    185.16
 REAL TIME  *       353.11 SEC
 DISK USED  *         5.93 GB
 **********************************************************************************************************************************


 PROGRAM * MP3 (Closed-shell)     Authors: C. Hampel, H.-J. Werner, 1991, M. Deegan, P.J. Knowles, 1992


 CORETYPE=SMALL

 Convergence thresholds:  THRVAR = 1.00D-08  THRDEN = 1.00D-06

 Number of closed-shell orbitals:  11 (   4   1   1   0   3   1   1   0 )
 Number of external orbitals:     424 (  84  56  56  33  74  47  47  27 )

 Molecular orbitals read from record     7000.2  Type=PAPT/CANONICAL (state 1.1)

 Number of N-1 electron functions:              11
 Number of N-2 electron functions:              66
 Number of singly external CSFs:               764
 Number of doubly external CSFs:           1420868
 Total number of CSFs:                     1421633

 Length of J-op  integral file:               0.00 MB
 Length of K-op  integral file:               1.89 MB

 Integral transformation finished. Total CPU:   2.97 sec, npass=  1  Memory used:   1.92 MW
 Orbital energies read from record       7000.2  Type=PAPT/CANONICAL (state 1.1)

 Reference energy:                   -187.72496019

                        CORR.ENERGY   TOTAL ENERGY   ENERGY CHANGE
 MP2:                   -0.82459433  -188.54955452    -0.82459433

 SCS-MP2 correlation energy:           -0.83075195   (PS=  1.200000  PT=  0.333333)
 SCS-MP2 total energy:               -188.55571215

 MP3(D):                -0.82465298  -188.54961317    -0.00005865



 RESULTS
 =======

  Reference energy                   -187.724960192635

  Correlated core orbitals:             1.1       2.1       1.5
  Orbital energies:                   -19.0799  -10.5740  -19.0793

  MP3 core-core energy                 -0.124403241079
  MP3 core-valence energy              -0.054006860164
  MP3 valence correlation energy       -0.646242875117

  MP3 singlet pair energy              -0.568169271846
  MP3 triplet pair energy              -0.256483704514
  MP3 correlation energy               -0.824652976360

 !MP3 total energy                   -188.549613168995

 Timing summary (sec):

 STEP                 CPU(USER)    SYS     CPU(TOT)    WALL
 Transformation          3.97      0.29      4.26      4.35
 CCSD iterations       210.58      0.22    210.80      4.95

 Program statistics:

 Available memory in ccsd:              1073741336
 Min. memory needed in ccsd:               3755147
 Max. memory used in ccsd:                 5032445
 Max. memory used in cckext:               4223823 ( 1 integral passes)



 **********************************************************************************************************************************
 DATASETS  * FILE   NREC   LENGTH (MB)   RECORD NAMES
              1      21     1589.44       500      610      700      900      950      970     1000      129      960     1100   
                                          VAR    BASINP    GEOM    SYMINP    ZMAT    AOBASIS   BASIS     P2S    ABASIS      S 
                                         1400     1410     1200     1210     1080     1600     1650     1300     1700     1380   
                                           T        V       H0       H01     AOSYM     SMH    MOLCAS    ERIS     OPER     JKOP   
                                         7000   
                                        PAPT AO    

              2       6        2.43       700     1000      520     2100     2101     7000   
                                         GEOM     BASIS   MCVARS     RHF      RHF     PAPT   

 PROGRAMS   *        TOTAL       MP3      PAPT    HF-SCF    HF-SCF       INT
 CPU TIMES  *       214.18      8.66      9.20      1.83      9.17    185.16
 REAL TIME  *       362.44 SEC
 DISK USED  *         5.93 GB
 **********************************************************************************************************************************

 Dump information in style XML to xml output                                                                      

 Orbitals will not be exported.

 **********************************************************************************************************************************

 MP3/cc-pCV5Z energy=   -188.549613168995

             MP3            PAPT          HF-SCF          HF-SCF
   -188.54961317   -188.54338851   -187.72496019   -187.72496019
 **********************************************************************************************************************************
 Molpro calculation terminated
