
 Working directory              : /var/folders/2v/xbgp75_9785319ghcgb4zr4r0000gp/T//molpro.xovU7r3nQD/
 Global scratch directory       : /var/folders/2v/xbgp75_9785319ghcgb4zr4r0000gp/T//molpro.xovU7r3nQD/
 Wavefunction directory         : /Users/sacpjk/wfu/
 Main file repository           : /var/folders/2v/xbgp75_9785319ghcgb4zr4r0000gp/T//molpro.xovU7r3nQD/

 id        : peterk

 Nodes                        nprocs
 Cardiff-University-G34YLXT77Y    1
 GA implementation: MPI file
 GA implementation (serial work in mppx): MPI file

 Using customized tuning parameters: mindgm=1; mindgv=20; mindgc=4; mindgr=1; noblas=0; minvec=7
 default implementation of scratch files=df  


 Variables initialized (1032), CPU time= 0.01 sec
 
 symmetry,nosym
 
 
 geometry={
           17
     H         -0.53886696     -2.24361845      1.32579347
     C         -0.65877300     -1.36818713      0.70008825
     H         -0.79608205      1.84165501      0.00000000
     C         -0.65877300     -0.04467066      1.15549741
     C         -0.65877300     -1.36818713     -0.70008825
     H         -2.23230656      0.80012564      0.00000000
     C         -1.13085017      0.80520364      0.00000000
     C          1.44099175      0.52019454      0.69489525
     H         -0.78769605      0.24265144      2.19170778
     C          1.44099175      0.52019454     -0.69489525
     H         -0.53886696     -2.24361845     -1.32579347
     C         -0.65877300     -0.04467066     -1.15549741
     H         -0.78769605      0.24265144     -2.19170778
     H          1.37100572      1.45640087     -1.23647844
     H          1.91173092     -0.28626275      1.24115144
     H          1.37100572      1.45640087      1.23647844
     H          1.91173092     -0.28626275     -1.24115144
 }
 basis=cc-pVDZ
 
 
 
 hf; ccsd(t)
 
 
 
 {put,xml;noorbitals,nobasis}
 Commands initialized (841), CPU time= 0.00 sec, 704 directives.
 Default parameters read. Elapsed time= 1.47 sec

 Checking input...
 Passed
1


                                         ***  PROGRAM SYSTEM MOLPRO  ***
                                       Copyright, TTI GmbH Stuttgart, 2015
                                    Version 2023.1 linked Tue Jun  6 09:54:11 2023


 **********************************************************************************************************************************
 LABEL *                                                                                                                                                                 
  64 bit serial version                                                                  DATE: 11-Jun-23          TIME: 23:15:01  
 **********************************************************************************************************************************

 SHA1:             8ebb0dd001088a5c915591db1a321413035db0b1
 **********************************************************************************************************************************

 Memory per process:       393 MW
 Total memory per node:    524 MW
 Total GA space:           131 MW

 GA preallocation disabled
 GA check enabled

 Variable memory set to 393.2 MW

 ZSYMEL=NOSYM


 Geometry recognized as XYZ

 SETTING BASIS          =    CC-PVDZ


 Recomputing integrals since basis changed


 Using spherical harmonics

 Library entry H      S cc-pVDZ              selected for orbital group  1
 Library entry H      P cc-pVDZ              selected for orbital group  1
 Library entry C      S cc-pVDZ              selected for orbital group  2
 Library entry C      P cc-pVDZ              selected for orbital group  2
 Library entry C      D cc-pVDZ              selected for orbital group  2


 PROGRAM * SEWARD (Integral evaluation for generally contracted gaussian basis sets)     Author: Roland Lindh, 1990

 Geometry written to block  1 of record 700


 Point group  C1  



 ATOMIC COORDINATES

 NR  ATOM    CHARGE       X              Y              Z

   1  H       1.00   -1.018310972   -4.239824399    2.505386556
   2  C       6.00   -1.244900548   -2.585498963    1.322975056
   3  H       1.00   -1.504377047    3.480223585    0.000000000
   4  C       6.00   -1.244900548   -0.084415313    2.183573643
   5  C       6.00   -1.244900548   -2.585498963   -1.322975056
   6  H       1.00   -4.218448025    1.512018325    0.000000000
   7  C       6.00   -2.136997109    1.521614354    0.000000000
   8  C       6.00    2.723079755    0.983025212    1.313161708
   9  H       1.00   -1.488529804    0.458544765    4.141727449
  10  C       6.00    2.723079755    0.983025212   -1.313161708
  11  H       1.00   -1.018310972   -4.239824399   -2.505386556
  12  C       6.00   -1.244900548   -0.084415313   -2.183573643
  13  H       1.00   -1.488529804    0.458544765   -4.141727449
  14  H       1.00    2.590825326    2.752198772   -2.336605611
  15  H       1.00    3.612647863   -0.540958197    2.345436301
  16  H       1.00    2.590825326    2.752198772    2.336605611
  17  H       1.00    3.612647863   -0.540958197   -2.345436301

 Bond lengths in Bohr (Angstrom)

 1-2  2.046028455  2-4  2.645004603  2-5  2.645950111  3-7  2.058241546  4-7  2.853622508
     ( 1.082711631)     ( 1.399676159)     ( 1.400176500)     ( 1.089174521)     ( 1.510072000)

  4- 9  2.046589161   5-11  2.046028455   5-12  2.645004603   6- 7  2.081473035   7-12  2.853622508
       ( 1.083008344)       ( 1.082711631)       ( 1.399676159)       ( 1.101468095)       ( 1.510072000)

  8-10  2.626323416   8-15  2.044369752   8-16  2.048146416  10-14  2.048146416  10-17  2.044369752
       ( 1.389790500)       ( 1.081833884)       ( 1.083832408)       ( 1.083832408)       ( 1.081833884)

 12-13  2.046589161
       ( 1.083008344)

 Bond angles

  1-2-4  125.20666436   1-2-5  125.30337494   2-4-7  106.45195306   2-4-9  124.20616870

  2- 5-11  125.30337494   2- 5-12  108.98784253   3- 7- 4  116.07032774   3- 7- 6  108.16431920

  3- 7-12  116.07032774   4- 2- 5  108.98784253   4- 7- 6  108.06049694   4- 7-12   99.84843487

  5-12- 7  106.45195306   5-12-13  124.20616870   6- 7-12  108.06049694   7- 4- 9  123.06582705

  7-12-13  123.06582705   8-10-14  119.97967419   8-10-17  120.32706203  10- 8-15  120.32706203

 10- 8-16  119.97967419  11- 5-12  125.20666436  14-10-17  114.81580975  15- 8-16  114.81580975

 NUCLEAR CHARGE:                   52
 NUMBER OF PRIMITIVE AOS:         259
 NUMBER OF SYMMETRY AOS:          252
 NUMBER OF CONTRACTIONS:          148   (  148A   )
 NUMBER OF INNER CORE ORBITALS:     0   (    0A   )
 NUMBER OF OUTER CORE ORBITALS:     7   (    7A   )
 NUMBER OF VALENCE ORBITALS:       38   (   38A   )


 NUCLEAR REPULSION ENERGY  294.82376202


 Eigenvalues of metric

         1 0.907E-03 0.206E-02 0.268E-02 0.460E-02 0.512E-02 0.822E-02 0.114E-01 0.142E-01


 Contracted 2-electron integrals neglected if value below      1.0D-11
 AO integral compression algorithm  1   Integral accuracy      1.0D-11

     258.736 MB (compressed) written to integral file ( 49.9%)


 NUMBER OF SORTED TWO-ELECTRON INTEGRALS:   60791851.     BUFFER LENGTH:  32768
 NUMBER OF SEGMENTS:   4  SEGMENT LENGTH:   15999503      RECORD LENGTH: 524288

 Memory used in sort:      16.56 MW

 SORT1 READ    64841502. AND WROTE    58448593. INTEGRALS IN    168 RECORDS. CPU TIME:     0.46 SEC, REAL TIME:     0.63 SEC
 SORT2 READ    58448593. AND WROTE    60791851. INTEGRALS IN    987 RECORDS. CPU TIME:     0.42 SEC, REAL TIME:     0.54 SEC

 FILE SIZES:   FILE 1:   289.8 MBYTE,  FILE 4:   704.7 MBYTE,   TOTAL:    994.5 MBYTE

 OPERATOR DM      FOR CENTER  0  COORDINATES:    0.000000    0.000000    0.000000


 **********************************************************************************************************************************
 DATASETS  * FILE   NREC   LENGTH (MB)   RECORD NAMES
              1      19      256.55       500      610      700      900      950      970     1000      129      960     1100   
                                          VAR    BASINP    GEOM    SYMINP    ZMAT    AOBASIS   BASIS     P2S    ABASIS      S 
                                         1400     1410     1200     1210     1080     1600     1650     1300     1700   
                                           T        V       H0       H01     AOSYM     SMH    MOLCAS    ERIS     OPER   

 PROGRAMS   *        TOTAL       INT
 CPU TIMES  *         3.70      3.60
 REAL TIME  *        10.41 SEC
 DISK USED  *       949.09 MB
 **********************************************************************************************************************************


 Program * Restricted Hartree-Fock

 Orbital guess generated from atomic densities. Full valence occupancy:   45

 Initial occupancy:  26

 NELEC=   52   SYM=1   MS2= 0   THRE=1.0D-08   THRD=3.2D-06   THRG=3.2D-06  HFMA2=F  DIIS_START=2   DIIS_MAX=10   DIIS_INCORE=F

 Level shifts:    0.00 (CLOSED)    0.00 (OPEN)    0.30 (GAP_MIN)

 ITER           ETOT              DE          GRAD        DDIFF     DIIS  NEXP   TIME(IT)  TIME(TOT)  DIAG
   1     -270.70694459    -270.70694459     0.00D+00     0.86D-01     0     0       0.27      0.51    start
   2     -270.77281577      -0.06587118     0.38D-02     0.85D-02     1     0       0.33      0.84    diag
   3     -270.78109625      -0.00828048     0.15D-02     0.31D-02     2     0       0.36      1.20    diag
   4     -270.78247323      -0.00137698     0.52D-03     0.11D-02     3     0       0.26      1.46    diag
   5     -270.78251248      -0.00003925     0.67D-04     0.20D-03     4     0       0.26      1.72    diag
   6     -270.78252093      -0.00000845     0.30D-04     0.70D-04     5     0       0.33      2.05    diag
   7     -270.78252365      -0.00000272     0.12D-04     0.36D-04     6     0       0.26      2.31    diag
   8     -270.78252447      -0.00000082     0.59D-05     0.23D-04     7     0       0.31      2.62    fixocc
   9     -270.78252457      -0.00000010     0.20D-05     0.91D-05     8     0       0.30      2.92    diag
  10     -270.78252458      -0.00000001     0.65D-06     0.23D-05     9     0       0.29      3.21    diag/orth
  11     -270.78252458      -0.00000000     0.22D-06     0.51D-06     0     0       0.28      3.49    diag

 Final occupancy:  26

 !RHF STATE 1.1 Energy               -270.782524580286
  RHF One-electron energy            -949.208118370584
  RHF Two-electron energy             383.601831774143
  RHF Kinetic energy                  270.441922004384
  RHF Nuclear energy                  294.823762016155
  RHF Virial quotient                  -1.001259429653

 !RHF STATE 1.1 Dipole moment          -0.12674651     0.09162536     0.00000000
 Dipole moment /Debye                  -0.32215749     0.23288843     0.00000000

 Orbital energies:

           1.1          2.1          3.1          4.1          5.1          6.1          7.1          8.1          9.1         10.1
    -11.243166   -11.243153   -11.231674   -11.225715   -11.224500   -11.222794   -11.221649    -1.155251    -1.008293    -0.955144

          11.1         12.1         13.1         14.1         15.1         16.1         17.1         18.1         19.1         20.1
     -0.951864    -0.785466    -0.757839    -0.715654    -0.691539    -0.624728    -0.594273    -0.560292    -0.538518    -0.521726

          21.1         22.1         23.1         24.1         25.1         26.1         27.1         28.1
     -0.515814    -0.500203    -0.480228    -0.431563    -0.301273    -0.299914     0.135404     0.157375


 HOMO     26.1    -0.299914 =      -8.1611eV
 LUMO     27.1     0.135404 =       3.6845eV
 LUMO-HOMO         0.435319 =      11.8456eV

 Orbitals saved in record  2100.2


 **********************************************************************************************************************************
 DATASETS  * FILE   NREC   LENGTH (MB)   RECORD NAMES
              1      19      256.55       500      610      700      900      950      970     1000      129      960     1100   
                                          VAR    BASINP    GEOM    SYMINP    ZMAT    AOBASIS   BASIS     P2S    ABASIS      S 
                                         1400     1410     1200     1210     1080     1600     1650     1300     1700   
                                           T        V       H0       H01     AOSYM     SMH    MOLCAS    ERIS     OPER   

              2       4        1.00       700     1000      520     2100   
                                         GEOM     BASIS   MCVARS     RHF  

 PROGRAMS   *        TOTAL    HF-SCF       INT
 CPU TIMES  *         7.19      3.49      3.60
 REAL TIME  *        15.39 SEC
 DISK USED  *       949.09 MB
 **********************************************************************************************************************************


 PROGRAM * CCSD (Closed-shell coupled cluster)     Authors: C. Hampel, H.-J. Werner, 1991, M. Deegan, P.J. Knowles, 1992


 Convergence thresholds:  THRVAR = 1.00D-08  THRDEN = 1.00D-06

 CCSD(T)     terms to be evaluated (factor= 1.000)


 Number of core orbitals:           7 (   7 )
 Number of closed-shell orbitals:  19 (  19 )
 Number of external orbitals:     122 ( 122 )

 Molecular orbitals read from record     2100.2  Type=RHF/CANONICAL  

 Number of N-1 electron functions:              19
 Number of N-2 electron functions:             190
 Number of singly external CSFs:              2318
 Number of doubly external CSFs:           2687721
 Total number of CSFs:                     2690040

 Length of J-op  integral file:               0.00 MB
 Length of K-op  integral file:               1.57 MB
 Length of 3-ext integral record:             0.00 MB

 Memory could be reduced to 45.82 Mwords without degradation in triples

 Integral transformation finished. Total CPU:   2.25 sec, npass=  1  Memory used:  39.87 MW

 Reference energy:                   -270.78252458

 MP2 singlet pair energy:              -0.61026548
 MP2 triplet pair energy:              -0.37975669
 MP2 correlation energy:               -0.99002217
 MP2 total energy:                   -271.77254676

 SCS-MP2 correlation energy:           -0.96861163   (PS=  1.200000  PT=  0.333333)
 SCS-MP2 total energy:               -271.75113621

 ITER.      SQ.NORM     CORR.ENERGY   TOTAL ENERGY   ENERGY CHANGE        DEN1      VAR(S)    VAR(P)  DIIS     TIME  TIME/IT
   1      1.38895381    -1.03488900  -271.81741358    -0.04486682    -0.01524063  0.38D-02  0.91D-02  1  1    16.34     7.26
   2      1.42165752    -1.04120822  -271.82373280    -0.00631922    -0.02936504  0.83D-04  0.12D-02  2  2    23.63     7.57
   3      1.43219983    -1.04134504  -271.82386962    -0.00013681    -0.00520021  0.23D-04  0.11D-03  3  3    31.44     7.97
   4      1.43690783    -1.04156034  -271.82408492    -0.00021531    -0.00137070  0.19D-05  0.16D-04  4  4    38.74     7.95
   5      1.43845957    -1.04160416  -271.82412874    -0.00004382    -0.00034071  0.21D-06  0.18D-05  5  5    45.68     7.85
   6      1.43885599    -1.04159223  -271.82411681     0.00001193    -0.00005474  0.31D-07  0.12D-06  6  6    52.52     7.83
   7      1.43890777    -1.04159399  -271.82411857    -0.00000176    -0.00000062  0.69D-08  0.12D-07  6  2    59.69     7.89
   8      1.43891767    -1.04159401  -271.82411859    -0.00000002    -0.00000093  0.98D-09  0.11D-08  6  1    67.22     7.94
   9      1.43891691    -1.04159420  -271.82411878    -0.00000019     0.00000153  0.27D-09  0.14D-09  6  4    74.69     7.98

 Norm of t1 vector:      0.08368544      S-energy:     0.00000007      T1 diagnostic:  0.00959938
                                                                       D1 diagnostic:  0.02886156
                                                                       D2 diagnostic:  0.19648942 (internal)

 Doubles amplitudes (print threshold =  0.500E-01):

         I         J         SYM. A    SYM. B    A         B      T(IJ, AB)

        18        18         1         1         2         2     -0.08108202
        19        19         1         1         1         1     -0.08450940


 Total CPU time for triples:    106.58 sec


 RESULTS
 =======

  Reference energy                   -270.782524580285
  CCSD singlet pair energy             -0.703709211860
  CCSD triplet pair energy             -0.337885055431
  CCSD correlation energy              -1.041594200861

  Triples (T) contribution             -0.045962262121
  Total correlation energy             -1.087556462982

  CCSD total energy                  -271.824118781146
  CCSD[T] energy                     -271.870954786104
  CCSD-T energy                      -271.869725493968
 !CCSD(T) total energy               -271.870081043266

 Timing summary (sec):

 STEP                 CPU(USER)    SYS     CPU(TOT)    WALL
 Transformation          2.34      0.22      2.56      3.03
 CCSD iterations        72.49      2.22     74.71     72.58
 Triples               106.58      6.13    112.71    125.43

 Program statistics:

 Available memory in ccsd:               393214530
 Min. memory needed in ccsd:               6824915
 Max. memory used in ccsd:                 9239017
 Max. memory used in cckext:               8645723 ( 9 integral passes)



 **********************************************************************************************************************************
 DATASETS  * FILE   NREC   LENGTH (MB)   RECORD NAMES
              1      20      437.31       500      610      700      900      950      970     1000      129      960     1100   
                                          VAR    BASINP    GEOM    SYMINP    ZMAT    AOBASIS   BASIS     P2S    ABASIS      S 
                                         1400     1410     1200     1210     1080     1600     1650     1300     1700     1380   
                                           T        V       H0       H01     AOSYM     SMH    MOLCAS    ERIS     OPER     JKOP   

              2       4        1.00       700     1000      520     2100   
                                         GEOM     BASIS   MCVARS     RHF  

 PROGRAMS   *        TOTAL   CCSD(T)    HF-SCF       INT
 CPU TIMES  *       181.31    174.12      3.49      3.60
 REAL TIME  *       217.14 SEC
 DISK USED  *       949.09 MB
 **********************************************************************************************************************************

 Dump information in style XML to xml output                                                                      

 Orbitals will not be exported.

 **********************************************************************************************************************************

 CCSD(T)/cc-pVDZ energy=   -271.870081043266

         CCSD(T)          HF-SCF
   -271.87008104   -270.78252458
 **********************************************************************************************************************************
 Molpro calculation terminated
