
 Working directory              : /var/folders/2v/xbgp75_9785319ghcgb4zr4r0000gp/T//molpro.4z2lbQHPry/
 Global scratch directory       : /var/folders/2v/xbgp75_9785319ghcgb4zr4r0000gp/T//molpro.4z2lbQHPry/
 Wavefunction directory         : /Users/sacpjk/wfu/
 Main file repository           : /var/folders/2v/xbgp75_9785319ghcgb4zr4r0000gp/T//molpro.4z2lbQHPry/

 id        : peterk

 Nodes                        nprocs
 Cardiff-University-G34YLXT77Y    1
 GA implementation: MPI file
 GA implementation (serial work in mppx): MPI file

 Using customized tuning parameters: mindgm=1; mindgv=20; mindgc=4; mindgr=1; noblas=0; minvec=7
 default implementation of scratch files=df  


 Variables initialized (1037), CPU time= 0.00 sec
 
                                                                                 !memory,1.5,g
 gthresh,energy=1e-10
 basis,cc-pVDZ
 set,cc_norm_max=1e99
 r=[1,1.2,1.4,1.6,1.8,2, 2.1, 2.2] angstrom
 geometry={N;N,N,r(i)}
 do i=1,#r
 rhf
 erhf(i)=energy
 mp2
 ermp2(i)=energy
 mp3
 ermp3(i)=energy
 mp4
 ermp4(i)=energy
 {ccsd(t),maxit=500,shiftp=.4}
 eccsd(i)=energc,eccsdt(i)=energy
 papt;mp2
 erpapt2(i)=energy
 papt;mp3
 erpapt3(i)=energy
 papt;mp4
 erpapt4(i)=energy
 {ccsd(t),maxit=500,shiftp=.4}
 eccsdp(i)=energc,eccsdpt(i)=energy
 fci
 efci(i)=energy
 enddo
 put,xml
 Commands initialized (841), CPU time= 0.00 sec, 716 directives.
 Default parameters read. Elapsed time= 0.06 sec

 Checking input...
 Passed
1


                                         ***  PROGRAM SYSTEM MOLPRO  ***
                                       Copyright, TTI GmbH Stuttgart, 2015
                                    Version 2023.1 linked Fri Jul  7 12:12:39 2023


 **********************************************************************************************************************************
 LABEL *                                                                                                                                                                 
  64 bit serial version                                                                  DATE: 09-Jul-23          TIME: 21:29:10  
 **********************************************************************************************************************************

 SHA1:             0fe2fddcc441eb00bb4c7ecb49b93e22d4ddc339
 **********************************************************************************************************************************

 Memory per process:      1573 MW
 Total memory per node:   2097 MW
 Total GA space:           524 MW

 GA preallocation disabled
 GA check enabled

 Variable memory set to 1572.9 MW


 THRESHOLDS:

 ZERO    =  1.00D-12  ONEINT  =  1.00D-12  TWOINT  =  1.00D-11  PREFAC  =  1.00D-14  XXXXXX  =  1.00D-09  EORDER  =  1.00D-04
 ENERGY  =  1.00D-10  ETEST   =  0.00D+00  EDENS   =  0.00D+00  THRDEDEF=  1.00D-06  GRADIENT=  1.00D-05  STEP    =  1.00D-03
 ORBITAL =  1.00D-05  CIVEC   =  1.00D-05  COEFF   =  1.00D-04  PRINTCI =  5.00D-02  PUNCHCI =  9.90D+01  OPTGRAD =  3.00D-04
 OPTENERG=  1.00D-06  OPTSTEP =  3.00D-04  THRGRAD =  1.00D-10  COMPRESS=  1.00D-11  VARMIN  =  1.00D-07  VARMAX  =  1.00D-03
 THRDOUB =  0.00D+00  THRDIV  =  1.00D-05  THRRED  =  1.00D-07  THRPSP  =  1.00D+00  THRDC   =  1.00D-10  THRCS   =  1.00D-10
 THRNRM  =  1.00D-08  THREQ   =  0.00D+00  THRDE   =  1.00D+00  THRREF  =  1.00D-05  SPARFAC =  1.00D+00  THRDLP  =  1.00D-07
 THRDIA  =  1.00D-10  THRDLS  =  1.00D-07  THRGPS  =  0.00D+00  THRKEX  =  0.00D+00  THRDIS  =  2.00D-01  THRVAR  =  1.00D-10
 THRLOC  =  1.00D-06  THRGAP  =  1.00D-06  THRLOCT = -1.00D+00  THRGAPT = -1.00D+00  THRORB  =  1.00D-06  THRMLTP =  0.00D+00
 THRCPQCI=  1.00D-10  KEXTA   =  0.00D+00  THRCOARS=  0.00D+00  SYMTOL  =  1.00D-06  GRADTOL =  1.00D-06  THROVL  =  1.00D-08
 THRORTH =  1.00D-08  THRDLOVL= -1.00D+00  GRID    =  1.00D-06  GRIDMAX =  1.00D-03  DTMAX   =  0.00D+00  THROCCDE=  1.00D-01
 THROCCDE=  1.00D-01  THRPRINT=  2.50D-01

 SETTING BASIS          =    CC-PVDZ
 SETTING CC_NORM_MAX    =      1.0000000D+99                                  
 SETTING R(1)           =         1.00000000  ANGSTROM                        
 SETTING R(2)           =         1.20000000  ANGSTROM                        
 SETTING R(3)           =         1.40000000  ANGSTROM                        
 SETTING R(4)           =         1.60000000  ANGSTROM                        
 SETTING R(5)           =         1.80000000  ANGSTROM                        
 SETTING R(6)           =         2.00000000  ANGSTROM                        
 SETTING R(7)           =         2.10000000  ANGSTROM                        
 SETTING R(8)           =         2.20000000  ANGSTROM                        

 DO I                   =         1.00000000   


 Recomputing integrals since basis changed


 Using spherical harmonics

 Library entry N      S cc-pVDZ              selected for orbital group  1
 Library entry N      P cc-pVDZ              selected for orbital group  1
 Library entry N      D cc-pVDZ              selected for orbital group  1


 PROGRAM * SEWARD (Integral evaluation for generally contracted gaussian basis sets)     Author: Roland Lindh, 1990

 Geometry written to block  1 of record 700

 Orientation using atomic masses  
 Molecule type: Linear
 Symmetry elements: X,Y,Z
 Rotational constants:      72.1624647     72.1624647      0.0000000 GHz  (calculated with average atomic masses)

 Point group  D2h 



 ATOMIC COORDINATES

 NR  ATOM    CHARGE       X              Y              Z

   1  N       7.00    0.000000000    0.000000000   -0.944863062
   2  N       7.00    0.000000000    0.000000000    0.944863062

 Bond lengths in Bohr (Angstrom)

 1-2  1.889726125
     ( 1.000000000)

 NUCLEAR CHARGE:                   14
 NUMBER OF PRIMITIVE AOS:          54
 NUMBER OF SYMMETRY AOS:           52
 NUMBER OF CONTRACTIONS:           28   (    7Ag  +    3B3u +    3B2u +    1B1g +    7B1u +    3B2g +    3B3g +    1Au  )
 NUMBER OF INNER CORE ORBITALS:     0   (    0Ag  +    0B3u +    0B2u +    0B1g +    0B1u +    0B2g +    0B3g +    0Au  )
 NUMBER OF OUTER CORE ORBITALS:     2   (    1Ag  +    0B3u +    0B2u +    0B1g +    1B1u +    0B2g +    0B3g +    0Au  )
 NUMBER OF VALENCE ORBITALS:        8   (    2Ag  +    1B3u +    1B2u +    0B1g +    2B1u +    1B2g +    1B3g +    0Au  )


 NUCLEAR REPULSION ENERGY   25.92968333

 EXTRA SYMMETRY OF AOS IN SYMMETRY 1:   1 1 1 1 1 1 2
 EXTRA SYMMETRY OF AOS IN SYMMETRY 5:   1 1 1 1 1 1 2

 Eigenvalues of metric

         1 0.333E-01 0.142E+00 0.864E+00 0.112E+01 0.123E+01 0.127E+01 0.378E+01
         2 0.202E+00 0.135E+01 0.297E+01
         3 0.202E+00 0.135E+01 0.297E+01
         4 0.123E+01
         5 0.353E-02 0.387E-01 0.120E+00 0.767E+00 0.919E+00 0.116E+01 0.255E+01
         6 0.119E+00 0.241E+00 0.112E+01
         7 0.119E+00 0.241E+00 0.112E+01
         8 0.767E+00


 Contracted 2-electron integrals neglected if value below      1.0D-14
 AO integral compression algorithm  1   Integral accuracy      1.0D-14

     0.262 MB (compressed) written to integral file (100.0%)


 NUMBER OF SORTED TWO-ELECTRON INTEGRALS:      13015.     BUFFER LENGTH:  32768
 NUMBER OF SEGMENTS:   1  SEGMENT LENGTH:      13015      RECORD LENGTH: 524288

 Memory used in sort:       0.57 MW

 SORT1 READ       27440. AND WROTE       11779. INTEGRALS IN      1 RECORDS. CPU TIME:     0.00 SEC, REAL TIME:     0.00 SEC
 SORT2 READ       11779. AND WROTE       13015. INTEGRALS IN      1 RECORDS. CPU TIME:     0.00 SEC, REAL TIME:     0.00 SEC

 FILE SIZES:   FILE 1:    30.3 MBYTE,  FILE 4:     4.3 MBYTE,   TOTAL:     34.5 MBYTE

 OPERATOR DM      FOR CENTER  0  COORDINATES:    0.000000    0.000000    0.000000


 **********************************************************************************************************************************
 DATASETS  * FILE   NREC   LENGTH (MB)   RECORD NAMES
              1      19       28.71       500      610      700      900      950      970     1000      129      960     1100   
                                          VAR    BASINP    GEOM    SYMINP    ZMAT    AOBASIS   BASIS     P2S    ABASIS      S 
                                         1400     1410     1200     1210     1080     1600     1650     1300     1700   
                                           T        V       H0       H01     AOSYM     SMH    MOLCAS    ERIS     OPER   

 PROGRAMS   *        TOTAL       INT
 CPU TIMES  *         0.22      0.11
 REAL TIME  *         0.73 SEC
 DISK USED  *        33.25 MB
 **********************************************************************************************************************************


 Program * Restricted Hartree-Fock

 Orbital guess generated from atomic densities. Full valence occupancy:    3   1   1   0   3   1   1   0


 Initial occupancy:   3   1   1   0   2   0   0   0

 NELEC=   14   SYM=1   MS2= 0   THRE=1.0D-12   THRD=1.0D-06   THRG=1.0D-06  HFMA2=F  DIIS_START=2   DIIS_MAX=10   DIIS_INCORE=F

 Level shifts:    0.00 (CLOSED)    0.00 (OPEN)    0.30 (GAP_MIN)

 ITER           ETOT              DE          GRAD        DDIFF     DIIS  NEXP   TIME(IT)  TIME(TOT)  DIAG
   1     -108.92208077    -108.92208077     0.00D+00     0.57D+00     0     0       0.00      0.00    start
   2     -108.92944909      -0.00736832     0.18D-01     0.27D-01     1     0       0.00      0.00    diag
   3     -108.92981402      -0.00036493     0.37D-02     0.79D-02     2     0       0.00      0.00    diag
   4     -108.92983805      -0.00002402     0.86D-03     0.19D-02     3     0       0.00      0.00    diag
   5     -108.92983838      -0.00000033     0.94D-04     0.22D-03     4     0       0.00      0.00    diag
   6     -108.92983839      -0.00000001     0.14D-04     0.42D-04     5     0       0.00      0.00    diag
   7     -108.92983839      -0.00000000     0.18D-05     0.84D-05     6     0       0.00      0.00    diag
   8     -108.92983839      -0.00000000     0.14D-06     0.62D-06     7     0       0.00      0.00    fixocc
   9     -108.92983839       0.00000000     0.58D-08     0.26D-07     0     0       0.00      0.00    diag

 Final occupancy:   3   1   1   0   2   0   0   0

 !RHF STATE 1.1 Energy               -108.929838385637
  RHF One-electron energy            -198.656110060398
  RHF Two-electron energy              63.796588340515
  RHF Kinetic energy                  109.514807071934
  RHF Nuclear energy                   25.929683334247
  RHF Virial quotient                  -0.994658542512

 !RHF STATE 1.1 Dipole moment           0.00000000     0.00000000    -0.00000000
 Dipole moment /Debye                   0.00000000     0.00000000    -0.00000000

 Orbital energies:

           1.1          2.1          3.1          4.1          5.1
    -15.655877    -1.544114    -0.633578     0.785711     1.006155

           1.2          2.2          3.2
     -0.653722     0.840783     1.993995

           1.3          2.3          3.3
     -0.653722     0.840783     1.993995

           1.4
      1.727946

           1.5          2.5          3.5          4.5
    -15.649384    -0.741070     0.616702     1.298242

           1.6          2.6
      0.230666     1.077426

           1.7          2.7
      0.230666     1.077426

           1.8
      2.370757


 HOMO      3.1    -0.633578 =     -17.2405eV
 LUMO      1.6     0.230666 =       6.2767eV
 LUMO-HOMO         0.864244 =      23.5173eV

 Orbitals saved in record  2100.2


 **********************************************************************************************************************************
 DATASETS  * FILE   NREC   LENGTH (MB)   RECORD NAMES
              1      19       28.71       500      610      700      900      950      970     1000      129      960     1100   
                                          VAR    BASINP    GEOM    SYMINP    ZMAT    AOBASIS   BASIS     P2S    ABASIS      S 
                                         1400     1410     1200     1210     1080     1600     1650     1300     1700   
                                           T        V       H0       H01     AOSYM     SMH    MOLCAS    ERIS     OPER   

              2       4        0.38       700     1000      520     2100   
                                         GEOM     BASIS   MCVARS     RHF  

 PROGRAMS   *        TOTAL   RHF-SCF       INT
 CPU TIMES  *         0.22      0.00      0.11
 REAL TIME  *         0.77 SEC
 DISK USED  *        33.25 MB
 **********************************************************************************************************************************
 SETTING ERHF(1)        =      -108.92983839  AU                              


 PROGRAM * MP2 (Closed-shell)     Authors: C. Hampel, H.-J. Werner, 1991, M. Deegan, P.J. Knowles, 1992


 Convergence thresholds:  THRVAR = 1.00D-08  THRDEN = 1.00D-10

 Number of core orbitals:           2 (   1   0   0   0   1   0   0   0 )
 Number of closed-shell orbitals:   5 (   2   1   1   0   1   0   0   0 )
 Number of external orbitals:      21 (   4   2   2   1   5   3   3   1 )

 Molecular orbitals read from record     2100.2  Type=RHF/CANONICAL  

 Number of N-1 electron functions:               5
 Number of N-2 electron functions:              15
 Number of singly external CSFs:                17
 Number of doubly external CSFs:               802
 Total number of CSFs:                         820

 Length of J-op  integral file:               0.00 MB
 Length of K-op  integral file:               0.07 MB

 Integral transformation finished. Total CPU:   0.00 sec, npass=  1  Memory used:   0.07 MW

 Memory needed for MP2:                      0.00 MW

 SCS-MP2 correlation energy:           -0.271035137146   (PS=  1.200000  PT=  0.333333)
 SCS-MP2 total energy:               -109.200873522783


  Reference energy                   -108.929838385637
  MP2 singlet pair energy              -0.168636476857
  MP2 triplet pair energy              -0.110364693617
  MP2 correlation energy               -0.279001170475

 !MP2 total energy                   -109.208839556111


 **********************************************************************************************************************************
 DATASETS  * FILE   NREC   LENGTH (MB)   RECORD NAMES
              1      20       28.74       500      610      700      900      950      970     1000      129      960     1100   
                                          VAR    BASINP    GEOM    SYMINP    ZMAT    AOBASIS   BASIS     P2S    ABASIS      S 
                                         1400     1410     1200     1210     1080     1600     1650     1300     1700     1380   
                                           T        V       H0       H01     AOSYM     SMH    MOLCAS    ERIS     OPER     JKOP   

              2       4        0.38       700     1000      520     2100   
                                         GEOM     BASIS   MCVARS     RHF  

 PROGRAMS   *        TOTAL       MP2   RHF-SCF       INT
 CPU TIMES  *         0.24      0.02      0.00      0.11
 REAL TIME  *         1.06 SEC
 DISK USED  *        33.25 MB
 **********************************************************************************************************************************
 SETTING ERMP2(1)       =      -109.20883956  AU                              


 PROGRAM * MP3 (Closed-shell)     Authors: C. Hampel, H.-J. Werner, 1991, M. Deegan, P.J. Knowles, 1992


 Convergence thresholds:  THRVAR = 1.00D-08  THRDEN = 1.00D-10

 Number of core orbitals:           2 (   1   0   0   0   1   0   0   0 )
 Number of closed-shell orbitals:   5 (   2   1   1   0   1   0   0   0 )
 Number of external orbitals:      21 (   4   2   2   1   5   3   3   1 )

 Molecular orbitals read from record     2100.2  Type=RHF/CANONICAL  

 Number of N-1 electron functions:               5
 Number of N-2 electron functions:              15
 Number of singly external CSFs:                17
 Number of doubly external CSFs:               802
 Total number of CSFs:                         820

 Length of J-op  integral file:               0.00 MB
 Length of K-op  integral file:               0.07 MB

 Coulomb and exchange operators available. No transformation done.

 Reference energy:                   -108.92983839

                        CORR.ENERGY   TOTAL ENERGY   ENERGY CHANGE
 MP2:                   -0.27900117  -109.20883956    -0.27900117

 SCS-MP2 correlation energy:           -0.27103514   (PS=  1.200000  PT=  0.333333)
 SCS-MP2 total energy:               -109.20087352

 MP3(D):                -0.28366222  -109.21350061    -0.00466105



 RESULTS
 =======

  Reference energy                   -108.929838385637
  MP3 singlet pair energy              -0.184681511728
  MP3 triplet pair energy              -0.098980708944
  MP3 correlation energy               -0.283662220672

 !MP3 total energy                   -109.213500606308

 Timing summary (sec):

 STEP                 CPU(USER)    SYS     CPU(TOT)    WALL
 CCSD iterations         0.34      0.01      0.35      0.06

 Program statistics:

 Available memory in ccsd:              1572863897
 Min. memory needed in ccsd:                  4487
 Max. memory used in ccsd:                    4826
 Max. memory used in cckext:                 37650 ( 1 integral passes)



 **********************************************************************************************************************************
 DATASETS  * FILE   NREC   LENGTH (MB)   RECORD NAMES
              1      20       28.74       500      610      700      900      950      970     1000      129      960     1100   
                                          VAR    BASINP    GEOM    SYMINP    ZMAT    AOBASIS   BASIS     P2S    ABASIS      S 
                                         1400     1410     1200     1210     1080     1600     1650     1300     1700     1380   
                                           T        V       H0       H01     AOSYM     SMH    MOLCAS    ERIS     OPER     JKOP   

              2       4        0.38       700     1000      520     2100   
                                         GEOM     BASIS   MCVARS     RHF  

 PROGRAMS   *        TOTAL       MP3       MP2   RHF-SCF       INT
 CPU TIMES  *         0.27      0.02      0.02      0.00      0.11
 REAL TIME  *         1.24 SEC
 DISK USED  *        33.25 MB
 **********************************************************************************************************************************
 SETTING ERMP3(1)       =      -109.21350061  AU                              


 PROGRAM * MP4 (Closed-shell)     Authors: C. Hampel, H.-J. Werner, 1991, M. Deegan, P.J. Knowles, 1992


 Convergence thresholds:  THRVAR = 1.00D-08  THRDEN = 1.00D-10

 MP4(T)     terms to be evaluated (factor= 0.000)


 Number of core orbitals:           2 (   1   0   0   0   1   0   0   0 )
 Number of closed-shell orbitals:   5 (   2   1   1   0   1   0   0   0 )
 Number of external orbitals:      21 (   4   2   2   1   5   3   3   1 )

 Molecular orbitals read from record     2100.2  Type=RHF/CANONICAL  

 Number of N-1 electron functions:               5
 Number of N-2 electron functions:              15
 Number of singly external CSFs:                17
 Number of doubly external CSFs:               802
 Total number of CSFs:                         820

 Length of J-op  integral file:               0.00 MB
 Length of K-op  integral file:               0.07 MB

 Memory could be reduced to 0.06 Mwords without degradation in triples

 Integral transformation finished. Total CPU:   0.00 sec, npass=  1  Memory used:   0.07 MW

 Reference energy:                   -108.92983839

                        CORR.ENERGY   TOTAL ENERGY   ENERGY CHANGE
 MP2:                   -0.27900117  -109.20883956    -0.27900117

 SCS-MP2 correlation energy:           -0.27103514   (PS=  1.200000  PT=  0.333333)
 SCS-MP2 total energy:               -109.20087352

 MP3(D):                -0.28366222  -109.21350061    -0.00466105
 MP4(DQ):               -0.28582818  -109.21566657    -0.00216596
 MP4(SDQ):              -0.28829162  -109.21813001    -0.00246344

 Norm of t1 vector:      0.03498004      S-energy:    -0.00246344      T1 diagnostic:  0.00782177


 Total CPU time for triples:      0.00 sec


 RESULTS
 =======

  Reference energy                   -108.929838385637
  MP4(SDQ) singlet pair energy         -0.184930703943
  MP4(SDQ) triplet pair energy         -0.100897477593
  MP4(SDQ) correlation energy          -0.288291621789

  Triples contribution                 -0.009776600514
  Total correlation energy             -0.298068222303

  MP4(SDQ) total energy              -109.218130007426
 !MP4(SDTQ) total energy             -109.227906607940

 Timing summary (sec):

 STEP                 CPU(USER)    SYS     CPU(TOT)    WALL
 CCSD iterations         0.37      0.00      0.37      0.15

 Program statistics:

 Available memory in ccsd:              1572863897
 Min. memory needed in ccsd:                  4487
 Max. memory used in ccsd:                    4826
 Max. memory used in cckext:                 37650 ( 1 integral passes)



 **********************************************************************************************************************************
 DATASETS  * FILE   NREC   LENGTH (MB)   RECORD NAMES
              1      20       28.76       500      610      700      900      950      970     1000      129      960     1100   
                                          VAR    BASINP    GEOM    SYMINP    ZMAT    AOBASIS   BASIS     P2S    ABASIS      S 
                                         1400     1410     1200     1210     1080     1600     1650     1300     1700     1380   
                                           T        V       H0       H01     AOSYM     SMH    MOLCAS    ERIS     OPER     JKOP   

              2       4        0.38       700     1000      520     2100   
                                         GEOM     BASIS   MCVARS     RHF  

 PROGRAMS   *        TOTAL       MP4       MP3       MP2   RHF-SCF       INT
 CPU TIMES  *         0.30      0.03      0.02      0.02      0.00      0.11
 REAL TIME  *         1.60 SEC
 DISK USED  *        33.25 MB
 **********************************************************************************************************************************
 SETTING ERMP4(1)       =      -109.22790661  AU                              


 PROGRAM * CCSD (Closed-shell coupled cluster)     Authors: C. Hampel, H.-J. Werner, 1991, M. Deegan, P.J. Knowles, 1992


 Convergence thresholds:  THRVAR = 1.00D-08  THRDEN = 1.00D-10

 CCSD(T)     terms to be evaluated (factor= 1.000)


 Number of core orbitals:           2 (   1   0   0   0   1   0   0   0 )
 Number of closed-shell orbitals:   5 (   2   1   1   0   1   0   0   0 )
 Number of external orbitals:      21 (   4   2   2   1   5   3   3   1 )

 Molecular orbitals read from record     2100.2  Type=RHF/CANONICAL  

 Number of N-1 electron functions:               5
 Number of N-2 electron functions:              15
 Number of singly external CSFs:                17
 Number of doubly external CSFs:               802
 Total number of CSFs:                         820

 Length of J-op  integral file:               0.00 MB
 Length of K-op  integral file:               0.07 MB
 Length of 3-ext integral record:             0.00 MB

 Memory could be reduced to 0.06 Mwords without degradation in triples

 Coulomb and exchange operators available. No transformation done.

 Reference energy:                   -108.92983839

 MP2 singlet pair energy:              -0.16863648
 MP2 triplet pair energy:              -0.11036469
 MP2 correlation energy:               -0.27900117
 MP2 total energy:                   -109.20883956

 SCS-MP2 correlation energy:           -0.27103514   (PS=  1.200000  PT=  0.333333)
 SCS-MP2 total energy:               -109.20087352

 ITER.      SQ.NORM     CORR.ENERGY   TOTAL ENERGY   ENERGY CHANGE        DEN1      VAR(S)    VAR(P)  DIIS     TIME  TIME/IT
   1      1.08843933    -0.28646246  -109.21630084    -0.00746129     0.00007657  0.10D-02  0.15D-02  1  1     0.40     0.00
   2      1.09454618    -0.28773518  -109.21757356    -0.00127272    -0.00674441  0.10D-04  0.18D-03  2  2     0.40     0.01
   3      1.09720510    -0.28792050  -109.21775889    -0.00018533    -0.00192984  0.24D-05  0.13D-04  3  3     0.40     0.00
   4      1.09794655    -0.28794804  -109.21778643    -0.00002754    -0.00032105  0.11D-06  0.84D-06  4  4     0.40     0.01
   5      1.09803402    -0.28794878  -109.21778717    -0.00000074    -0.00002498  0.66D-08  0.40D-07  5  5     0.40     0.01
   6      1.09804202    -0.28795012  -109.21778851    -0.00000134    -0.00000520  0.29D-09  0.18D-08  6  6     0.40     0.01
   7      1.09804278    -0.28795005  -109.21778844     0.00000007     0.00000028  0.12D-10  0.71D-10  6  1     0.40     0.01
   8      1.09804325    -0.28795004  -109.21778842     0.00000002    -0.00000023  0.15D-11  0.33D-11  6  2     0.40     0.01
   9      1.09804322    -0.28795003  -109.21778842     0.00000000     0.00000001  0.40D-13  0.17D-12  6  3     0.41     0.01
  10      1.09804323    -0.28795003  -109.21778842    -0.00000000    -0.00000000  0.17D-14  0.13D-13  6  4     0.41     0.01
  11      1.09804323    -0.28795003  -109.21778842     0.00000000    -0.00000000  0.47D-15  0.10D-14  6  5     0.41     0.01
  12      1.09804324    -0.28795003  -109.21778842     0.00000000    -0.00000000  0.12D-17  0.67D-16  6  6     0.41     0.01
  13      1.09804324    -0.28795003  -109.21778842     0.00000000    -0.00000000  0.61D-18  0.82D-17  6  1     0.41     0.01
  14      1.09804324    -0.28795003  -109.21778842    -0.00000000     0.00000000  0.24D-18  0.72D-18  6  2     0.41     0.01

 Norm of t1 vector:      0.04028612      S-energy:    -0.00000000      T1 diagnostic:  0.00900825
                                                                       D1 diagnostic:  0.01878481
                                                                       D2 diagnostic:  0.15195465 (internal)

 Doubles amplitudes (print threshold =  0.500E-01):

         I         J         SYM. A    SYM. B    A         B      T(IJ, AB)

         3         3         6         6         1         1     -0.08413341
         4         4         7         7         1         1     -0.08413341
         4         3         7         6         1         1     -0.05435104

 Total CPU time for triples:      0.00 sec


 RESULTS
 =======

  Reference energy                   -108.929838385637
  CCSD singlet pair energy             -0.193023508488
  CCSD triplet pair energy             -0.094926523341
  CCSD correlation energy              -0.287950031846

  Triples (T) contribution             -0.009145879703
  Total correlation energy             -0.297095911549

  CCSD total energy                  -109.217788417483
  CCSD[T] energy                     -109.227288115006
  CCSD-T energy                      -109.226755319661
 !CCSD(T) total energy               -109.226934297186

 Timing summary (sec):

 STEP                 CPU(USER)    SYS     CPU(TOT)    WALL
 Transformation          0.01      0.00      0.01      0.00
 CCSD iterations         0.41      0.01      0.42      0.17

 Program statistics:

 Available memory in ccsd:              1572863897
 Min. memory needed in ccsd:                  4487
 Max. memory used in ccsd:                    4826
 Max. memory used in cckext:                 37677 (14 integral passes)



 **********************************************************************************************************************************
 DATASETS  * FILE   NREC   LENGTH (MB)   RECORD NAMES
              1      20       28.76       500      610      700      900      950      970     1000      129      960     1100   
                                          VAR    BASINP    GEOM    SYMINP    ZMAT    AOBASIS   BASIS     P2S    ABASIS      S 
                                         1400     1410     1200     1210     1080     1600     1650     1300     1700     1380   
                                           T        V       H0       H01     AOSYM     SMH    MOLCAS    ERIS     OPER     JKOP   

              2       4        0.38       700     1000      520     2100   
                                         GEOM     BASIS   MCVARS     RHF  

 PROGRAMS   *        TOTAL   CCSD(T)       MP4       MP3       MP2   RHF-SCF       INT
 CPU TIMES  *         0.34      0.04      0.03      0.02      0.02      0.00      0.11
 REAL TIME  *         1.82 SEC
 DISK USED  *        33.25 MB
 **********************************************************************************************************************************
 SETTING ECCSD(1)       =      -109.21778842  AU                              
 SETTING ECCSDT(1)      =      -109.22693430  AU                              


 PROGRAM * PAPT (Closed-shell)     Authors: C. Hampel, H.-J. Werner, 1991, P.J. Knowles, 2021


 Convergence thresholds:  THRVAR = 1.00D-08  THRDEN = 1.00D-10

 Number of core orbitals:           2 (   1   0   0   0   1   0   0   0 )
 Number of closed-shell orbitals:   5 (   2   1   1   0   1   0   0   0 )
 Number of external orbitals:      21 (   4   2   2   1   5   3   3   1 )

 Molecular orbitals read from record     2100.2  Type=RHF/CANONICAL  

 Number of N-1 electron functions:               5
 Number of N-2 electron functions:              15
 Number of singly external CSFs:                17
 Number of doubly external CSFs:               802
 Total number of CSFs:                         820

 Length of J-op  integral file:               0.00 MB
 Length of K-op  integral file:               0.07 MB

 Coulomb and exchange operators available. No transformation done.

 3-external integrals restored

 Reference energy:                   -108.92983839

                        CORR.ENERGY   TOTAL ENERGY   ENERGY CHANGE
 MP2:                   -0.27900117  -109.20883956    -0.27900117

 SCS-MP2 correlation energy:           -0.27103514   (PS=  1.200000  PT=  0.333333)
 SCS-MP2 total energy:               -109.20087352
 Iteration:   1     0.2844D+00
 Iteration:   2     0.5065D+00
 Iteration:   3     0.1168D+00
 Iteration:   4     0.6356D-01
 Iteration:   5     0.3063D-01
 Iteration:   6     0.2705D-01
 Iteration:   7     0.1426D-01
 Iteration:   8     0.3939D-02
 Iteration:   9     0.1873D-01
 Iteration:  10     0.1558D-02
 Iteration:  11     0.1678D-03
 Iteration:  12     0.1617D-04
 PAPT operator written to  7000.1
 PAPT orbitals and eigenvalues written to  7000.2

 MP3(D):                -0.28366222  -109.21350061    -0.00466105



 RESULTS
 =======

  Reference energy                   -108.929838385637
  MP3 singlet pair energy              -0.184681511728
  MP3 triplet pair energy              -0.098980708944
  MP3 correlation energy               -0.283662220672

 !MP3 total energy                   -109.213500606308

 Timing summary (sec):

 STEP                 CPU(USER)    SYS     CPU(TOT)    WALL
 CCSD iterations         0.45      0.01      0.46      0.06

 Program statistics:

 Available memory in ccsd:              1572863897
 Min. memory needed in ccsd:                  4487
 Max. memory used in ccsd:                    4826
 Max. memory used in cckext:                 37650 ( 1 integral passes)



 **********************************************************************************************************************************
 DATASETS  * FILE   NREC   LENGTH (MB)   RECORD NAMES
              1      21       28.76       500      610      700      900      950      970     1000      129      960     1100   
                                          VAR    BASINP    GEOM    SYMINP    ZMAT    AOBASIS   BASIS     P2S    ABASIS      S 
                                         1400     1410     1200     1210     1080     1600     1650     1300     1700     1380   
                                           T        V       H0       H01     AOSYM     SMH    MOLCAS    ERIS     OPER     JKOP   
                                         7000   
                                        PAPT AO    

              2       5        0.48       700     1000      520     2100     7000   
                                         GEOM     BASIS   MCVARS     RHF     PAPT   

 PROGRAMS   *        TOTAL      PAPT   CCSD(T)       MP4       MP3       MP2   RHF-SCF       INT
 CPU TIMES  *         0.38      0.04      0.04      0.03      0.02      0.02      0.00      0.11
 REAL TIME  *         2.01 SEC
 DISK USED  *        33.25 MB
 **********************************************************************************************************************************


 PROGRAM * MP2 (Closed-shell)     Authors: C. Hampel, H.-J. Werner, 1991, M. Deegan, P.J. Knowles, 1992


 Convergence thresholds:  THRVAR = 1.00D-08  THRDEN = 1.00D-10

 Number of core orbitals:           2 (   1   0   0   0   1   0   0   0 )
 Number of closed-shell orbitals:   5 (   2   1   1   0   1   0   0   0 )
 Number of external orbitals:      21 (   4   2   2   1   5   3   3   1 )

 Molecular orbitals read from record     7000.2  Type=PAPT/CANONICAL (state 1.1)

 Number of N-1 electron functions:               5
 Number of N-2 electron functions:              15
 Number of singly external CSFs:                17
 Number of doubly external CSFs:               802
 Total number of CSFs:                         820

 Length of J-op  integral file:               0.00 MB
 Length of K-op  integral file:               0.07 MB

 Integral transformation finished. Total CPU:   0.00 sec, npass=  1  Memory used:   0.07 MW
 Orbital energies read from record       7000.2  Type=PAPT/CANONICAL (state 1.1)

 Memory needed for MP2:                      0.00 MW

 SCS-MP2 correlation energy:           -0.280876953013   (PS=  1.200000  PT=  0.333333)
 SCS-MP2 total energy:               -109.210715338650


  Reference energy                   -108.929838385637
  MP2 singlet pair energy              -0.176989864476
  MP2 triplet pair energy              -0.110071792997
  MP2 correlation energy               -0.287061657473

 !MP2 total energy                   -109.216900043109


 **********************************************************************************************************************************
 DATASETS  * FILE   NREC   LENGTH (MB)   RECORD NAMES
              1      21       28.76       500      610      700      900      950      970     1000      129      960     1100   
                                          VAR    BASINP    GEOM    SYMINP    ZMAT    AOBASIS   BASIS     P2S    ABASIS      S 
                                         1400     1410     1200     1210     1080     1600     1650     1300     1700     1380   
                                           T        V       H0       H01     AOSYM     SMH    MOLCAS    ERIS     OPER     JKOP   
                                         7000   
                                        PAPT AO    

              2       5        0.48       700     1000      520     2100     7000   
                                         GEOM     BASIS   MCVARS     RHF     PAPT   

 PROGRAMS   *        TOTAL       MP2      PAPT   CCSD(T)       MP4       MP3       MP2   RHF-SCF       INT
 CPU TIMES  *         0.40      0.02      0.04      0.04      0.03      0.02      0.02      0.00      0.11
 REAL TIME  *         2.43 SEC
 DISK USED  *        33.25 MB
 **********************************************************************************************************************************
 SETTING ERPAPT2(1)     =      -109.21690004  AU                              


 PROGRAM * PAPT (Closed-shell)     Authors: C. Hampel, H.-J. Werner, 1991, P.J. Knowles, 2021


 Convergence thresholds:  THRVAR = 1.00D-08  THRDEN = 1.00D-10

 Number of core orbitals:           2 (   1   0   0   0   1   0   0   0 )
 Number of closed-shell orbitals:   5 (   2   1   1   0   1   0   0   0 )
 Number of external orbitals:      21 (   4   2   2   1   5   3   3   1 )

 Molecular orbitals read from record     7000.2  Type=PAPT/CANONICAL (state 1.1)

 Number of N-1 electron functions:               5
 Number of N-2 electron functions:              15
 Number of singly external CSFs:                17
 Number of doubly external CSFs:               802
 Total number of CSFs:                         820

 Length of J-op  integral file:               0.00 MB
 Length of K-op  integral file:               0.07 MB

 Integral transformation finished. Total CPU:   0.00 sec, npass=  1  Memory used:   0.07 MW
 Orbital energies read from record       7000.2  Type=PAPT/CANONICAL (state 1.1)

 Reference energy:                   -108.92983839

                        CORR.ENERGY   TOTAL ENERGY   ENERGY CHANGE
 MP2:                   -0.28706166  -109.21690004    -0.28706166

 SCS-MP2 correlation energy:           -0.28087695   (PS=  1.200000  PT=  0.333333)
 SCS-MP2 total energy:               -109.21071534
 Iteration:   1     0.2917D+00
 Iteration:   2     0.4304D+00
 Iteration:   3     0.1109D+00
 Iteration:   4     0.9166D-01
 Iteration:   5     0.2478D-01
 Iteration:   6     0.2971D-01
 Iteration:   7     0.7974D-02
 Iteration:   8     0.5723D-02
 Iteration:   9     0.3900D-02
 Iteration:  10     0.7985D-03
 Iteration:  11     0.9983D-04
 PAPT operator written to  7000.1
 PAPT orbitals and eigenvalues written to  7000.2

 MP3(D):                -0.28678195  -109.21662033     0.00027971



 RESULTS
 =======

  Reference energy                   -108.929838385637
  MP3 singlet pair energy              -0.186936164794
  MP3 triplet pair energy              -0.099845781370
  MP3 correlation energy               -0.286781946163

 !MP3 total energy                   -109.216620331800

 Timing summary (sec):

 STEP                 CPU(USER)    SYS     CPU(TOT)    WALL
 CCSD iterations         0.51      0.00      0.51      0.09

 Program statistics:

 Available memory in ccsd:              1572863897
 Min. memory needed in ccsd:                  4487
 Max. memory used in ccsd:                    4826
 Max. memory used in cckext:                 37650 ( 1 integral passes)



 **********************************************************************************************************************************
 DATASETS  * FILE   NREC   LENGTH (MB)   RECORD NAMES
              1      21       28.76       500      610      700      900      950      970     1000      129      960     1100   
                                          VAR    BASINP    GEOM    SYMINP    ZMAT    AOBASIS   BASIS     P2S    ABASIS      S 
                                         1400     1410     1200     1210     1080     1600     1650     1300     1700     1380   
                                           T        V       H0       H01     AOSYM     SMH    MOLCAS    ERIS     OPER     JKOP   
                                         7000   
                                        PAPT AO    

              2       5        0.48       700     1000      520     2100     7000   
                                         GEOM     BASIS   MCVARS     RHF     PAPT   

 PROGRAMS   *        TOTAL      PAPT       MP2      PAPT   CCSD(T)       MP4       MP3       MP2   RHF-SCF       INT
 CPU TIMES  *         0.44      0.04      0.02      0.04      0.04      0.03      0.02      0.02      0.00      0.11
 REAL TIME  *         2.75 SEC
 DISK USED  *        33.25 MB
 **********************************************************************************************************************************


 PROGRAM * MP3 (Closed-shell)     Authors: C. Hampel, H.-J. Werner, 1991, M. Deegan, P.J. Knowles, 1992


 Convergence thresholds:  THRVAR = 1.00D-08  THRDEN = 1.00D-10

 Number of core orbitals:           2 (   1   0   0   0   1   0   0   0 )
 Number of closed-shell orbitals:   5 (   2   1   1   0   1   0   0   0 )
 Number of external orbitals:      21 (   4   2   2   1   5   3   3   1 )

 Molecular orbitals read from record     7000.2  Type=PAPT/CANONICAL (state 1.1)

 Number of N-1 electron functions:               5
 Number of N-2 electron functions:              15
 Number of singly external CSFs:                17
 Number of doubly external CSFs:               802
 Total number of CSFs:                         820

 Length of J-op  integral file:               0.00 MB
 Length of K-op  integral file:               0.07 MB

 Integral transformation finished. Total CPU:   0.00 sec, npass=  1  Memory used:   0.07 MW
 Orbital energies read from record       7000.2  Type=PAPT/CANONICAL (state 1.1)

 Reference energy:                   -108.92983839

                        CORR.ENERGY   TOTAL ENERGY   ENERGY CHANGE
 MP2:                   -0.28683669  -109.21667508    -0.28683669

 SCS-MP2 correlation energy:           -0.28061422   (PS=  1.200000  PT=  0.333333)
 SCS-MP2 total energy:               -109.21045261

 MP3(D):                -0.28690427  -109.21674265    -0.00006758



 RESULTS
 =======

  Reference energy                   -108.929838385637
  MP3 singlet pair energy              -0.187083111257
  MP3 triplet pair energy              -0.099821157450
  MP3 correlation energy               -0.286904268707

 !MP3 total energy                   -109.216742654344

 Timing summary (sec):

 STEP                 CPU(USER)    SYS     CPU(TOT)    WALL
 CCSD iterations         0.54      0.00      0.54      0.05

 Program statistics:

 Available memory in ccsd:              1572863897
 Min. memory needed in ccsd:                  4487
 Max. memory used in ccsd:                    4826
 Max. memory used in cckext:                 37650 ( 1 integral passes)



 **********************************************************************************************************************************
 DATASETS  * FILE   NREC   LENGTH (MB)   RECORD NAMES
              1      21       28.76       500      610      700      900      950      970     1000      129      960     1100   
                                          VAR    BASINP    GEOM    SYMINP    ZMAT    AOBASIS   BASIS     P2S    ABASIS      S 
                                         1400     1410     1200     1210     1080     1600     1650     1300     1700     1380   
                                           T        V       H0       H01     AOSYM     SMH    MOLCAS    ERIS     OPER     JKOP   
                                         7000   
                                        PAPT AO    

              2       5        0.48       700     1000      520     2100     7000   
                                         GEOM     BASIS   MCVARS     RHF     PAPT   

 PROGRAMS   *        TOTAL       MP3      PAPT       MP2      PAPT   CCSD(T)       MP4       MP3       MP2   RHF-SCF       INT
 CPU TIMES  *         0.46      0.02      0.04      0.02      0.04      0.04      0.03      0.02      0.02      0.00      0.11
 REAL TIME  *         3.00 SEC
 DISK USED  *        33.25 MB
 **********************************************************************************************************************************
 SETTING ERPAPT3(1)     =      -109.21674265  AU                              


 PROGRAM * PAPT (Closed-shell)     Authors: C. Hampel, H.-J. Werner, 1991, P.J. Knowles, 2021


 Convergence thresholds:  THRVAR = 1.00D-08  THRDEN = 1.00D-10

 Number of core orbitals:           2 (   1   0   0   0   1   0   0   0 )
 Number of closed-shell orbitals:   5 (   2   1   1   0   1   0   0   0 )
 Number of external orbitals:      21 (   4   2   2   1   5   3   3   1 )

 Molecular orbitals read from record     7000.2  Type=PAPT/CANONICAL (state 1.1)

 Number of N-1 electron functions:               5
 Number of N-2 electron functions:              15
 Number of singly external CSFs:                17
 Number of doubly external CSFs:               802
 Total number of CSFs:                         820

 Length of J-op  integral file:               0.00 MB
 Length of K-op  integral file:               0.07 MB

 Integral transformation finished. Total CPU:   0.00 sec, npass=  1  Memory used:   0.07 MW
 Orbital energies read from record       7000.2  Type=PAPT/CANONICAL (state 1.1)

 Reference energy:                   -108.92983839

                        CORR.ENERGY   TOTAL ENERGY   ENERGY CHANGE
 MP2:                   -0.28683669  -109.21667508    -0.28683669

 SCS-MP2 correlation energy:           -0.28061422   (PS=  1.200000  PT=  0.333333)
 SCS-MP2 total energy:               -109.21045261
 Iteration:   1     0.2885D+00
 Iteration:   2     0.4174D+00
 Iteration:   3     0.1072D+00
 Iteration:   4     0.8471D-01
 Iteration:   5     0.2426D-01
 Iteration:   6     0.2739D-01
 Iteration:   7     0.7860D-02
 Iteration:   8     0.4752D-02
 Iteration:   9     0.4720D-02
 Iteration:  10     0.8183D-03
 Iteration:  11     0.9720D-04
 PAPT operator written to  7000.1
 PAPT orbitals and eigenvalues written to  7000.2

 MP3(D):                -0.28690427  -109.21674265    -0.00006758



 RESULTS
 =======

  Reference energy                   -108.929838385637
  MP3 singlet pair energy              -0.187083111257
  MP3 triplet pair energy              -0.099821157450
  MP3 correlation energy               -0.286904268707

 !MP3 total energy                   -109.216742654344

 Timing summary (sec):

 STEP                 CPU(USER)    SYS     CPU(TOT)    WALL
 CCSD iterations         0.57      0.01      0.58      0.13

 Program statistics:

 Available memory in ccsd:              1572863897
 Min. memory needed in ccsd:                  4487
 Max. memory used in ccsd:                    4826
 Max. memory used in cckext:                 37650 ( 1 integral passes)



 **********************************************************************************************************************************
 DATASETS  * FILE   NREC   LENGTH (MB)   RECORD NAMES
              1      21       28.76       500      610      700      900      950      970     1000      129      960     1100   
                                          VAR    BASINP    GEOM    SYMINP    ZMAT    AOBASIS   BASIS     P2S    ABASIS      S 
                                         1400     1410     1200     1210     1080     1600     1650     1300     1700     1380   
                                           T        V       H0       H01     AOSYM     SMH    MOLCAS    ERIS     OPER     JKOP   
                                         7000   
                                        PAPT AO    

              2       5        0.48       700     1000      520     2100     7000   
                                         GEOM     BASIS   MCVARS     RHF     PAPT   

 PROGRAMS   *        TOTAL      PAPT       MP3      PAPT       MP2      PAPT   CCSD(T)       MP4       MP3       MP2   RHF-SCF
 CPU TIMES  *         0.50      0.04      0.02      0.04      0.02      0.04      0.04      0.03      0.02      0.02      0.00
 REAL TIME  *         3.27 SEC
 DISK USED  *        33.25 MB
 **********************************************************************************************************************************


 PROGRAM * MP4 (Closed-shell)     Authors: C. Hampel, H.-J. Werner, 1991, M. Deegan, P.J. Knowles, 1992


 Convergence thresholds:  THRVAR = 1.00D-08  THRDEN = 1.00D-10

 MP4(T)     terms to be evaluated (factor= 0.000)


 Number of core orbitals:           2 (   1   0   0   0   1   0   0   0 )
 Number of closed-shell orbitals:   5 (   2   1   1   0   1   0   0   0 )
 Number of external orbitals:      21 (   4   2   2   1   5   3   3   1 )

 Molecular orbitals read from record     7000.2  Type=PAPT/CANONICAL (state 1.1)

 Number of N-1 electron functions:               5
 Number of N-2 electron functions:              15
 Number of singly external CSFs:                17
 Number of doubly external CSFs:               802
 Total number of CSFs:                         820

 Length of J-op  integral file:               0.00 MB
 Length of K-op  integral file:               0.07 MB

 Memory could be reduced to 0.06 Mwords without degradation in triples

 Integral transformation finished. Total CPU:   0.00 sec, npass=  1  Memory used:   0.07 MW
 Orbital energies read from record       7000.2  Type=PAPT/CANONICAL (state 1.1)

 Reference energy:                   -108.92983839

                        CORR.ENERGY   TOTAL ENERGY   ENERGY CHANGE
 MP2:                   -0.28690506  -109.21674344    -0.28690506

 SCS-MP2 correlation energy:           -0.28071632   (PS=  1.200000  PT=  0.333333)
 SCS-MP2 total energy:               -109.21055470

 MP3(D):                -0.28689429  -109.21673267     0.00001077
 MP4(DQ):               -0.28521744  -109.21505582     0.00167685
 MP4(SDQ):              -0.28756381  -109.21740220    -0.00234637

 Norm of t1 vector:      0.03533926      S-energy:    -0.00234637      T1 diagnostic:  0.00790210

 Largest off-diagonal element in interal  block of Fock matrix:  0.22D+00
 Largest off-diagonal element in external block of Fock matrix:  0.12D+00

 Total CPU time for triples:      0.00 sec


 RESULTS
 =======

  Reference energy                   -108.929838385637
  MP4(SDQ) singlet pair energy         -0.185167576568
  MP4(SDQ) triplet pair energy         -0.100049859075
  MP4(SDQ) correlation energy          -0.287563809744

  Triples contribution                 -0.010559156547
  Total correlation energy             -0.298122966290

  MP4(SDQ) total energy              -109.217402195380
 !MP4(SDTQ) total energy             -109.227961351927

 Timing summary (sec):

 STEP                 CPU(USER)    SYS     CPU(TOT)    WALL
 CCSD iterations         0.60      0.00      0.60      0.16

 Program statistics:

 Available memory in ccsd:              1572863897
 Min. memory needed in ccsd:                  4487
 Max. memory used in ccsd:                    4826
 Max. memory used in cckext:                 37650 ( 1 integral passes)



 **********************************************************************************************************************************
 DATASETS  * FILE   NREC   LENGTH (MB)   RECORD NAMES
              1      21       28.76       500      610      700      900      950      970     1000      129      960     1100   
                                          VAR    BASINP    GEOM    SYMINP    ZMAT    AOBASIS   BASIS     P2S    ABASIS      S 
                                         1400     1410     1200     1210     1080     1600     1650     1300     1700     1380   
                                           T        V       H0       H01     AOSYM     SMH    MOLCAS    ERIS     OPER     JKOP   
                                         7000   
                                        PAPT AO    

              2       5        0.48       700     1000      520     2100     7000   
                                         GEOM     BASIS   MCVARS     RHF     PAPT   

 PROGRAMS   *        TOTAL       MP4      PAPT       MP3      PAPT       MP2      PAPT   CCSD(T)       MP4       MP3       MP2
 CPU TIMES  *         0.53      0.03      0.04      0.02      0.04      0.02      0.04      0.04      0.03      0.02      0.02
 REAL TIME  *         3.64 SEC
 DISK USED  *        33.25 MB
 **********************************************************************************************************************************
 SETTING ERPAPT4(1)     =      -109.22796135  AU                              


 PROGRAM * CCSD (Closed-shell coupled cluster)     Authors: C. Hampel, H.-J. Werner, 1991, M. Deegan, P.J. Knowles, 1992


 Convergence thresholds:  THRVAR = 1.00D-08  THRDEN = 1.00D-10

 CCSD(T)     terms to be evaluated (factor= 1.000)


 Number of core orbitals:           2 (   1   0   0   0   1   0   0   0 )
 Number of closed-shell orbitals:   5 (   2   1   1   0   1   0   0   0 )
 Number of external orbitals:      21 (   4   2   2   1   5   3   3   1 )

 Molecular orbitals read from record     7000.2  Type=PAPT/CANONICAL (state 1.1)

 Number of N-1 electron functions:               5
 Number of N-2 electron functions:              15
 Number of singly external CSFs:                17
 Number of doubly external CSFs:               802
 Total number of CSFs:                         820

 Length of J-op  integral file:               0.00 MB
 Length of K-op  integral file:               0.07 MB
 Length of 3-ext integral record:             0.00 MB

 Memory could be reduced to 0.06 Mwords without degradation in triples

 Integral transformation finished. Total CPU:   0.00 sec, npass=  1  Memory used:   0.07 MW
 Orbital energies read from record       7000.2  Type=PAPT/CANONICAL (state 1.1)

 Reference energy:                   -108.92983839

 MP2 singlet pair energy:              -0.17688049
 MP2 triplet pair energy:              -0.11002457
 MP2 correlation energy:               -0.28690506
 MP2 total energy:                   -109.21674344

 SCS-MP2 correlation energy:           -0.28071632   (PS=  1.200000  PT=  0.333333)
 SCS-MP2 total energy:               -109.21055470

 ITER.      SQ.NORM     CORR.ENERGY   TOTAL ENERGY   ENERGY CHANGE        DEN1      VAR(S)    VAR(P)  DIIS     TIME  TIME/IT
   1      1.09033795    -0.28659692  -109.21643531     0.00030814     0.00548496  0.11D-02  0.11D-02  1  1     0.62     0.01
   2      1.09444700    -0.28763170  -109.21747009    -0.00103478    -0.00420712  0.13D-04  0.18D-03  2  2     0.63     0.01
   3      1.09710650    -0.28788907  -109.21772746    -0.00025737    -0.00192600  0.79D-06  0.20D-04  3  3     0.63     0.01
   4      1.09779303    -0.28793693  -109.21777531    -0.00004786    -0.00032094  0.13D-06  0.27D-05  4  4     0.63     0.01
   5      1.09800850    -0.28794879  -109.21778717    -0.00001186    -0.00006667  0.20D-07  0.18D-06  5  5     0.63     0.01
   6      1.09803716    -0.28795019  -109.21778858    -0.00000141    -0.00000651  0.17D-08  0.14D-07  6  6     0.63     0.01
   7      1.09804175    -0.28795005  -109.21778844     0.00000014    -0.00000228  0.46D-10  0.95D-09  6  1     0.63     0.01
   8      1.09804307    -0.28794999  -109.21778838     0.00000006    -0.00000047  0.99D-11  0.68D-10  6  2     0.63     0.01
   9      1.09804337    -0.28795002  -109.21778840    -0.00000003    -0.00000005  0.49D-12  0.35D-11  6  3     0.63     0.01
  10      1.09804332    -0.28795003  -109.21778841    -0.00000001     0.00000006  0.28D-13  0.34D-12  6  4     0.64     0.01
  11      1.09804327    -0.28795003  -109.21778842    -0.00000000     0.00000003  0.22D-14  0.34D-13  6  5     0.64     0.01
  12      1.09804325    -0.28795003  -109.21778842    -0.00000000     0.00000001  0.15D-15  0.49D-14  6  6     0.64     0.01
  13      1.09804324    -0.28795003  -109.21778842    -0.00000000     0.00000000  0.47D-16  0.78D-15  6  1     0.64     0.01
  14      1.09804324    -0.28795003  -109.21778842     0.00000000     0.00000000  0.34D-17  0.13D-15  6  2     0.64     0.01
  15      1.09804324    -0.28795003  -109.21778842    -0.00000000     0.00000000  0.48D-18  0.17D-16  6  3     0.64     0.01

 Norm of t1 vector:      0.04028612      S-energy:    -0.00000000      T1 diagnostic:  0.00900825
                                                                       D1 diagnostic:  0.01878481
                                                                       D2 diagnostic:  0.15195466 (internal)

 Doubles amplitudes (print threshold =  0.500E-01):

         I         J         SYM. A    SYM. B    A         B      T(IJ, AB)

         3         3         6         6         1         1     -0.08745836
         4         4         7         7         1         1     -0.08745836
         4         3         7         6         1         1     -0.05655404

 Largest off-diagonal element in interal  block of Fock matrix:  0.22D+00
 Largest off-diagonal element in external block of Fock matrix:  0.12D+00

 Total CPU time for triples:      0.00 sec


 RESULTS
 =======

  Reference energy                   -108.929838385637
  CCSD singlet pair energy             -0.193023509110
  CCSD triplet pair energy             -0.094926522710
  CCSD correlation energy              -0.287950031836

  Triples (T) contribution             -0.009556211405
  Total correlation energy             -0.297506243240

  CCSD total energy                  -109.217788417472
  CCSD[T] energy                     -109.227692464716
  CCSD-T energy                      -109.227159669370
 !CCSD(T) total energy               -109.227344628877

 Timing summary (sec):

 STEP                 CPU(USER)    SYS     CPU(TOT)    WALL
 CCSD iterations         0.65      0.00      0.65      0.23

 Program statistics:

 Available memory in ccsd:              1572863897
 Min. memory needed in ccsd:                  4487
 Max. memory used in ccsd:                    4826
 Max. memory used in cckext:                 37677 (15 integral passes)



 **********************************************************************************************************************************
 DATASETS  * FILE   NREC   LENGTH (MB)   RECORD NAMES
              1      21       28.76       500      610      700      900      950      970     1000      129      960     1100   
                                          VAR    BASINP    GEOM    SYMINP    ZMAT    AOBASIS   BASIS     P2S    ABASIS      S 
                                         1400     1410     1200     1210     1080     1600     1650     1300     1700     1380   
                                           T        V       H0       H01     AOSYM     SMH    MOLCAS    ERIS     OPER     JKOP   
                                         7000   
                                        PAPT AO    

              2       5        0.48       700     1000      520     2100     7000   
                                         GEOM     BASIS   MCVARS     RHF     PAPT   

 PROGRAMS   *        TOTAL   CCSD(T)       MP4      PAPT       MP3      PAPT       MP2      PAPT   CCSD(T)       MP4       MP3
 CPU TIMES  *         0.57      0.04      0.03      0.04      0.02      0.04      0.02      0.04      0.04      0.03      0.02
 REAL TIME  *         4.06 SEC
 DISK USED  *        33.25 MB
 **********************************************************************************************************************************
 SETTING ECCSDP(1)      =      -109.21778842  AU                              
 SETTING ECCSDPT(1)     =      -109.22734463  AU                              


 PROGRAM * FCI (Full CI)     Author: P.J. Knowles, 1984


 Molecular orbitals read from record     7000.2  Type=PAPT/CANONICAL (state 1.1)

 Frozen orbitals:              2 (  1  0  0  0  1  0  0  0)
 Active orbitals:             26 (  6  3  3  1  6  3  3  1)
 Active electrons:            10
 Spin quantum number:          0.0
 Orbital pairs:                    68      42      42      30      55      42      42      30
 Strings:                        8132    8206    8206    8346    8132    8206    8206    8346
                                 8132    8206    8206    8346    8132    8206    8206    8346
 Determinants:                      540924024       540873872       540873872       540832432
                                    540924024       540873872       540873872       540832432

 Load integrals                0.7 sec
 Transform integrals           0.7 sec
 Storage for integrals:          17883
 Remaining memory:           *********

 Core energy:             -76.23688811
 Run Hamiltonian processor DAVIDSON
 Symmetry:                   1
 Trial vector:                  0.00
 Result vector:                 0.00
 Maximum iterations:           90
 Convergence threshold:         0.0000100
 RHS vector:                    0.00
 Hamiltonian shift:             0.0000000
 Output threshold:              0.0500000
 Options:                        0
 Number of roots:             1

 Hamiltonian diagonaliser entered at time      0.68

 Initial configuration generated:
********      1.0000000   -108.9298384

 It  Tr    CPU  Convergence   Energy       Pop     dE(next)

  1   1  585.5  1.00000000  -108.92983839
                                           0.00 -0.38606343 -0.38606343
  2   1  896.1  0.27872599  -109.18315017
                                           0.00 -0.05441420 -0.05440891
  3   1 1208.0  0.09984708  -109.22291310
                                           0.01 -0.00546155 -0.00543954
  4   1 1544.3  0.02996085  -109.22752762
                                           0.02 -0.00063923 -0.00063189
  5   1 1976.1  0.01083499  -109.22807768
                                           0.04 -0.00011488 -0.00011191
  6   1 2400.8  0.00451874  -109.22816810
                                           0.06 -0.00002136 -0.00002038
  7   1 2909.4  0.00196495  -109.22818595
                                           0.10 -0.00000318 -0.00000296
  8   1 3561.8  0.00069298  -109.22818864
                                           0.14 -0.00000051 -0.00000046
  9   1 4390.3  0.00026011  -109.22818905
                                           0.17 -0.00000010 -0.00000008
 10   1 5376.7  0.00010099  -109.22818912
                                           0.19 -0.00000002 -0.00000002
 11   1 6441.1  0.00004137  -109.22818914
                                           0.20 -0.00000000 -0.00000000
 12   1 7540.2  0.00001852  -109.22818914
                                           0.21 -0.00000000 -0.00000000
 13   1 8550.4  0.00000833  -109.22818914


RESULTS FOR STATE  1.1
=====================

 Correlation energy                    -0.298350754224
 !FCI STATE 1.1 Energy               -109.228189139861
 CI Vector (threshold= 0.500E-01)
      -0.088683225538  1  2  3  4  9 16 25  1  2  3  4  9 16 25
       0.059233029642  1  2  3  4  9 16 25  1  2  3  4 12 16 22
       0.059233029642  1  2  3  4 12 16 22  1  2  3  4  9 16 25
      -0.088683225538  1  2  3  4 12 16 22  1  2  3  4 12 16 22
       0.947571496472  1  2  3  4  9 12 16  1  2  3  4  9 12 16
 /EOF
 !FCI STATE 1.1 Dipole moment           0.00000000     0.00000000    -0.00000000
 Dipole moment /Debye                   0.00000000     0.00000000    -0.00000000


 **********************************************************************************************************************************
 DATASETS  * FILE   NREC   LENGTH (MB)   RECORD NAMES
              1      21       28.76       500      610      700      900      950      970     1000      129      960     1100   
                                          VAR    BASINP    GEOM    SYMINP    ZMAT    AOBASIS   BASIS     P2S    ABASIS      S 
                                         1400     1410     1200     1210     1080     1600     1650     1300     1700     1380   
                                           T        V       H0       H01     AOSYM     SMH    MOLCAS    ERIS     OPER     JKOP   
                                         7000   
                                        PAPT AO    

              2       5        0.48       700     1000      520     2100     7000   
                                         GEOM     BASIS   MCVARS     RHF     PAPT   

 PROGRAMS   *        TOTAL       FCI   CCSD(T)       MP4      PAPT       MP3      PAPT       MP2      PAPT   CCSD(T)       MP4
 CPU TIMES  *      8590.63   8590.05      0.04      0.03      0.04      0.02      0.04      0.02      0.04      0.04      0.03
 REAL TIME  *     33661.05 SEC
 DISK USED  *       108.84 GB
 **********************************************************************************************************************************
 SETTING EFCI(1)        =      -109.22818914  AU                              

 DO I                   =         2.00000000   


 Recomputing integrals since geometry changed


 PROGRAM * SEWARD (Integral evaluation for generally contracted gaussian basis sets)     Author: Roland Lindh, 1990

 Geometry written to block  1 of record 700

 Orientation using atomic masses  
 Molecule type: Linear
 Symmetry elements: X,Y,Z
 Rotational constants:      50.1128227     50.1128227      0.0000000 GHz  (calculated with average atomic masses)

 Point group  D2h 



 ATOMIC COORDINATES

 NR  ATOM    CHARGE       X              Y              Z

   1  N       7.00    0.000000000    0.000000000   -1.133835675
   2  N       7.00    0.000000000    0.000000000    1.133835675

 Bond lengths in Bohr (Angstrom)

 1-2  2.267671350
     ( 1.200000000)

 NUCLEAR CHARGE:                   14
 NUMBER OF PRIMITIVE AOS:          54
 NUMBER OF SYMMETRY AOS:           52
 NUMBER OF CONTRACTIONS:           28   (    7Ag  +    3B3u +    3B2u +    1B1g +    7B1u +    3B2g +    3B3g +    1Au  )
 NUMBER OF INNER CORE ORBITALS:     0   (    0Ag  +    0B3u +    0B2u +    0B1g +    0B1u +    0B2g +    0B3g +    0Au  )
 NUMBER OF OUTER CORE ORBITALS:     2   (    1Ag  +    0B3u +    0B2u +    0B1g +    1B1u +    0B2g +    0B3g +    0Au  )
 NUMBER OF VALENCE ORBITALS:        8   (    2Ag  +    1B3u +    1B2u +    0B1g +    2B1u +    1B2g +    1B3g +    0Au  )


 NUCLEAR REPULSION ENERGY   21.60806945

 EXTRA SYMMETRY OF AOS IN SYMMETRY 1:   1 1 1 1 1 1 2
 EXTRA SYMMETRY OF AOS IN SYMMETRY 5:   1 1 1 1 1 1 2

 Eigenvalues of metric

         1 0.389E-01 0.147E+00 0.988E+00 0.112E+01 0.117E+01 0.143E+01 0.368E+01
         2 0.199E+00 0.132E+01 0.274E+01
         3 0.199E+00 0.132E+01 0.274E+01
         4 0.112E+01
         5 0.665E-02 0.918E-01 0.129E+00 0.878E+00 0.939E+00 0.104E+01 0.235E+01
         6 0.134E+00 0.427E+00 0.118E+01
         7 0.134E+00 0.427E+00 0.118E+01
         8 0.878E+00


 Contracted 2-electron integrals neglected if value below      1.0D-14
 AO integral compression algorithm  1   Integral accuracy      1.0D-14

     0.262 MB (compressed) written to integral file (100.0%)


 NUMBER OF SORTED TWO-ELECTRON INTEGRALS:      13015.     BUFFER LENGTH:  32768
 NUMBER OF SEGMENTS:   1  SEGMENT LENGTH:      13015      RECORD LENGTH: 524288

 Memory used in sort:       0.57 MW

 SORT1 READ       27440. AND WROTE       11779. INTEGRALS IN      1 RECORDS. CPU TIME:     0.00 SEC, REAL TIME:     0.00 SEC
 SORT2 READ       11779. AND WROTE       13015. INTEGRALS IN      1 RECORDS. CPU TIME:     0.01 SEC, REAL TIME:     0.00 SEC

 FILE SIZES:   FILE 1:    30.3 MBYTE,  FILE 4:     4.3 MBYTE,   TOTAL:     34.5 MBYTE

 OPERATOR DM      FOR CENTER  0  COORDINATES:    0.000000    0.000000    0.000000


 **********************************************************************************************************************************
 DATASETS  * FILE   NREC   LENGTH (MB)   RECORD NAMES
              1      19       28.71       500      610      700      900      950      970     1000      129      960     1100   
                                          VAR    BASINP    GEOM    SYMINP    ZMAT    AOBASIS   BASIS     P2S    ABASIS      S 
                                         1400     1410     1200     1210     1080     1600     1650     1300     1700   
                                           T        V       H0       H01     AOSYM     SMH    MOLCAS    ERIS     OPER   

              2       5        0.48       700     1000      520     2100     7000   
                                         GEOM     BASIS   MCVARS     RHF     PAPT   

 PROGRAMS   *        TOTAL       INT       FCI   CCSD(T)       MP4      PAPT       MP3      PAPT       MP2      PAPT   CCSD(T)
 CPU TIMES  *      8590.69      0.07   8590.05      0.04      0.03      0.04      0.02      0.04      0.02      0.04      0.04
 REAL TIME  *     33661.30 SEC
 DISK USED  *       108.84 GB
 **********************************************************************************************************************************


 Program * Restricted Hartree-Fock

 Molecular orbitals read from record     2100.2  Type=RHF/CANONICAL  

 Initial occupancy:   3   1   1   0   2   0   0   0

 NELEC=   14   SYM=1   MS2= 0   THRE=1.0D-12   THRD=1.0D-06   THRG=1.0D-06  HFMA2=F  DIIS_START=2   DIIS_MAX=10   DIIS_INCORE=F

 Level shifts:    0.00 (CLOSED)    0.00 (OPEN)    0.30 (GAP_MIN)

 ITER           ETOT              DE          GRAD        DDIFF     DIIS  NEXP   TIME(IT)  TIME(TOT)  DIAG
   1     -108.88150474    -108.88150474     0.00D+00     0.60D+00     0     0       0.00      0.00    start
   2     -108.91199929      -0.03049456     0.32D-01     0.75D-01     1     0       0.00      0.00    diag
   3     -108.91389282      -0.00189352     0.80D-02     0.23D-01     2     0       0.00      0.00    diag
   4     -108.91405143      -0.00015861     0.20D-02     0.66D-02     3     0       0.00      0.00    diag
   5     -108.91405197      -0.00000054     0.11D-03     0.42D-03     4     0       0.00      0.00    diag
   6     -108.91405197      -0.00000001     0.12D-04     0.42D-04     5     0       0.00      0.00    diag
   7     -108.91405198      -0.00000000     0.16D-05     0.47D-05     6     0       0.00      0.00    diag
   8     -108.91405198      -0.00000000     0.17D-06     0.48D-06     7     0       0.00      0.00    fixocc
   9     -108.91405198      -0.00000000     0.95D-08     0.37D-07     8     0       0.00      0.00    diag
  10     -108.91405198       0.00000000     0.11D-08     0.34D-08     0     0       0.00      0.00    diag/orth

 Final occupancy:   3   1   1   0   2   0   0   0

 !RHF STATE 1.1 Energy               -108.914051975016
  RHF One-electron energy            -190.263228318860
  RHF Two-electron energy              59.741106898639
  RHF Kinetic energy                  108.149316709857
  RHF Nuclear energy                   21.608069445206
  RHF Virial quotient                  -1.007071105842

 !RHF STATE 1.1 Dipole moment           0.00000000     0.00000000    -0.00000000
 Dipole moment /Debye                   0.00000000     0.00000000    -0.00000000

 Orbital energies:

           1.1          2.1          3.1          4.1          5.1
    -15.717645    -1.398358    -0.616083     0.859408     0.982838

           1.2          2.2          3.2
     -0.568345     0.896993     1.791900

           1.3          2.3          3.3
     -0.568345     0.896993     1.791900

           1.4
      1.792431

           1.5          2.5          3.5          4.5
    -15.715642    -0.806088     0.548628     1.006293

           1.6          2.6
      0.124841     1.031067

           1.7          2.7
      0.124841     1.031067

           1.8
      2.233605


 HOMO      1.3    -0.568345 =     -15.4655eV
 LUMO      1.6     0.124841 =       3.3971eV
 LUMO-HOMO         0.693185 =      18.8625eV

 Orbitals saved in record  2100.2


 **********************************************************************************************************************************
 DATASETS  * FILE   NREC   LENGTH (MB)   RECORD NAMES
              1      19       28.71       500      610      700      900      950      970     1000      129      960     1100   
                                          VAR    BASINP    GEOM    SYMINP    ZMAT    AOBASIS   BASIS     P2S    ABASIS      S 
                                         1400     1410     1200     1210     1080     1600     1650     1300     1700   
                                           T        V       H0       H01     AOSYM     SMH    MOLCAS    ERIS     OPER   

              2       5        0.48       700     1000      520     2100     7000   
                                         GEOM     BASIS   MCVARS     RHF     PAPT   

 PROGRAMS   *        TOTAL   RHF-SCF       INT       FCI   CCSD(T)       MP4      PAPT       MP3      PAPT       MP2      PAPT
 CPU TIMES  *      8590.69      0.00      0.07   8590.05      0.04      0.03      0.04      0.02      0.04      0.02      0.04
 REAL TIME  *     33661.40 SEC
 DISK USED  *       108.84 GB
 **********************************************************************************************************************************
 SETTING ERHF(2)        =      -108.91405198  AU                              


 PROGRAM * MP2 (Closed-shell)     Authors: C. Hampel, H.-J. Werner, 1991, M. Deegan, P.J. Knowles, 1992


 Convergence thresholds:  THRVAR = 1.00D-08  THRDEN = 1.00D-10

 Number of core orbitals:           2 (   1   0   0   0   1   0   0   0 )
 Number of closed-shell orbitals:   5 (   2   1   1   0   1   0   0   0 )
 Number of external orbitals:      21 (   4   2   2   1   5   3   3   1 )

 Molecular orbitals read from record     2100.2  Type=RHF/CANONICAL (state 1.1)

 Number of N-1 electron functions:               5
 Number of N-2 electron functions:              15
 Number of singly external CSFs:                17
 Number of doubly external CSFs:               802
 Total number of CSFs:                         820

 Length of J-op  integral file:               0.00 MB
 Length of K-op  integral file:               0.07 MB

 Integral transformation finished. Total CPU:   0.00 sec, npass=  1  Memory used:   0.07 MW

 Memory needed for MP2:                      0.00 MW

 SCS-MP2 correlation energy:           -0.327975589960   (PS=  1.200000  PT=  0.333333)
 SCS-MP2 total energy:               -109.242027564976


  Reference energy                   -108.914051975016
  MP2 singlet pair energy              -0.201661352073
  MP2 triplet pair energy              -0.138185304867
  MP2 correlation energy               -0.339846656940

 !MP2 total energy                   -109.253898631955


 **********************************************************************************************************************************
 DATASETS  * FILE   NREC   LENGTH (MB)   RECORD NAMES
              1      20       28.74       500      610      700      900      950      970     1000      129      960     1100   
                                          VAR    BASINP    GEOM    SYMINP    ZMAT    AOBASIS   BASIS     P2S    ABASIS      S 
                                         1400     1410     1200     1210     1080     1600     1650     1300     1700     1380   
                                           T        V       H0       H01     AOSYM     SMH    MOLCAS    ERIS     OPER     JKOP   

              2       5        0.48       700     1000      520     2100     7000   
                                         GEOM     BASIS   MCVARS     RHF     PAPT   

 PROGRAMS   *        TOTAL       MP2   RHF-SCF       INT       FCI   CCSD(T)       MP4      PAPT       MP3      PAPT       MP2
 CPU TIMES  *      8590.72      0.03      0.00      0.07   8590.05      0.04      0.03      0.04      0.02      0.04      0.02
 REAL TIME  *     33661.52 SEC
 DISK USED  *       108.84 GB
 **********************************************************************************************************************************
 SETTING ERMP2(2)       =      -109.25389863  AU                              


 PROGRAM * MP3 (Closed-shell)     Authors: C. Hampel, H.-J. Werner, 1991, M. Deegan, P.J. Knowles, 1992


 Convergence thresholds:  THRVAR = 1.00D-08  THRDEN = 1.00D-10

 Number of core orbitals:           2 (   1   0   0   0   1   0   0   0 )
 Number of closed-shell orbitals:   5 (   2   1   1   0   1   0   0   0 )
 Number of external orbitals:      21 (   4   2   2   1   5   3   3   1 )

 Molecular orbitals read from record     2100.2  Type=RHF/CANONICAL (state 1.1)

 Number of N-1 electron functions:               5
 Number of N-2 electron functions:              15
 Number of singly external CSFs:                17
 Number of doubly external CSFs:               802
 Total number of CSFs:                         820

 Length of J-op  integral file:               0.00 MB
 Length of K-op  integral file:               0.07 MB

 Integral transformation finished. Total CPU:   0.00 sec, npass=  1  Memory used:   0.07 MW

 Reference energy:                   -108.91405198

                        CORR.ENERGY   TOTAL ENERGY   ENERGY CHANGE
 MP2:                   -0.33984666  -109.25389863    -0.33984666

 SCS-MP2 correlation energy:           -0.32797559   (PS=  1.200000  PT=  0.333333)
 SCS-MP2 total energy:               -109.24202756

 MP3(D):                -0.31981635  -109.23386833     0.02003030



 RESULTS
 =======

  Reference energy                   -108.914051975016
  MP3 singlet pair energy              -0.211034155272
  MP3 triplet pair energy              -0.108782196740
  MP3 correlation energy               -0.319816352012

 !MP3 total energy                   -109.233868327027

 Timing summary (sec):

 STEP                 CPU(USER)    SYS     CPU(TOT)    WALL
 CCSD iterations      8590.82      0.00   8590.82      0.07

 Program statistics:

 Available memory in ccsd:              1572863897
 Min. memory needed in ccsd:                  4487
 Max. memory used in ccsd:                    4826
 Max. memory used in cckext:                 37650 ( 1 integral passes)



 **********************************************************************************************************************************
 DATASETS  * FILE   NREC   LENGTH (MB)   RECORD NAMES
              1      20       28.74       500      610      700      900      950      970     1000      129      960     1100   
                                          VAR    BASINP    GEOM    SYMINP    ZMAT    AOBASIS   BASIS     P2S    ABASIS      S 
                                         1400     1410     1200     1210     1080     1600     1650     1300     1700     1380   
                                           T        V       H0       H01     AOSYM     SMH    MOLCAS    ERIS     OPER     JKOP   

              2       5        0.48       700     1000      520     2100     7000   
                                         GEOM     BASIS   MCVARS     RHF     PAPT   

 PROGRAMS   *        TOTAL       MP3       MP2   RHF-SCF       INT       FCI   CCSD(T)       MP4      PAPT       MP3      PAPT
 CPU TIMES  *      8590.74      0.02      0.03      0.00      0.07   8590.05      0.04      0.03      0.04      0.02      0.04
 REAL TIME  *     33661.63 SEC
 DISK USED  *       108.84 GB
 **********************************************************************************************************************************
 SETTING ERMP3(2)       =      -109.23386833  AU                              


 PROGRAM * MP4 (Closed-shell)     Authors: C. Hampel, H.-J. Werner, 1991, M. Deegan, P.J. Knowles, 1992


 Convergence thresholds:  THRVAR = 1.00D-08  THRDEN = 1.00D-10

 MP4(T)     terms to be evaluated (factor= 0.000)


 Number of core orbitals:           2 (   1   0   0   0   1   0   0   0 )
 Number of closed-shell orbitals:   5 (   2   1   1   0   1   0   0   0 )
 Number of external orbitals:      21 (   4   2   2   1   5   3   3   1 )

 Molecular orbitals read from record     2100.2  Type=RHF/CANONICAL (state 1.1)

 Number of N-1 electron functions:               5
 Number of N-2 electron functions:              15
 Number of singly external CSFs:                17
 Number of doubly external CSFs:               802
 Total number of CSFs:                         820

 Length of J-op  integral file:               0.00 MB
 Length of K-op  integral file:               0.07 MB

 Memory could be reduced to 0.06 Mwords without degradation in triples

 Integral transformation finished. Total CPU:   0.00 sec, npass=  1  Memory used:   0.07 MW

 Reference energy:                   -108.91405198

                        CORR.ENERGY   TOTAL ENERGY   ENERGY CHANGE
 MP2:                   -0.33984666  -109.25389863    -0.33984666

 SCS-MP2 correlation energy:           -0.32797559   (PS=  1.200000  PT=  0.333333)
 SCS-MP2 total energy:               -109.24202756

 MP3(D):                -0.31981635  -109.23386833     0.02003030
 MP4(DQ):               -0.32977426  -109.24382624    -0.00995791
 MP4(SDQ):              -0.33672695  -109.25077892    -0.00695268

 Norm of t1 vector:      0.06386205      S-energy:    -0.00695268      T1 diagnostic:  0.01427999

 Total CPU time for triples:      0.00 sec


 RESULTS
 =======

  Reference energy                   -108.914051975016
  MP4(SDQ) singlet pair energy         -0.210836041304
[...]
  34      2.83535073    -0.68987046  -108.92255666    -0.00000042    -0.00000063  0.41D-12  0.65D-12  6  4114266.83     0.01
  35      2.83535795    -0.68987079  -108.92255699    -0.00000033    -0.00000059  0.38D-13  0.26D-12  6  6114266.83     0.01
  36      2.83536120    -0.68987091  -108.92255711    -0.00000011    -0.00000028  0.42D-14  0.58D-13  6  5114266.83     0.01
  37      2.83536088    -0.68987081  -108.92255700     0.00000010     0.00000002  0.62D-14  0.18D-13  6  3114266.84     0.01
  38      2.83536128    -0.68987077  -108.92255697     0.00000004    -0.00000004  0.12D-14  0.64D-14  6  1114266.84     0.01
  39      2.83536102    -0.68987075  -108.92255695     0.00000002     0.00000002  0.18D-15  0.22D-14  6  2114266.84     0.01
  40      2.83536086    -0.68987075  -108.92255695     0.00000000     0.00000001  0.31D-15  0.66D-15  6  4114266.84     0.01
  41      2.83536073    -0.68987075  -108.92255694     0.00000001     0.00000001  0.49D-16  0.24D-15  6  6114266.85     0.01
  42      2.83536069    -0.68987074  -108.92255694     0.00000000     0.00000000  0.28D-16  0.73D-16  6  5114266.85     0.01
  43      2.83536067    -0.68987074  -108.92255694     0.00000000     0.00000000  0.11D-16  0.35D-16  6  6114266.85     0.01
  44      2.83536067    -0.68987074  -108.92255694     0.00000000     0.00000000  0.26D-17  0.88D-17  6  1114266.85     0.01
  45      2.83536068    -0.68987074  -108.92255694    -0.00000000    -0.00000000  0.11D-18  0.72D-17  6  3114266.86     0.01
  46      2.83536069    -0.68987074  -108.92255694    -0.00000000    -0.00000000  0.11D-18  0.53D-17  6  2114266.86     0.01
  47      2.83536072    -0.68987074  -108.92255694    -0.00000000    -0.00000000  0.21D-18  0.20D-17  6  4114266.86     0.01
  48      2.83536074    -0.68987074  -108.92255694     0.00000000    -0.00000000  0.72D-19  0.54D-18  6  1114266.86     0.01
  49      2.83536076    -0.68987074  -108.92255694    -0.00000000    -0.00000000  0.16D-19  0.17D-18  6  5114266.87     0.01
  50      2.83536076    -0.68987074  -108.92255694    -0.00000000    -0.00000000  0.33D-20  0.85D-19  6  6114266.87     0.01
  51      2.83536076    -0.68987074  -108.92255694    -0.00000000    -0.00000000  0.12D-20  0.39D-19  6  3114266.87     0.01
  52      2.83536076    -0.68987074  -108.92255694    -0.00000000    -0.00000000  0.45D-20  0.12D-19  6  2114266.88     0.01
  53      2.83536077    -0.68987074  -108.92255694    -0.00000000    -0.00000000  0.13D-20  0.29D-20  6  4114266.88     0.01

 Norm of t1 vector:      0.20101333      S-energy:     0.00000000      T1 diagnostic:  0.04494795
                                                                       D1 diagnostic:  0.08518755
                                                                       D2 diagnostic:  0.82525601 (internal)

 Singles amplitudes (print threshold =  0.500E-01):

         I         SYM. A    A   T(IA)

         2         1         2     -0.05441420
         3         2         1     -0.08510991
         4         3         1     -0.08510991

 Doubles amplitudes (print threshold =  0.500E-01):

         I         J         SYM. A    SYM. B    A         B      T(IJ, AB)

         2         1         5         5         1         1      0.05527454
         2         2         5         5         1         1     -0.33484069
         2         2         5         5         1         2      0.10837152
         2         2         5         5         2         1      0.10837152
         3         3         6         6         1         1     -0.59246771
         3         3         6         6         1         2      0.15400061
         3         3         6         6         2         1      0.15400061
         4         4         7         7         1         1     -0.59246771
         4         4         7         7         1         2      0.15400061
         4         4         7         7         2         1      0.15400061
         3         2         5         6         1         1     -0.23056618
         3         2         5         6         1         2      0.06048768
         3         2         5         6         2         1      0.06886708
         3         2         6         5         1         1     -0.15098973
         4         2         5         7         1         1     -0.23056618
         4         2         5         7         1         2      0.06048768
         4         2         5         7         2         1      0.06886708
         4         2         7         5         1         1     -0.15098973
         4         3         6         7         1         1     -0.33112351
         4         3         6         7         1         2      0.08529287
         4         3         6         7         2         1      0.08529287
         4         3         7         6         1         1     -0.21471870
         4         3         7         6         1         2      0.05656820
         4         3         7         6         2         1      0.05656820

 Largest off-diagonal element in interal  block of Fock matrix:  0.16D+00
 Largest off-diagonal element in external block of Fock matrix:  0.58D+00

 Total CPU time for triples:      0.00 sec


 RESULTS
 =======

  Reference energy                   -108.232686196894
  CCSD singlet pair energy             -0.782819721599
  CCSD triplet pair energy              0.092948978240
  CCSD correlation energy              -0.689870742063

  Triples (T) contribution             -0.151501630406
  Total correlation energy             -0.841372372469

  CCSD total energy                  -108.922556938957
  CCSD[T] energy                     -109.087838705530
  CCSD-T energy                      -109.074503567448
 !CCSD(T) total energy               -109.074058569364

 Timing summary (sec):

 STEP                 CPU(USER)    SYS     CPU(TOT)    WALL
 CCSD iterations    114266.89      0.04 114266.93      0.71

 Program statistics:

 Available memory in ccsd:              1572863897
 Min. memory needed in ccsd:                  4487
 Max. memory used in ccsd:                    4826
 Max. memory used in cckext:                 37677 (53 integral passes)



 **********************************************************************************************************************************
 DATASETS  * FILE   NREC   LENGTH (MB)   RECORD NAMES
              1      21       28.76       500      610      700      900      950      970     1000      129      960     1100   
                                          VAR    BASINP    GEOM    SYMINP    ZMAT    AOBASIS   BASIS     P2S    ABASIS      S 
                                         1400     1410     1200     1210     1080     1600     1650     1300     1700     1380   
                                           T        V       H0       H01     AOSYM     SMH    MOLCAS    ERIS     OPER     JKOP   
                                         7000   
                                        PAPT AO    

              2       5        0.48       700     1000      520     2100     7000   
                                         GEOM     BASIS   MCVARS     RHF     PAPT   

 PROGRAMS   *        TOTAL   CCSD(T)       MP4      PAPT       MP3      PAPT       MP2      PAPT   CCSD(T)       MP4       MP3
 CPU TIMES  *    114266.82      0.18      0.05      0.05      0.05      0.05      0.04      0.04      0.11      0.03      0.03
 REAL TIME  *    256001.33 SEC
 DISK USED  *       342.60 GB
 **********************************************************************************************************************************
 SETTING ECCSDP(8)      =      -108.92255694  AU                              
 SETTING ECCSDPT(8)     =      -109.07405857  AU                              


 PROGRAM * FCI (Full CI)     Author: P.J. Knowles, 1984


 Molecular orbitals read from record     7000.2  Type=PAPT/CANONICAL (state 1.1)

 Frozen orbitals:              2 (  1  0  0  0  1  0  0  0)
 Active orbitals:             26 (  6  3  3  1  6  3  3  1)
 Active electrons:            10
 Spin quantum number:          0.0
 Orbital pairs:                    68      42      42      30      55      42      42      30
 Strings:                        8132    8206    8206    8346    8132    8206    8206    8346
                                 8132    8206    8206    8346    8132    8206    8206    8346
 Determinants:                      540924024       540873872       540873872       540832432
                                    540924024       540873872       540873872       540832432

 Load integrals           114266.9 sec
 Transform integrals      114266.9 sec
 Storage for integrals:          17883
 Remaining memory:           *********

 Core energy:             -83.45280780
 Run Hamiltonian processor DAVIDSON
 Symmetry:                   1
 Trial vector:                  0.00
 Result vector:                 0.00
 Maximum iterations:           90
 Convergence threshold:         0.0000100
 RHS vector:                    0.00
 Hamiltonian shift:             0.0000000
 Output threshold:              0.0500000
 Options:                        0
 Number of roots:             1

 Hamiltonian diagonaliser entered at time 114266.95

 Initial configuration generated:
 1496473      1.0000000   -108.2778486

 It  Tr    CPU  Convergence   Energy       Pop     dE(next)

  1   1*******  1.00000000  -108.27784862
                                           0.00 -0.51277754 -0.51277753
  2   1*******  0.46493050  -108.62183134
                                           0.00 -0.11818963 -0.11817615
  3   1*******  0.20576353  -108.71273611
                                           0.00 -0.03800257 -0.03793327
  4   1*******  0.10609866  -108.73708570
                                           0.00 -0.02378661 -0.02369675
  5   1*******  0.07868145  -108.74927337
                                           0.01 -0.01182185 -0.01174434
  6   1*******  0.08652303  -108.76034374
                                           0.01 -0.00923967 -0.00914756
  7   1*******  0.10833164  -108.77366615
                                           0.01 -0.01356181 -0.01342913
  8   1*******  0.16122822  -108.80185572
                                           0.01 -0.03341826 -0.03318414
  9   1*******  0.17394062  -108.85268200
                                           0.01 -0.03652992 -0.03627789
 10   1*******  0.15729676  -108.89777523
                                           0.01 -0.02305281 -0.02286632
 11   1*******  0.11991555  -108.92489977
                                           0.01 -0.01639876 -0.01623871
 12   1*******  0.09017334  -108.94288050
                                           0.01 -0.01280351 -0.01266179
 13   1*******  0.07191172  -108.95575723
                                           0.02 -0.00819493 -0.00809012
 14   1*******  0.04870393  -108.96288554
                                           0.02 -0.00409331 -0.00402979
 15   1*******  0.02963557  -108.96596238
                                           0.03 -0.00131514 -0.00128686
 16   1*******  0.01845741  -108.96712489
                                           0.03 -0.00041636 -0.00040452
 17   1*******  0.01007900  -108.96748577
                                           0.04 -0.00019117 -0.00018418
 18   1*******  0.00687906  -108.96764574
                                           0.04 -0.00010495 -0.00010012
 19   1*******  0.00609418  -108.96774885
                                           0.06 -0.00005793 -0.00005491
 20   1*******  0.00454400  -108.96780824
                                           0.07 -0.00003343 -0.00003152
 21   1*******  0.00235682  -108.96783368
                                           0.09 -0.00001587 -0.00001475
 22   1*******  0.00156906  -108.96784554
                                           0.10 -0.00000542 -0.00000496
 23   1*******  0.00101042  -108.96784992
                                           0.12 -0.00000187 -0.00000169
 24   1*******  0.00064536  -108.96785152
                                           0.12 -0.00000078 -0.00000070
 25   1*******  0.00039960  -108.96785212
                                           0.13 -0.00000038 -0.00000033
 26   1*******  0.00027802  -108.96785241
                                           0.16 -0.00000019 -0.00000016
 27   1*******  0.00020706  -108.96785257
                                           0.17 -0.00000009 -0.00000008
 28   1*******  0.00013299  -108.96785265
                                           0.18 -0.00000004 -0.00000004
 29   1*******  0.00008578  -108.96785268
                                           0.17 -0.00000002 -0.00000002
 30   1*******  0.00005535  -108.96785269
                                           0.18 -0.00000001 -0.00000001
 31   1*******  0.00003724  -108.96785270
                                           0.19 -0.00000000 -0.00000000
 32   1*******  0.00002695  -108.96785270
                                           0.18 -0.00000000 -0.00000000
 33   1*******  0.00002038  -108.96785271
                                           0.15 -0.00000000 -0.00000000
 34   1*******  0.00001891  -108.96785271
                                           0.13 -0.00000000 -0.00000000
 35   1*******  0.00002016  -108.96785271
                                           0.17 -0.00000000 -0.00000000
 36   1*******  0.00002373  -108.96785271
                                           0.19 -0.00000000 -0.00000000
 37   1*******  0.00002743  -108.96785271
                                           0.17 -0.00000000 -0.00000000
 38   1*******  0.00003033  -108.96785271
                                           0.17 -0.00000000 -0.00000000
 39   1*******  0.00003000  -108.96785272
                                           0.17 -0.00000000 -0.00000000
 40   1*******  0.00002639  -108.96785272
                                           0.15 -0.00000000 -0.00000000
 41   1*******  0.00002298  -108.96785272
                                           0.17 -0.00000000 -0.00000000
 42   1*******  0.00002007  -108.96785272
                                           0.18 -0.00000000 -0.00000000
 43   1*******  0.00001497  -108.96785272
                                           0.21 -0.00000000 -0.00000000
 44   1*******  0.00001019  -108.96785272
                                           0.23 -0.00000000 -0.00000000
 45   1*******  0.00000632  -108.96785272


RESULTS FOR STATE  1.1
=====================

 Correlation energy                    -0.690004104268
 !FCI STATE 1.1 Energy               -108.967852722947
 CI Vector (threshold= 0.500E-01)
       0.197057437372  1  2  3  4  9 16 22  1  2  3  4 12 16 25
      -0.050884631948  1  2  3  4  9 16 22  1  2  3  4 12 16 26
      -0.050884639887  1  2  3  4  9 16 23  1  2  3  4 12 16 25
       0.197057437372  1  2  3  4 12 16 25  1  2  3  4  9 16 22
      -0.050884639887  1  2  3  4 12 16 25  1  2  3  4  9 16 23
      -0.050884631948  1  2  3  4 12 16 26  1  2  3  4  9 16 22
      -0.121994581658  1  2  3  4  9 16 17  1  2  3  9 12 16 25
      -0.121994581658  1  2  3  9 12 16 25  1  2  3  4  9 16 17
       0.121995128642  1  2  3  4 12 16 17  1  2  3  9 12 16 22
       0.121995128642  1  2  3  9 12 16 22  1  2  3  4 12 16 17
      -0.304875189200  1  2  3  4  9 16 25  1  2  3  4  9 16 25
       0.080185560318  1  2  3  4  9 16 25  1  2  3  4  9 16 26
       0.104915691955  1  2  3  4  9 16 25  1  2  3  4 12 16 22
      -0.073959822457  1  2  3  4  9 16 25  1  2  3  9 12 16 17
       0.080185560318  1  2  3  4  9 16 26  1  2  3  4  9 16 25
       0.104915691955  1  2  3  4 12 16 22  1  2  3  4  9 16 25
      -0.304876801500  1  2  3  4 12 16 22  1  2  3  4 12 16 22
       0.080185990315  1  2  3  4 12 16 22  1  2  3  4 12 16 23
       0.073959333408  1  2  3  4 12 16 22  1  2  3  9 12 16 17
       0.080185990315  1  2  3  4 12 16 23  1  2  3  4 12 16 22
      -0.073959822457  1  2  3  9 12 16 17  1  2  3  4  9 16 25
       0.073959333408  1  2  3  9 12 16 17  1  2  3  4 12 16 22
      -0.161099423809  1  2  3  9 12 16 17  1  2  3  9 12 16 17
       0.052024613311  1  2  3  9 12 16 17  1  2  3  9 12 16 18
       0.052024613311  1  2  3  9 12 16 18  1  2  3  9 12 16 17
      -0.107612029597  1  2  3 16 17 22 25  1  2  3 16 17 22 25
      -0.082482270200  1  2  3  9 16 17 22  1  2  3 12 16 17 25
      -0.082482270200  1  2  3 12 16 17 25  1  2  3  9 16 17 22
       0.091811856078  1  2  3  4 16 17 22  1  2  3 12 16 22 25
       0.091811856078  1  2  3 12 16 22 25  1  2  3  4 16 17 22
      -0.091811660804  1  2  3  4 16 17 25  1  2  3  9 16 22 25
      -0.091811660804  1  2  3  9 16 22 25  1  2  3  4 16 17 25
       0.442758874997  1  2  3  4  9 12 16  1  2  3  4  9 12 16
       0.092145664302  1  2  3  4  9 12 16  1  2  3  4 16 22 25
       0.092145664302  1  2  3  4 16 22 25  1  2  3  4  9 12 16
       0.220687360300  1  2  3  4 16 22 25  1  2  3  4 16 22 25
      -0.058066415605  1  2  3  4 16 22 25  1  2  3  4 16 22 26
      -0.058066357224  1  2  3  4 16 22 25  1  2  3  4 16 23 25
      -0.056268629029  1  2  3  4 16 22 25  1  2  3  9 16 17 25
       0.056268938556  1  2  3  4 16 22 25  1  2  3 12 16 17 22
      -0.058066415605  1  2  3  4 16 22 26  1  2  3  4 16 22 25
      -0.058066357224  1  2  3  4 16 23 25  1  2  3  4 16 22 25
      -0.056268629029  1  2  3  9 16 17 25  1  2  3  4 16 22 25
       0.127773387729  1  2  3  9 16 17 25  1  2  3  9 16 17 25
       0.056268938556  1  2  3 12 16 17 22  1  2  3  4 16 22 25
       0.127774206634  1  2  3 12 16 17 22  1  2  3 12 16 17 22
 /EOF
 !FCI STATE 1.1 Dipole moment           0.00000000     0.00000000     0.00000000
 Dipole moment /Debye                   0.00000000     0.00000000     0.00000000


 **********************************************************************************************************************************
 DATASETS  * FILE   NREC   LENGTH (MB)   RECORD NAMES
              1      21       28.76       500      610      700      900      950      970     1000      129      960     1100   
                                          VAR    BASINP    GEOM    SYMINP    ZMAT    AOBASIS   BASIS     P2S    ABASIS      S 
                                         1400     1410     1200     1210     1080     1600     1650     1300     1700     1380   
                                           T        V       H0       H01     AOSYM     SMH    MOLCAS    ERIS     OPER     JKOP   
                                         7000   
                                        PAPT AO    

              2       5        0.48       700     1000      520     2100     7000   
                                         GEOM     BASIS   MCVARS     RHF     PAPT   

 PROGRAMS   *        TOTAL       FCI   CCSD(T)       MP4      PAPT       MP3      PAPT       MP2      PAPT   CCSD(T)       MP4
 CPU TIMES  *    143202.96  28936.13      0.18      0.05      0.05      0.05      0.05      0.04      0.04      0.11      0.03
 REAL TIME  *    290390.88 SEC
 DISK USED  *       366.78 GB
 **********************************************************************************************************************************
 SETTING EFCI(8)        =      -108.96785272  AU                              

 Dump information in style XML to xml output                                                                      


 No redundancy group numbers found for orbital set 0

 **********************************************************************************************************************************

 FCI/cc-pVDZ energy=   -108.967852722947

             FCI         CCSD(T)             MP4            PAPT             MP3            PAPT             MP2            PAPT
   -108.96785272   -109.07405857   -108.82984026   -108.74318299   -108.74318299   -108.73547100   -108.74555716   -107.91959681
 **********************************************************************************************************************************
 Molpro calculation terminated
