
 Working directory              : /var/folders/2v/xbgp75_9785319ghcgb4zr4r0000gp/T//molpro.2EJqyqXWUM/
 Global scratch directory       : /var/folders/2v/xbgp75_9785319ghcgb4zr4r0000gp/T//molpro.2EJqyqXWUM/
 Wavefunction directory         : /Users/sacpjk/wfu/
 Main file repository           : /var/folders/2v/xbgp75_9785319ghcgb4zr4r0000gp/T//molpro.2EJqyqXWUM/

 id        : peterk

 Nodes                        nprocs
 Cardiff-University-G34YLXT77Y    1
 GA implementation: MPI file
 GA implementation (serial work in mppx): MPI file

 Using customized tuning parameters: mindgm=1; mindgv=20; mindgc=4; mindgr=1; noblas=0; minvec=7
 default implementation of scratch files=df  


 Variables initialized (1032), CPU time= 0.00 sec
 
 symmetry,nosym
 
 
 geometry={
           14
     C         -0.29185967     -2.89452203      0.00000000
     H          0.66835967     -3.40596421      0.00000000
     H         -1.17802099     -3.52183225      0.00000000
     C         -0.37379871     -1.55391455      0.00000000
     H         -1.35953406     -1.09227639      0.00000000
     C          0.78456671     -0.67768724      0.00000000
     H          1.75028705     -1.18240342      0.00000000
     C          0.78456671      0.67768724      0.00000000
     H          1.75028705      1.18240342      0.00000000
     C         -0.37379870      1.55391455      0.00000000
     H         -1.35953406      1.09227639      0.00000000
     C         -0.29185967      2.89452203      0.00000000
     H          0.66835967      3.40596421      0.00000000
     H         -1.17802099      3.52183225      0.00000000
 }
 basis=cc-pVDZ
 
 
 
 hf; hf; papt; mp4
 
 
 
 {put,xml;noorbitals,nobasis}
 Commands initialized (841), CPU time= 0.01 sec, 704 directives.
 Default parameters read. Elapsed time= 0.78 sec

 Checking input...
 Passed
1


                                         ***  PROGRAM SYSTEM MOLPRO  ***
                                       Copyright, TTI GmbH Stuttgart, 2015
                                    Version 2023.1 linked Tue Jun  6 09:54:11 2023


 **********************************************************************************************************************************
 LABEL *                                                                                                                                                                 
  64 bit serial version                                                                  DATE: 11-Jun-23          TIME: 13:57:23  
 **********************************************************************************************************************************

 SHA1:             8ebb0dd001088a5c915591db1a321413035db0b1
 **********************************************************************************************************************************

 Memory per process:       393 MW
 Total memory per node:    524 MW
 Total GA space:           131 MW

 GA preallocation disabled
 GA check enabled

 Variable memory set to 393.2 MW

 ZSYMEL=NOSYM


 Geometry recognized as XYZ

 SETTING BASIS          =    CC-PVDZ


 Recomputing integrals since basis changed


 Using spherical harmonics

 Library entry C      S cc-pVDZ              selected for orbital group  1
 Library entry C      P cc-pVDZ              selected for orbital group  1
 Library entry C      D cc-pVDZ              selected for orbital group  1
 Library entry H      S cc-pVDZ              selected for orbital group  2
 Library entry H      P cc-pVDZ              selected for orbital group  2


 PROGRAM * SEWARD (Integral evaluation for generally contracted gaussian basis sets)     Author: Roland Lindh, 1990

 Geometry written to block  1 of record 700


 Point group  C1  



 ATOMIC COORDINATES

 NR  ATOM    CHARGE       X              Y              Z

   1  C       6.00   -0.551534843   -5.469853898    0.000000000
   2  H       1.00    1.263016729   -6.436339547    0.000000000
   3  H       1.00   -2.226137040   -6.655298409    0.000000000
   4  C       6.00   -0.706377188   -2.936472921    0.000000000
   5  H       1.00   -2.569147031   -2.064103229    0.000000000
   6  C       6.00    1.482616208   -1.280643282    0.000000000
   7  H       1.00    3.307563164   -2.234418633    0.000000000
   8  C       6.00    1.482616208    1.280643282    0.000000000
   9  H       1.00    3.307563164    2.234418633    0.000000000
  10  C       6.00   -0.706377169    2.936472921    0.000000000
  11  H       1.00   -2.569147031    2.064103229    0.000000000
  12  C       6.00   -0.551534843    5.469853898    0.000000000
  13  H       1.00    1.263016729    6.436339547    0.000000000
  14  H       1.00   -2.226137040    6.655298409    0.000000000

 Bond lengths in Bohr (Angstrom)

 1-2  2.055892000  1-3  2.051723960  1-4  2.538108613  4-5  2.056924978  4-6  2.744715628
     ( 1.087931195)     ( 1.085725563)     ( 1.343109237)     ( 1.088477823)     ( 1.452440961)

  6- 7  2.059154878   6- 8  2.561286564   8- 9  2.059154878   8-10  2.744715613  10-11  2.056924995
       ( 1.089657835)       ( 1.355374480)       ( 1.089657835)       ( 1.452440953)       ( 1.088477832)

 10-12  2.538108612  12-13  2.055892000  12-14  2.051723960
       ( 1.343109236)       ( 1.087931195)       ( 1.085725563)

 Bond angles

  1-4-5  118.59217940   1-4-6  123.60749590   2-1-3  116.66433886   2-1-4  121.53874401

  3-1-4  121.79691713   4-6-7  115.30188927   4-6-8  127.10511034   5-4-6  117.80032471

  6- 8- 9  117.59300039   6- 8-10  127.10511057   7- 6- 8  117.59300039   8-10-11  117.80032469

  8-10-12  123.60749656   9- 8-10  115.30188903  10-12-13  121.53874359  10-12-14  121.79691755

 11-10-12  118.59217875  13-12-14  116.66433886

 NUCLEAR CHARGE:                   44
 NUMBER OF PRIMITIVE AOS:         218
 NUMBER OF SYMMETRY AOS:          212
 NUMBER OF CONTRACTIONS:          124   (  124A   )
 NUMBER OF INNER CORE ORBITALS:     0   (    0A   )
 NUMBER OF OUTER CORE ORBITALS:     6   (    6A   )
 NUMBER OF VALENCE ORBITALS:       32   (   32A   )


 NUCLEAR REPULSION ENERGY  196.23621796

 EXTRA SYMMETRY OF AOS IN SYMMETRY 1:   1 1 1 1 1 2 1 1 2 1   1 2 1 2 1 1 1 1 2 1   1 1 1 2 1 1 1 1 1 2   1 1 2 1 1 2 1 2 1 1
                                        1 1 2 1 1 1 1 1 2 1   1 2 1 1 2 1 2 1 1 1   1 2 1 1 1 1 1 2 1 1   2 1 1 2 1 2 1 1 1 1
                                        2 1 1 1 1 1 2 1 1 2   1 1 2 1 2 1 1 1 1 2   1 1 1 1 1 2 1 1 2 1   1 2 1 2 1 1 1 1 2 1
                                        1 1 1 2

 Eigenvalues of metric

         1 0.873E-03 0.163E-02 0.257E-02 0.259E-02 0.434E-02 0.979E-02 0.149E-01 0.154E-01


 Contracted 2-electron integrals neglected if value below      1.0D-11
 AO integral compression algorithm  1   Integral accuracy      1.0D-11

     65.536 MB (compressed) written to integral file ( 26.9%)


 NUMBER OF SORTED TWO-ELECTRON INTEGRALS:   30035125.     BUFFER LENGTH:  32768
 NUMBER OF SEGMENTS:   2  SEGMENT LENGTH:   15997996      RECORD LENGTH: 524288

 Memory used in sort:      16.56 MW

 SORT1 READ    30522299. AND WROTE    13926297. INTEGRALS IN     40 RECORDS. CPU TIME:     0.21 SEC, REAL TIME:     0.26 SEC
 SORT2 READ    13926297. AND WROTE    30035125. INTEGRALS IN    250 RECORDS. CPU TIME:     0.22 SEC, REAL TIME:     0.25 SEC

 FILE SIZES:   FILE 1:    96.3 MBYTE,  FILE 4:   167.8 MBYTE,   TOTAL:    264.2 MBYTE

 OPERATOR DM      FOR CENTER  0  COORDINATES:    0.000000    0.000000    0.000000


 **********************************************************************************************************************************
 DATASETS  * FILE   NREC   LENGTH (MB)   RECORD NAMES
              1      19       82.23       500      610      700      900      950      970     1000      129      960     1100   
                                          VAR    BASINP    GEOM    SYMINP    ZMAT    AOBASIS   BASIS     P2S    ABASIS      S 
                                         1400     1410     1200     1210     1080     1600     1650     1300     1700   
                                           T        V       H0       H01     AOSYM     SMH    MOLCAS    ERIS     OPER   

 PROGRAMS   *        TOTAL       INT
 CPU TIMES  *         1.82      1.72
 REAL TIME  *         5.36 SEC
 DISK USED  *       252.50 MB
 **********************************************************************************************************************************


 Program * Restricted Hartree-Fock

 Orbital guess generated from atomic densities. Full valence occupancy:   38

 Initial occupancy:  22

 NELEC=   44   SYM=1   MS2= 0   THRE=1.0D-08   THRD=3.2D-06   THRG=3.2D-06  HFMA2=F  DIIS_START=2   DIIS_MAX=10   DIIS_INCORE=F

 Level shifts:    0.00 (CLOSED)    0.00 (OPEN)    0.30 (GAP_MIN)

 ITER           ETOT              DE          GRAD        DDIFF     DIIS  NEXP   TIME(IT)  TIME(TOT)  DIAG
   1     -231.76282099    -231.76282099     0.00D+00     0.96D-01     0     0       0.12      0.24    start
   2     -231.81967512      -0.05685413     0.39D-02     0.91D-02     1     0       0.13      0.37    diag
   3     -231.82502369      -0.00534857     0.12D-02     0.31D-02     2     0       0.13      0.50    diag
   4     -231.82569953      -0.00067584     0.40D-03     0.11D-02     3     0       0.13      0.63    diag
   5     -231.82572955      -0.00003002     0.86D-04     0.19D-03     4     0       0.13      0.76    diag
   6     -231.82573590      -0.00000634     0.32D-04     0.74D-04     5     0       0.12      0.88    diag
   7     -231.82573646      -0.00000056     0.87D-05     0.21D-04     6     0       0.13      1.01    diag
   8     -231.82573650      -0.00000004     0.28D-05     0.63D-05     7     0       0.13      1.14    fixocc
   9     -231.82573650      -0.00000000     0.57D-06     0.16D-05     8     0       0.12      1.26    diag
  10     -231.82573650      -0.00000000     0.14D-06     0.33D-06     0     0       0.13      1.39    diag/orth

 Final occupancy:  22

 !RHF STATE 1.1 Energy               -231.825736500771
  RHF One-electron energy            -699.899236265300
  RHF Two-electron energy             271.837281807203
  RHF Kinetic energy                  231.465284008412
  RHF Nuclear energy                  196.236217957326
  RHF Virial quotient                  -1.001557263734

 !RHF STATE 1.1 Dipole moment          -0.02373404     0.00000000     0.00000000
 Dipole moment /Debye                  -0.06032592     0.00000001     0.00000000

 Orbital energies:

           1.1          2.1          3.1          4.1          5.1          6.1          7.1          8.1          9.1         10.1
    -11.245212   -11.245074   -11.244273   -11.242945   -11.238151   -11.238151    -1.108234    -1.055029    -0.982318    -0.843572

          11.1         12.1         13.1         14.1         15.1         16.1         17.1         18.1         19.1         20.1
     -0.792198    -0.724455    -0.669671    -0.630421    -0.595861    -0.562302    -0.543238    -0.523208    -0.478074    -0.464440

          21.1         22.1         23.1         24.1
     -0.392981    -0.292532     0.091688     0.182071


 HOMO     22.1    -0.292532 =      -7.9602eV
 LUMO     23.1     0.091688 =       2.4950eV
 LUMO-HOMO         0.384220 =      10.4552eV

 Orbitals saved in record  2100.2


 **********************************************************************************************************************************
 DATASETS  * FILE   NREC   LENGTH (MB)   RECORD NAMES
              1      19       82.23       500      610      700      900      950      970     1000      129      960     1100   
                                          VAR    BASINP    GEOM    SYMINP    ZMAT    AOBASIS   BASIS     P2S    ABASIS      S 
                                         1400     1410     1200     1210     1080     1600     1650     1300     1700   
                                           T        V       H0       H01     AOSYM     SMH    MOLCAS    ERIS     OPER   

              2       4        0.84       700     1000      520     2100   
                                         GEOM     BASIS   MCVARS     RHF  

 PROGRAMS   *        TOTAL    HF-SCF       INT
 CPU TIMES  *         3.21      1.39      1.72
 REAL TIME  *         7.98 SEC
 DISK USED  *       252.50 MB
 **********************************************************************************************************************************


 Program * Restricted Hartree-Fock

 Molecular orbitals read from record     2100.2  Type=RHF/CANONICAL  

 Initial occupancy:  22

 NELEC=   44   SYM=1   MS2= 0   THRE=1.0D-08   THRD=3.2D-06   THRG=3.2D-06  HFMA2=F  DIIS_START=2   DIIS_MAX=10   DIIS_INCORE=F

 Level shifts:    0.00 (CLOSED)    0.00 (OPEN)    0.30 (GAP_MIN)

 ITER           ETOT              DE          GRAD        DDIFF     DIIS  NEXP   TIME(IT)  TIME(TOT)  DIAG
   1     -231.82573650    -231.82573650     0.00D+00     0.97D-01     0     0       0.13      0.13    start
   2     -231.82573650      -0.00000000     0.54D-07     0.14D-06     1     0       0.12      0.25    diag

 Final occupancy:  22

 !RHF STATE 1.1 Energy               -231.825736500795
  RHF One-electron energy            -699.899221913576
  RHF Two-electron energy             271.837267455455
  RHF Kinetic energy                  231.465283164225
  RHF Nuclear energy                  196.236217957326
  RHF Virial quotient                  -1.001557267386

 !RHF STATE 1.1 Dipole moment          -0.02373425     0.00000000     0.00000000
 Dipole moment /Debye                  -0.06032644     0.00000001     0.00000000

 Orbital energies:

           1.1          2.1          3.1          4.1          5.1          6.1          7.1          8.1          9.1         10.1
    -11.245211   -11.245073   -11.244272   -11.242945   -11.238152   -11.238152    -1.108234    -1.055029    -0.982318    -0.843572

          11.1         12.1         13.1         14.1         15.1         16.1         17.1         18.1         19.1         20.1
     -0.792198    -0.724455    -0.669671    -0.630420    -0.595861    -0.562302    -0.543238    -0.523208    -0.478074    -0.464440

          21.1         22.1         23.1         24.1
     -0.392981    -0.292532     0.091688     0.182071


 HOMO     22.1    -0.292532 =      -7.9602eV
 LUMO     23.1     0.091688 =       2.4950eV
 LUMO-HOMO         0.384220 =      10.4552eV

 Orbitals saved in record  2101.2


 **********************************************************************************************************************************
 DATASETS  * FILE   NREC   LENGTH (MB)   RECORD NAMES
              1      19       82.23       500      610      700      900      950      970     1000      129      960     1100   
                                          VAR    BASINP    GEOM    SYMINP    ZMAT    AOBASIS   BASIS     P2S    ABASIS      S 
                                         1400     1410     1200     1210     1080     1600     1650     1300     1700   
                                           T        V       H0       H01     AOSYM     SMH    MOLCAS    ERIS     OPER   

              2       5        1.36       700     1000      520     2100     2101   
                                         GEOM     BASIS   MCVARS     RHF      RHF  

 PROGRAMS   *        TOTAL    HF-SCF    HF-SCF       INT
 CPU TIMES  *         3.49      0.28      1.39      1.72
 REAL TIME  *        10.25 SEC
 DISK USED  *       252.50 MB
 **********************************************************************************************************************************


 PROGRAM * PAPT (Closed-shell)     Authors: C. Hampel, H.-J. Werner, 1991, P.J. Knowles, 2021


 Convergence thresholds:  THRVAR = 1.00D-08  THRDEN = 1.00D-06

 Number of core orbitals:           6 (   6 )
 Number of closed-shell orbitals:  16 (  16 )
 Number of external orbitals:     102 ( 102 )

 Molecular orbitals read from record     2101.2  Type=RHF/CANONICAL  

 Number of N-1 electron functions:              16
 Number of N-2 electron functions:             136
 Number of singly external CSFs:              1632
 Number of doubly external CSFs:           1332528
 Total number of CSFs:                     1334161

 Length of J-op  integral file:               0.00 MB
 Length of K-op  integral file:               1.12 MB

 Integral transformation finished. Total CPU:   0.41 sec, npass=  1  Memory used:   3.76 MW

 Reference energy:                   -231.82573650

                        CORR.ENERGY   TOTAL ENERGY   ENERGY CHANGE
 MP2:                   -0.79679901  -232.62253551    -0.79679901

 SCS-MP2 correlation energy:           -0.78870393   (PS=  1.200000  PT=  0.333333)
 SCS-MP2 total energy:               -232.61444043
 Iteration:   1     0.2785D+00
 Iteration:   2     0.4586D+01
 Iteration:   3     0.1085D+00
 Iteration:   4     0.4992D+00
 Iteration:   5     0.3321D-01
 Iteration:   6     0.3296D-01
 Iteration:   7     0.2689D-01
 Iteration:   8     0.5852D-02
 Iteration:   9     0.1075D-01
 Iteration:  10     0.1905D-02
 Iteration:  11     0.1967D-02
 Iteration:  12     0.1273D-02
 Iteration:  13     0.6698D-03
 Iteration:  14     0.1315D-02
 Iteration:  15     0.1540D-03
 Iteration:  16     0.2947D-03
 Iteration:  17     0.5115D-04
 PAPT operator written to  7000.1
 PAPT orbitals and eigenvalues written to  7000.2

 MP3(D):                -0.84898760  -232.67472410    -0.05218859



 RESULTS
 =======

  Reference energy                   -231.825736500795
  MP3 singlet pair energy              -0.575130020520
  MP3 triplet pair energy              -0.273857577654
  MP3 correlation energy               -0.848987598175

 !MP3 total energy                   -232.674724098969

 Timing summary (sec):

 STEP                 CPU(USER)    SYS     CPU(TOT)    WALL
 Transformation          0.44      0.04      0.48      0.59
 CCSD iterations         9.65      0.13      9.78     10.02

 Program statistics:

 Available memory in ccsd:               393214954
 Min. memory needed in ccsd:               3503679
 Max. memory used in ccsd:                 4674239
 Max. memory used in cckext:               4389341 ( 1 integral passes)



 **********************************************************************************************************************************
 DATASETS  * FILE   NREC   LENGTH (MB)   RECORD NAMES
              1      21      106.53       500      610      700      900      950      970     1000      129      960     1100   
                                          VAR    BASINP    GEOM    SYMINP    ZMAT    AOBASIS   BASIS     P2S    ABASIS      S 
                                         1400     1410     1200     1210     1080     1600     1650     1300     1700     1380   
                                           T        V       H0       H01     AOSYM     SMH    MOLCAS    ERIS     OPER     JKOP   
                                         7000   
                                        PAPT AO    

              2       6        1.81       700     1000      520     2100     2101     7000   
                                         GEOM     BASIS   MCVARS     RHF      RHF     PAPT   

 PROGRAMS   *        TOTAL      PAPT    HF-SCF    HF-SCF       INT
 CPU TIMES  *         9.99      6.50      0.28      1.39      1.72
 REAL TIME  *        22.97 SEC
 DISK USED  *       252.50 MB
 **********************************************************************************************************************************


 PROGRAM * MP4 (Closed-shell)     Authors: C. Hampel, H.-J. Werner, 1991, M. Deegan, P.J. Knowles, 1992


 Convergence thresholds:  THRVAR = 1.00D-08  THRDEN = 1.00D-06

 MP4(T)     terms to be evaluated (factor= 0.000)


 Number of core orbitals:           6 (   6 )
 Number of closed-shell orbitals:  16 (  16 )
 Number of external orbitals:     102 ( 102 )

 Molecular orbitals read from record     7000.2  Type=PAPT/CANONICAL (state 1.1)

 Number of N-1 electron functions:              16
 Number of N-2 electron functions:             136
 Number of singly external CSFs:              1632
 Number of doubly external CSFs:           1332528
 Total number of CSFs:                     1334161

 Length of J-op  integral file:               0.00 MB
 Length of K-op  integral file:               1.12 MB

 Memory could be reduced to 23.10 Mwords without degradation in triples

 Integral transformation finished. Total CPU:   0.96 sec, npass=  1  Memory used:  20.10 MW
 Orbital energies read from record       7000.2  Type=PAPT/CANONICAL (state 1.1)

 Reference energy:                   -231.82573650

                        CORR.ENERGY   TOTAL ENERGY   ENERGY CHANGE
 MP2:                   -0.85952330  -232.68525981    -0.85952330

 SCS-MP2 correlation energy:           -0.85678837   (PS=  1.200000  PT=  0.333333)
 SCS-MP2 total energy:               -232.68252487

 MP3(D):                -0.86015174  -232.68588824    -0.00062843
 MP4(DQ):               -0.85110421  -232.67684071     0.00904753
 MP4(SDQ):              -0.85822354  -232.68396004    -0.00711933

 Norm of t1 vector:      0.07446068      S-energy:    -0.00711933      T1 diagnostic:  0.00930758

 Largest off-diagonal element in interal  block of Fock matrix:  0.11D+00
 Largest off-diagonal element in external block of Fock matrix:  0.10D+00


 Total CPU time for triples:     28.59 sec


 RESULTS
 =======

  Reference energy                   -231.825736500794
  MP4(SDQ) singlet pair energy         -0.579291744735
  MP4(SDQ) triplet pair energy         -0.271812460394
  MP4(SDQ) correlation energy          -0.858223539561

  Triples contribution                 -0.038814617566
  Total correlation energy             -0.897038157127

  MP4(SDQ) total energy              -232.683960040355
 !MP4(SDTQ) total energy             -232.722774657921

 Timing summary (sec):

 STEP                 CPU(USER)    SYS     CPU(TOT)    WALL
 Transformation          1.15      0.14      1.29      1.67
 CCSD iterations        13.11      0.11     13.22      4.60
 Triples                28.59      1.99     30.58     33.44

 Program statistics:

 Available memory in ccsd:               393214954
 Min. memory needed in ccsd:               3503679
 Max. memory used in ccsd:                 4674239
 Max. memory used in cckext:               4389341 ( 1 integral passes)



 **********************************************************************************************************************************
 DATASETS  * FILE   NREC   LENGTH (MB)   RECORD NAMES
              1      22      171.93       500      610      700      900      950      970     1000      129      960     1100   
                                          VAR    BASINP    GEOM    SYMINP    ZMAT    AOBASIS   BASIS     P2S    ABASIS      S 
                                         1400     1410     1200     1210     1080     1600     1650     1300     1700     1380   
                                           T        V       H0       H01     AOSYM     SMH    MOLCAS    ERIS     OPER     JKOP   
                                         7000     1380(1)
                                        PAPT AO   JKOP   

              2       6        1.81       700     1000      520     2100     2101     7000   
                                         GEOM     BASIS   MCVARS     RHF      RHF     PAPT   

 PROGRAMS   *        TOTAL       MP4      PAPT    HF-SCF    HF-SCF       INT
 CPU TIMES  *        42.75     32.76      6.50      0.28      1.39      1.72
 REAL TIME  *        63.41 SEC
 DISK USED  *       322.39 MB
 **********************************************************************************************************************************

 Dump information in style XML to xml output                                                                      

 Orbitals will not be exported.

 **********************************************************************************************************************************

 MP4/cc-pVDZ energy=   -232.722774657921

             MP4            PAPT          HF-SCF          HF-SCF
   -232.72277466   -232.67472410   -231.82573650   -231.82573650
 **********************************************************************************************************************************
 Molpro calculation terminated
