
 Working directory              : /var/folders/2v/xbgp75_9785319ghcgb4zr4r0000gp/T//molpro.ZpDPUbMu91/
 Global scratch directory       : /var/folders/2v/xbgp75_9785319ghcgb4zr4r0000gp/T//molpro.ZpDPUbMu91/
 Wavefunction directory         : /Users/sacpjk/wfu/
 Main file repository           : /var/folders/2v/xbgp75_9785319ghcgb4zr4r0000gp/T//molpro.ZpDPUbMu91/

 id        : peterk

 Nodes                        nprocs
 Cardiff-University-G34YLXT77Y    1
 GA implementation: MPI file
 GA implementation (serial work in mppx): MPI file

 Using customized tuning parameters: mindgm=1; mindgv=20; mindgc=4; mindgr=1; noblas=0; minvec=7
 default implementation of scratch files=df  


 Variables initialized (1032), CPU time= 0.00 sec
 
 symmetry,nosym
 
 
 geometry={
            6
     C          0.96745826     -0.11636709      0.00000000
     N         -0.30997205     -0.08985970      0.00000000
     C         -1.52110730     -0.22012413      0.00000000
     H          1.50098112     -0.12812485      0.94177700
     H          1.50098112     -0.12812485     -0.94177700
     H         -2.13834115      0.68260062      0.00000000
 }
 basis=cc-pVDZ
 
 
 
 hf; ccsd
 
 
 
 {put,xml;noorbitals,nobasis}
 Commands initialized (841), CPU time= 0.01 sec, 704 directives.
 Default parameters read. Elapsed time= 0.06 sec

 Checking input...
 Passed
1


                                         ***  PROGRAM SYSTEM MOLPRO  ***
                                       Copyright, TTI GmbH Stuttgart, 2015
                                    Version 2023.1 linked Tue Jun  6 09:54:11 2023


 **********************************************************************************************************************************
 LABEL *                                                                                                                                                                 
  64 bit serial version                                                                  DATE: 11-Jun-23          TIME: 07:18:13  
 **********************************************************************************************************************************

 SHA1:             8ebb0dd001088a5c915591db1a321413035db0b1
 **********************************************************************************************************************************

 Memory per process:       393 MW
 Total memory per node:    524 MW
 Total GA space:           131 MW

 GA preallocation disabled
 GA check enabled

 Variable memory set to 393.2 MW

 ZSYMEL=NOSYM


 Geometry recognized as XYZ

 SETTING BASIS          =    CC-PVDZ


 Recomputing integrals since basis changed


 Using spherical harmonics

 Library entry C      S cc-pVDZ              selected for orbital group  1
 Library entry C      P cc-pVDZ              selected for orbital group  1
 Library entry C      D cc-pVDZ              selected for orbital group  1
 Library entry N      S cc-pVDZ              selected for orbital group  2
 Library entry N      P cc-pVDZ              selected for orbital group  2
 Library entry N      D cc-pVDZ              selected for orbital group  2
 Library entry H      S cc-pVDZ              selected for orbital group  4
 Library entry H      P cc-pVDZ              selected for orbital group  4


 PROGRAM * SEWARD (Integral evaluation for generally contracted gaussian basis sets)     Author: Roland Lindh, 1990

 Geometry written to block  1 of record 700


 Point group  C1  



 ATOMIC COORDINATES

 NR  ATOM    CHARGE       X              Y              Z

   1  C       6.00    1.828231148   -0.219901930    0.000000000
   2  N       7.00   -0.585762281   -0.169810223    0.000000000
   3  C       6.00   -2.874476203   -0.415974319    0.000000000
   4  H       1.00    2.836443235   -0.242120876    1.779700600
   5  H       1.00    2.836443235   -0.242120876   -1.779700600
   6  H       1.00   -4.040879135    1.289928224    0.000000000

 Bond lengths in Bohr (Angstrom)

 1-2  2.414513089  1-4  2.045560931  1-5  2.045560931  2-3  2.301914026  3-6  2.066542834
     ( 1.277705302)     ( 1.082464228)     ( 1.082464228)     ( 1.218120444)     ( 1.093567373)

 Bond angles

  1-2-3  172.67236630   2-1-4  119.53777769   2-1-5  119.53777769   2-3-6  118.22330183

  4-1-5  120.92439085

 NUCLEAR CHARGE:                   22
 NUMBER OF PRIMITIVE AOS:         102
 NUMBER OF SYMMETRY AOS:           99
 NUMBER OF CONTRACTIONS:           57   (   57A   )
 NUMBER OF INNER CORE ORBITALS:     0   (    0A   )
 NUMBER OF OUTER CORE ORBITALS:     3   (    3A   )
 NUMBER OF VALENCE ORBITALS:       15   (   15A   )


 NUCLEAR REPULSION ENERGY   61.10533246


 Eigenvalues of metric

         1 0.681E-02 0.724E-02 0.167E-01 0.217E-01 0.273E-01 0.363E-01 0.416E-01 0.453E-01


 Contracted 2-electron integrals neglected if value below      1.0D-11
 AO integral compression algorithm  1   Integral accuracy      1.0D-11

     5.767 MB (compressed) written to integral file ( 43.4%)


 NUMBER OF SORTED TWO-ELECTRON INTEGRALS:    1367031.     BUFFER LENGTH:  32768
 NUMBER OF SEGMENTS:   1  SEGMENT LENGTH:    1367031      RECORD LENGTH: 524288

 Memory used in sort:       1.92 MW

 SORT1 READ     1637414. AND WROTE     1048719. INTEGRALS IN      4 RECORDS. CPU TIME:     0.01 SEC, REAL TIME:     0.02 SEC
 SORT2 READ     1048719. AND WROTE     1367031. INTEGRALS IN     22 RECORDS. CPU TIME:     0.04 SEC, REAL TIME:     0.05 SEC

 FILE SIZES:   FILE 1:    36.0 MBYTE,  FILE 4:    16.8 MBYTE,   TOTAL:     52.8 MBYTE

 OPERATOR DM      FOR CENTER  0  COORDINATES:    0.000000    0.000000    0.000000


 **********************************************************************************************************************************
 DATASETS  * FILE   NREC   LENGTH (MB)   RECORD NAMES
              1      19       33.30       500      610      700      900      950      970     1000      129      960     1100   
                                          VAR    BASINP    GEOM    SYMINP    ZMAT    AOBASIS   BASIS     P2S    ABASIS      S 
                                         1400     1410     1200     1210     1080     1600     1650     1300     1700   
                                           T        V       H0       H01     AOSYM     SMH    MOLCAS    ERIS     OPER   

 PROGRAMS   *        TOTAL       INT
 CPU TIMES  *         0.31      0.21
 REAL TIME  *         0.55 SEC
 DISK USED  *        50.77 MB
 **********************************************************************************************************************************


 Program * Restricted Hartree-Fock

 Orbital guess generated from atomic densities. Full valence occupancy:   18

 Initial occupancy:  11

 NELEC=   22   SYM=1   MS2= 0   THRE=1.0D-08   THRD=3.2D-06   THRG=3.2D-06  HFMA2=F  DIIS_START=2   DIIS_MAX=10   DIIS_INCORE=F

 Level shifts:    0.00 (CLOSED)    0.00 (OPEN)    0.30 (GAP_MIN)

 ITER           ETOT              DE          GRAD        DDIFF     DIIS  NEXP   TIME(IT)  TIME(TOT)  DIAG
   1     -131.79517480    -131.79517480     0.00D+00     0.14D+00     0     0       0.00      0.01    start
   2     -131.82052268      -0.02534788     0.58D-02     0.13D-01     1     0       0.01      0.02    diag
   3     -131.82635014      -0.00582746     0.31D-02     0.51D-02     2     0       0.01      0.03    diag
   4     -131.82881971      -0.00246957     0.13D-02     0.30D-02     3     0       0.00      0.03    diag
   5     -131.82942015      -0.00060044     0.49D-03     0.15D-02     4     0       0.01      0.04    diag
   6     -131.82958643      -0.00016628     0.29D-03     0.97D-03     5     0       0.01      0.05    diag
   7     -131.82959968      -0.00001324     0.83D-04     0.31D-03     6     0       0.00      0.05    diag
   8     -131.82960017      -0.00000049     0.20D-04     0.58D-04     7     0       0.01      0.06    fixocc
   9     -131.82960019      -0.00000003     0.47D-05     0.13D-04     8     0       0.01      0.07    diag
  10     -131.82960020      -0.00000000     0.14D-05     0.43D-05     9     0       0.01      0.08    diag/orth
  11     -131.82960020      -0.00000000     0.33D-06     0.11D-05     9     0       0.00      0.08    diag
  12     -131.82960020      -0.00000000     0.87D-07     0.20D-06     0     0       0.01      0.09    diag

 Final occupancy:  11

 !RHF STATE 1.1 Energy               -131.829600195702
  RHF One-electron energy            -297.990308396319
  RHF Two-electron energy             105.055375740817
  RHF Kinetic energy                  131.653078072579
  RHF Nuclear energy                   61.105332459801
  RHF Virial quotient                  -1.001340812731

 !RHF STATE 1.1 Dipole moment           0.55759254     0.58632160     0.00000000
 Dipole moment /Debye                   1.41725887     1.49028085     0.00000000

 Orbital energies:

           1.1          2.1          3.1          4.1          5.1          6.1          7.1          8.1          9.1         10.1
    -15.651998   -11.286895   -11.267763    -1.294675    -1.025265    -0.753288    -0.674009    -0.662255    -0.549818    -0.465990

          11.1         12.1         13.1
     -0.307823     0.136281     0.155301


 HOMO     11.1    -0.307823 =      -8.3763eV
 LUMO     12.1     0.136281 =       3.7084eV
 LUMO-HOMO         0.444104 =      12.0847eV

 Orbitals saved in record  2100.2


 **********************************************************************************************************************************
 DATASETS  * FILE   NREC   LENGTH (MB)   RECORD NAMES
              1      19       33.30       500      610      700      900      950      970     1000      129      960     1100   
                                          VAR    BASINP    GEOM    SYMINP    ZMAT    AOBASIS   BASIS     P2S    ABASIS      S 
                                         1400     1410     1200     1210     1080     1600     1650     1300     1700   
                                           T        V       H0       H01     AOSYM     SMH    MOLCAS    ERIS     OPER   

              2       4        0.51       700     1000      520     2100   
                                         GEOM     BASIS   MCVARS     RHF  

 PROGRAMS   *        TOTAL    HF-SCF       INT
 CPU TIMES  *         0.40      0.09      0.21
 REAL TIME  *         0.73 SEC
 DISK USED  *        50.77 MB
 **********************************************************************************************************************************


 PROGRAM * CCSD (Closed-shell coupled cluster)     Authors: C. Hampel, H.-J. Werner, 1991, M. Deegan, P.J. Knowles, 1992


 Convergence thresholds:  THRVAR = 1.00D-08  THRDEN = 1.00D-06

 Number of core orbitals:           3 (   3 )
 Number of closed-shell orbitals:   8 (   8 )
 Number of external orbitals:      46 (  46 )

 Molecular orbitals read from record     2100.2  Type=RHF/CANONICAL  

 Number of N-1 electron functions:               8
 Number of N-2 electron functions:              36
 Number of singly external CSFs:               368
 Number of doubly external CSFs:             67896
 Total number of CSFs:                       68265

 Length of J-op  integral file:               0.00 MB
 Length of K-op  integral file:               0.29 MB
 Length of 3-ext integral record:             0.00 MB

 Integral transformation finished. Total CPU:   0.04 sec, npass=  1  Memory used:   1.16 MW

 Reference energy:                   -131.82960020

 MP2 singlet pair energy:              -0.26624255
 MP2 triplet pair energy:              -0.16060037
 MP2 correlation energy:               -0.42684292
 MP2 total energy:                   -132.25644311

 SCS-MP2 correlation energy:           -0.41942018   (PS=  1.200000  PT=  0.333333)
 SCS-MP2 total energy:               -132.24902038

 ITER.      SQ.NORM     CORR.ENERGY   TOTAL ENERGY   ENERGY CHANGE        DEN1      VAR(S)    VAR(P)  DIIS     TIME  TIME/IT
   1      1.16978581    -0.44903640  -132.27863660    -0.02219348    -0.00615774  0.51D-02  0.36D-02  1  1     0.63     0.09
   2      1.18968475    -0.45256829  -132.28216848    -0.00353189    -0.01424665  0.26D-03  0.82D-03  2  2     0.70     0.10
   3      1.20269371    -0.45348186  -132.28308205    -0.00091357    -0.00418154  0.30D-03  0.59D-04  3  3     0.78     0.10
   4      1.21084456    -0.45375345  -132.28335365    -0.00027160    -0.00151730  0.54D-04  0.17D-04  4  4     0.86     0.11
   5      1.21602018    -0.45380638  -132.28340657    -0.00005292    -0.00065202  0.13D-04  0.32D-05  5  5     0.94     0.11
   6      1.21802812    -0.45378204  -132.28338224     0.00002433    -0.00014101  0.13D-05  0.71D-06  6  6     1.01     0.12
   7      1.21866557    -0.45377971  -132.28337991     0.00000233    -0.00004027  0.22D-06  0.13D-06  6  1     1.09     0.12
   8      1.21878756    -0.45377821  -132.28337840     0.00000150     0.00000667  0.25D-07  0.13D-07  6  2     1.16     0.12
   9      1.21885781    -0.45377645  -132.28337665     0.00000176    -0.00000675  0.32D-08  0.18D-08  6  3     1.23     0.11
  10      1.21884881    -0.45377647  -132.28337666    -0.00000002     0.00000261  0.51D-09  0.31D-09  6  4     1.31     0.12
  11      1.21885469    -0.45377627  -132.28337646     0.00000020    -0.00000014  0.60D-10  0.35D-10  6  5     1.39     0.12

 Norm of t1 vector:      0.15432332      S-energy:     0.00000070      T1 diagnostic:  0.02728077
                                                                       D1 diagnostic:  0.07993427
                                                                       D2 diagnostic:  0.20347505 (external, symmetry=1)

 Singles amplitudes (print threshold =  0.500E-01):

         I         SYM. A    A   T(IA)

         7         1         2      0.05717077
         8         1         1      0.05979198

 Doubles amplitudes (print threshold =  0.500E-01):

         I         J         SYM. A    SYM. B    A         B      T(IJ, AB)

         6         6         1         1         1         1     -0.05226527
         7         7         1         1         2         2     -0.06894394
         8         8         1         1         1         1     -0.11450095


 RESULTS
 =======

  Reference energy                   -131.829600195702
  CCSD singlet pair energy             -0.310318499731
  CCSD triplet pair energy             -0.143458470290
  CCSD correlation energy              -0.453776268116

 !CCSD total energy                  -132.283376463818

 Timing summary (sec):

 STEP                 CPU(USER)    SYS     CPU(TOT)    WALL
 Transformation          0.04      0.01      0.05      0.04
 CCSD iterations         1.36      0.07      1.43      1.33

 Program statistics:

 Available memory in ccsd:               393215733
 Min. memory needed in ccsd:                229940
 Max. memory used in ccsd:                  280492
 Max. memory used in cckext:                291848 (11 integral passes)



 **********************************************************************************************************************************
 DATASETS  * FILE   NREC   LENGTH (MB)   RECORD NAMES
              1      20       37.73       500      610      700      900      950      970     1000      129      960     1100   
                                          VAR    BASINP    GEOM    SYMINP    ZMAT    AOBASIS   BASIS     P2S    ABASIS      S 
                                         1400     1410     1200     1210     1080     1600     1650     1300     1700     1380   
                                           T        V       H0       H01     AOSYM     SMH    MOLCAS    ERIS     OPER     JKOP   

              2       4        0.51       700     1000      520     2100   
                                         GEOM     BASIS   MCVARS     RHF  

 PROGRAMS   *        TOTAL      CCSD    HF-SCF       INT
 CPU TIMES  *         1.30      0.90      0.09      0.21
 REAL TIME  *         2.13 SEC
 DISK USED  *        50.77 MB
 **********************************************************************************************************************************

 Dump information in style XML to xml output                                                                      

 Orbitals will not be exported.

 **********************************************************************************************************************************

 CCSD/cc-pVDZ energy=   -132.283376463818

            CCSD          HF-SCF
   -132.28337646   -131.82960020
 **********************************************************************************************************************************
 Molpro calculation terminated
