
 Working directory              : /var/folders/2v/xbgp75_9785319ghcgb4zr4r0000gp/T//molpro.BYcx3BN56j/
 Global scratch directory       : /var/folders/2v/xbgp75_9785319ghcgb4zr4r0000gp/T//molpro.BYcx3BN56j/
 Wavefunction directory         : /Users/sacpjk/wfu/
 Main file repository           : /var/folders/2v/xbgp75_9785319ghcgb4zr4r0000gp/T//molpro.BYcx3BN56j/

 id        : peterk

 Nodes                        nprocs
 Cardiff-University-G34YLXT77Y    1
 GA implementation: MPI file
 GA implementation (serial work in mppx): MPI file

 Using customized tuning parameters: mindgm=1; mindgv=20; mindgc=4; mindgr=1; noblas=0; minvec=7
 default implementation of scratch files=df  


 Variables initialized (1032), CPU time= 0.01 sec
 
 symmetry,nosym
 
 
 geometry={
 13
  n         -1.561581233218   -0.576912082023   -0.788367630087
  h         -0.571181756010   -0.789127207935   -0.816440103170
  h         -2.036568808421   -1.466458411756   -0.711532449360
  c         -1.843912492193    0.224839935233    0.399867016764
  h         -2.909756621017    0.439148249798    0.449654467683
  h         -1.548919569505   -0.228821022088    1.351838920679
  h         -1.331135739425    1.181261637184    0.315438988676
  o          1.616329513774   -0.580544257817   -0.717544959141
  h          1.898355632744   -0.210595493004   -1.557409039450
  c          2.002243361437    0.331040002870    0.301891202844
  h          1.679060312631   -0.098592669806    1.244957746889
  h          3.083298599779    0.470123471759    0.340931169682
  h          1.523768799743    1.304637847904    0.186714667674
 }
 basis=aug-cc-pVTZ
 
 
 
 hf; hf; papt; mp2
 
 
 
 {put,xml;noorbitals,nobasis}
 Commands initialized (841), CPU time= 0.00 sec, 704 directives.
 Default parameters read. Elapsed time= 0.07 sec

 Checking input...
 Passed
1


                                         ***  PROGRAM SYSTEM MOLPRO  ***
                                       Copyright, TTI GmbH Stuttgart, 2015
                                    Version 2023.1 linked Tue Jun  6 09:54:11 2023


 **********************************************************************************************************************************
 LABEL *                                                                                                                                                                 
  64 bit serial version                                                                  DATE: 09-Jun-23          TIME: 01:00:39  
 **********************************************************************************************************************************

 SHA1:             8ebb0dd001088a5c915591db1a321413035db0b1
 **********************************************************************************************************************************

 Memory per process:       805 MW
 Total memory per node:   1074 MW
 Total GA space:           268 MW

 GA preallocation disabled
 GA check enabled

 Variable memory set to 805.3 MW

 ZSYMEL=NOSYM


 Geometry recognized as XYZ

 SETTING BASIS          =    AUG-CC-PVTZ


 Recomputing integrals since basis changed


 Using spherical harmonics

 Library entry N      S aug-cc-pVTZ          selected for orbital group  1
 Library entry N      P aug-cc-pVTZ          selected for orbital group  1
 Library entry N      D aug-cc-pVTZ          selected for orbital group  1
 Library entry N      F aug-cc-pVTZ          selected for orbital group  1
 Library entry H      S aug-cc-pVTZ          selected for orbital group  2
 Library entry H      P aug-cc-pVTZ          selected for orbital group  2
 Library entry H      D aug-cc-pVTZ          selected for orbital group  2
 Library entry C      S aug-cc-pVTZ          selected for orbital group  3
 Library entry C      P aug-cc-pVTZ          selected for orbital group  3
 Library entry C      D aug-cc-pVTZ          selected for orbital group  3
 Library entry C      F aug-cc-pVTZ          selected for orbital group  3
 Library entry O      S aug-cc-pVTZ          selected for orbital group  5
 Library entry O      P aug-cc-pVTZ          selected for orbital group  5
 Library entry O      D aug-cc-pVTZ          selected for orbital group  5
 Library entry O      F aug-cc-pVTZ          selected for orbital group  5


 PROGRAM * SEWARD (Integral evaluation for generally contracted gaussian basis sets)     Author: Roland Lindh, 1990

 Geometry written to block  1 of record 700


 Point group  C1  



 ATOMIC COORDINATES

 NR  ATOM    CHARGE       X              Y              Z

   1  N       7.00   -2.950960852   -1.090205833   -1.489798906
   2  H       1.00   -1.079377086   -1.491234300   -1.542848192
   3  H       1.00   -3.848557282   -2.771204771   -1.344601458
   4  C       6.00   -3.484489608    0.424885899    0.755639148
   5  H       1.00   -5.498643103    0.829869920    0.849723795
   6  H       1.00   -2.927033775   -0.432409063    2.554605325
   7  H       1.00   -2.515481982    2.232260976    0.596093298
   8  O       8.00    3.054420108   -1.097069650   -1.355963455
   9  H       1.00    3.587372233   -0.397967805   -2.943076549
  10  C       6.00    3.783691588    0.625574942    0.570491693
  11  H       1.00    3.172964138   -0.186313144    2.352629178
  12  H       1.00    5.826589914    0.888404606    0.644266538
  13  H       1.00    2.879505709    2.465408224    0.352839585

 Bond lengths in Bohr (Angstrom)

 1-2  1.914801256  1-3  1.911156477  1-4  2.760823781  4-5  2.056618166  4-6  2.069297215
     ( 1.013269188)     ( 1.011340454)     ( 1.460965028)     ( 1.088315465)     ( 1.095024929)

  4- 7  2.056948061   8- 9  1.814306846   8-10  2.685250588  10-11  2.051381071  10-12  2.061056945
       ( 1.088490038)       ( 0.960089836)       ( 1.420973417)       ( 1.085544114)       ( 1.090664366)

 10-13  2.061531240
       ( 1.090915352)

 Bond angles

  1-4-5  109.54406629   1-4-6  115.31871979   1-4-7  109.15197352   2-1-3  106.07836563

  2-1-4  109.04774565   3-1-4  109.27730371   5-4-6  107.79679288   5-4-7  106.97091570

  6- 4- 7  107.73101274   8-10-11  106.76853260   8-10-12  112.12813205   8-10-13  112.18950395

  9- 8-10  107.49423241  11-10-12  108.32856604  11-10-13  108.32203169  12-10-13  108.94776655

 NUCLEAR CHARGE:                   36
 NUMBER OF PRIMITIVE AOS:         511
 NUMBER OF SYMMETRY AOS:          457
 NUMBER OF CONTRACTIONS:          391   (  391A   )
 NUMBER OF INNER CORE ORBITALS:     0   (    0A   )
 NUMBER OF OUTER CORE ORBITALS:     4   (    4A   )
 NUMBER OF VALENCE ORBITALS:       25   (   25A   )


 NUCLEAR REPULSION ENERGY  129.31867320


 Eigenvalues of metric

         1 0.190E-04 0.341E-04 0.383E-04 0.447E-04 0.507E-04 0.644E-04 0.738E-04 0.935E-04


 Contracted 2-electron integrals neglected if value below      1.0D-12
 AO integral compression algorithm  1   Integral accuracy      1.0D-12

     11783.111 MB (compressed) written to integral file ( 46.2%)


 NUMBER OF SORTED TWO-ELECTRON INTEGRALS: 2936576566.     BUFFER LENGTH:  32768
 NUMBER OF SEGMENTS:  92  SEGMENT LENGTH:   31999951      RECORD LENGTH: 262144

 Memory used in sort:      32.29 MW

 SORT1 READ  3185383571. AND WROTE  2642782553. INTEGRALS IN  15165 RECORDS. CPU TIME:    25.28 SEC, REAL TIME:    42.76 SEC
 SORT2 READ  2642782553. AND WROTE  2936576566. INTEGRALS IN  44949 RECORDS. CPU TIME:    14.90 SEC, REAL TIME:    80.41 SEC

 FILE SIZES:   FILE 1: 11818.9 MBYTE,  FILE 4: 31803.4 MBYTE,   TOTAL:  43622.3 MBYTE

 OPERATOR DM      FOR CENTER  0  COORDINATES:    0.000000    0.000000    0.000000


 **********************************************************************************************************************************
 DATASETS  * FILE   NREC   LENGTH (MB)   RECORD NAMES
              1      19    10466.80       500      610      700      900      950      970     1000      129      960     1100   
                                          VAR    BASINP    GEOM    SYMINP    ZMAT    AOBASIS   BASIS     P2S    ABASIS      S 
                                         1400     1410     1200     1210     1080     1600     1650     1300     1700   
                                           T        V       H0       H01     AOSYM     SMH    MOLCAS    ERIS     OPER   

 PROGRAMS   *        TOTAL       INT
 CPU TIMES  *        94.05     93.96
 REAL TIME  *       207.17 SEC
 DISK USED  *        40.63 GB
 **********************************************************************************************************************************


 Program * Restricted Hartree-Fock

 Orbital guess generated from atomic densities. Full valence occupancy:   29

 Initial occupancy:  18

 NELEC=   36   SYM=1   MS2= 0   THRE=1.0D-08   THRD=3.2D-06   THRG=3.2D-06  HFMA2=F  DIIS_START=2   DIIS_MAX=10   DIIS_INCORE=F

 Level shifts:    0.00 (CLOSED)    0.00 (OPEN)    0.30 (GAP_MIN)

 ITER           ETOT              DE          GRAD        DDIFF     DIIS  NEXP   TIME(IT)  TIME(TOT)  DIAG
   1     -210.28561148    -210.28561148     0.00D+00     0.31D-01     0     0      13.81     24.93    start
   2     -210.33815706      -0.05254558     0.30D-02     0.34D-02     1     0      13.25     38.18    diag
   3     -210.34787947      -0.00972241     0.14D-02     0.98D-03     2     0      12.93     51.11    diag
   4     -210.34895774      -0.00107827     0.37D-03     0.35D-03     3     0      13.43     64.54    diag
   5     -210.34901981      -0.00006207     0.74D-04     0.80D-04     4     0      13.03     77.57    diag
   6     -210.34902479      -0.00000498     0.23D-04     0.24D-04     5     0      12.73     90.30    diag
   7     -210.34902534      -0.00000055     0.71D-05     0.80D-05     6     0      12.73    103.03    diag
   8     -210.34902538      -0.00000004     0.15D-05     0.23D-05     7     0      13.04    116.07    fixocc
   9     -210.34902538      -0.00000000     0.52D-06     0.71D-06     8     0      13.48    129.55    diag
  10     -210.34902538      -0.00000000     0.14D-06     0.17D-06     0     0      13.10    142.65    diag/orth

 Final occupancy:  18

 !RHF STATE 1.1 Energy               -210.349025383099
  RHF One-electron energy            -542.275107713040
  RHF Two-electron energy             202.607409127169
  RHF Kinetic energy                  210.076691259464
  RHF Nuclear energy                  129.318673202772
  RHF Virial quotient                  -1.001296355736

 !RHF STATE 1.1 Dipole moment           0.67331093     0.30836779     0.34855835
 Dipole moment /Debye                   1.71138569     0.78379273     0.88594695

 Orbital energies:

           1.1          2.1          3.1          4.1          5.1          6.1          7.1          8.1          9.1         10.1
    -20.570190   -15.521376   -11.278093   -11.231071    -1.370068    -1.156275    -0.935138    -0.884781    -0.702628    -0.654516

          11.1         12.1         13.1         14.1         15.1         16.1         17.1         18.1         19.1         20.1
     -0.625661    -0.604541    -0.590522    -0.543763    -0.517341    -0.504620    -0.460850    -0.378688     0.027158     0.037727


 HOMO     18.1    -0.378688 =     -10.3046eV
 LUMO     19.1     0.027158 =       0.7390eV
 LUMO-HOMO         0.405846 =      11.0436eV

 Orbitals saved in record  2100.2


 **********************************************************************************************************************************
 DATASETS  * FILE   NREC   LENGTH (MB)   RECORD NAMES
              1      19    10466.80       500      610      700      900      950      970     1000      129      960     1100   
                                          VAR    BASINP    GEOM    SYMINP    ZMAT    AOBASIS   BASIS     P2S    ABASIS      S 
                                         1400     1410     1200     1210     1080     1600     1650     1300     1700   
                                           T        V       H0       H01     AOSYM     SMH    MOLCAS    ERIS     OPER   

              2       4        2.97       700     1000      520     2100   
                                         GEOM     BASIS   MCVARS     RHF  

 PROGRAMS   *        TOTAL    HF-SCF       INT
 CPU TIMES  *       236.70    142.65     93.96
 REAL TIME  *       381.62 SEC
 DISK USED  *        40.63 GB
 **********************************************************************************************************************************


 Program * Restricted Hartree-Fock

 Molecular orbitals read from record     2100.2  Type=RHF/CANONICAL  

 Initial occupancy:  18

 NELEC=   36   SYM=1   MS2= 0   THRE=1.0D-08   THRD=3.2D-06   THRG=3.2D-06  HFMA2=F  DIIS_START=2   DIIS_MAX=10   DIIS_INCORE=F

 Level shifts:    0.00 (CLOSED)    0.00 (OPEN)    0.30 (GAP_MIN)

 ITER           ETOT              DE          GRAD        DDIFF     DIIS  NEXP   TIME(IT)  TIME(TOT)  DIAG
   1     -210.34902538    -210.34902538     0.00D+00     0.32D-01     0     0      13.34     13.34    start
   2     -210.34902538      -0.00000000     0.64D-07     0.71D-07     1     0      13.44     26.78    diag

 Final occupancy:  18

 !RHF STATE 1.1 Energy               -210.349025383167
  RHF One-electron energy            -542.275137761028
  RHF Two-electron energy             202.607439175089
  RHF Kinetic energy                  210.076708346617
  RHF Nuclear energy                  129.318673202772
  RHF Virial quotient                  -1.001296274293

 !RHF STATE 1.1 Dipole moment           0.67331111     0.30836770     0.34856154
 Dipole moment /Debye                   1.71138613     0.78379252     0.88595506

 Orbital energies:

           1.1          2.1          3.1          4.1          5.1          6.1          7.1          8.1          9.1         10.1
    -20.570194   -15.521376   -11.278093   -11.231079    -1.370069    -1.156276    -0.935138    -0.884782    -0.702628    -0.654517

          11.1         12.1         13.1         14.1         15.1         16.1         17.1         18.1         19.1         20.1
     -0.625661    -0.604541    -0.590523    -0.543765    -0.517342    -0.504621    -0.460851    -0.378689     0.027158     0.037727


 HOMO     18.1    -0.378689 =     -10.3046eV
 LUMO     19.1     0.027158 =       0.7390eV
 LUMO-HOMO         0.405847 =      11.0437eV

 Orbitals saved in record  2101.2


 **********************************************************************************************************************************
 DATASETS  * FILE   NREC   LENGTH (MB)   RECORD NAMES
              1      19    10466.80       500      610      700      900      950      970     1000      129      960     1100   
                                          VAR    BASINP    GEOM    SYMINP    ZMAT    AOBASIS   BASIS     P2S    ABASIS      S 
                                         1400     1410     1200     1210     1080     1600     1650     1300     1700   
                                           T        V       H0       H01     AOSYM     SMH    MOLCAS    ERIS     OPER   

              2       5        7.17       700     1000      520     2100     2101   
                                         GEOM     BASIS   MCVARS     RHF      RHF  

 PROGRAMS   *        TOTAL    HF-SCF    HF-SCF       INT
 CPU TIMES  *       263.51     26.80    142.65     93.96
 REAL TIME  *       415.93 SEC
 DISK USED  *        40.63 GB
 **********************************************************************************************************************************


 PROGRAM * PAPT (Closed-shell)     Authors: C. Hampel, H.-J. Werner, 1991, P.J. Knowles, 2021


 Convergence thresholds:  THRVAR = 1.00D-08  THRDEN = 1.00D-06

 Number of core orbitals:           4 (   4 )
 Number of closed-shell orbitals:  14 (  14 )
 Number of external orbitals:     373 ( 373 )

 Molecular orbitals read from record     2101.2  Type=RHF/CANONICAL  

 Number of N-1 electron functions:              14
 Number of N-2 electron functions:             105
 Number of singly external CSFs:              5222
 Number of doubly external CSFs:          13637253
 Total number of CSFs:                    13642476

 Length of J-op  integral file:               0.00 MB
 Length of K-op  integral file:              10.56 MB

 Integral transformation finished. Total CPU:  29.97 sec, npass=  1  Memory used:  29.78 MW

 Reference energy:                   -210.34902538

                        CORR.ENERGY   TOTAL ENERGY   ENERGY CHANGE
 MP2:                   -0.85250391  -211.20152930    -0.85250391

 SCS-MP2 correlation energy:           -0.85680627   (PS=  1.200000  PT=  0.333333)
 SCS-MP2 total energy:               -211.20583166
 Iteration:   1     0.1981D+00
 Iteration:   2     0.2358D+00
 Iteration:   3     0.6638D-01
 Iteration:   4     0.5856D-01
 Iteration:   5     0.2460D+00
 Iteration:   6     0.5988D-01
 Iteration:   7     0.1331D+00
 Iteration:   8     0.1136D+00
 Iteration:   9     0.8403D-01
 Iteration:  10     0.2933D+00
 Iteration:  11     0.6200D-01
 Iteration:  12     0.1628D+00
 Iteration:  13     0.4740D-01
 Iteration:  14     0.2572D-01
 Iteration:  15     0.5362D-01
 Iteration:  16     0.9274D-02
 Iteration:  17     0.2219D-01
 Iteration:  18     0.3854D-02
 Iteration:  19     0.2713D-02
 Iteration:  20     0.3662D-02
 Iteration:  21     0.7852D-03
 Iteration:  22     0.2861D-02
 Iteration:  23     0.2639D-03
 Iteration:  24     0.2136D-03
 Iteration:  25     0.3859D-03
 Iteration:  26     0.8908D-04
 PAPT operator written to  7000.1
 PAPT orbitals and eigenvalues written to  7000.2

 MP3(D):                -0.88769169  -211.23671708    -0.03518778



 RESULTS
 =======

  Reference energy                   -210.349025383168
  MP3 singlet pair energy              -0.616433351520
  MP3 triplet pair energy              -0.271258342538
  MP3 correlation energy               -0.887691694058

 !MP3 total energy                   -211.236717077226

 Timing summary (sec):

 STEP                 CPU(USER)    SYS     CPU(TOT)    WALL
 Transformation         31.00      3.86     34.86     36.08
 CCSD iterations       395.84      6.14    401.98    132.25

 Program statistics:

 Available memory in ccsd:               805305566
 Min. memory needed in ccsd:              33723737
 Max. memory used in ccsd:                46197170
 Max. memory used in cckext:              33420406 ( 1 integral passes)



 **********************************************************************************************************************************
 DATASETS  * FILE   NREC   LENGTH (MB)   RECORD NAMES
              1      21    10653.58       500      610      700      900      950      970     1000      129      960     1100   
                                          VAR    BASINP    GEOM    SYMINP    ZMAT    AOBASIS   BASIS     P2S    ABASIS      S 
                                         1400     1410     1200     1210     1080     1600     1650     1300     1700     1380   
                                           T        V       H0       H01     AOSYM     SMH    MOLCAS    ERIS     OPER     JKOP   
                                         7000   
                                        PAPT AO    

              2       6       10.77       700     1000      520     2100     2101     7000   
                                         GEOM     BASIS   MCVARS     RHF      RHF     PAPT   

 PROGRAMS   *        TOTAL      PAPT    HF-SCF    HF-SCF       INT
 CPU TIMES  *       426.74    163.23     26.80    142.65     93.96
 REAL TIME  *       584.61 SEC
 DISK USED  *        40.63 GB
 **********************************************************************************************************************************


 PROGRAM * MP2 (Closed-shell)     Authors: C. Hampel, H.-J. Werner, 1991, M. Deegan, P.J. Knowles, 1992


 Convergence thresholds:  THRVAR = 1.00D-08  THRDEN = 1.00D-06

 Number of core orbitals:           4 (   4 )
 Number of closed-shell orbitals:  14 (  14 )
 Number of external orbitals:     373 ( 373 )

 Molecular orbitals read from record     7000.2  Type=PAPT/CANONICAL (state 1.1)

 Number of N-1 electron functions:              14
 Number of N-2 electron functions:             105
 Number of singly external CSFs:              5222
 Number of doubly external CSFs:          13637253
 Total number of CSFs:                    13642476

 Length of J-op  integral file:               0.00 MB
 Length of K-op  integral file:              10.56 MB

 Integral transformation finished. Total CPU:  23.37 sec, npass=  1  Memory used:  29.78 MW
 Orbital energies read from record       7000.2  Type=PAPT/CANONICAL (state 1.1)

 Memory needed for MP2:                      0.75 MW

 SCS-MP2 correlation energy:           -0.905474014244   (PS=  1.200000  PT=  0.333333)
 SCS-MP2 total energy:               -211.254499397412


  Reference energy                   -210.349025383167
  MP2 singlet pair energy              -0.601202228405
  MP2 triplet pair energy              -0.295764653826
  MP2 correlation energy               -0.896966882231

 !MP2 total energy                   -211.245992265398


 **********************************************************************************************************************************
 DATASETS  * FILE   NREC   LENGTH (MB)   RECORD NAMES
              1      21    10653.58       500      610      700      900      950      970     1000      129      960     1100   
                                          VAR    BASINP    GEOM    SYMINP    ZMAT    AOBASIS   BASIS     P2S    ABASIS      S 
                                         1400     1410     1200     1210     1080     1600     1650     1300     1700     1380   
                                           T        V       H0       H01     AOSYM     SMH    MOLCAS    ERIS     OPER     JKOP   
                                         7000   
                                        PAPT AO    

              2       6       10.77       700     1000      520     2100     2101     7000   
                                         GEOM     BASIS   MCVARS     RHF      RHF     PAPT   

 PROGRAMS   *        TOTAL       MP2      PAPT    HF-SCF    HF-SCF       INT
 CPU TIMES  *       461.87     35.13    163.23     26.80    142.65     93.96
 REAL TIME  *       624.46 SEC
 DISK USED  *        40.63 GB
 **********************************************************************************************************************************

 Dump information in style XML to xml output                                                                      

 Orbitals will not be exported.

 **********************************************************************************************************************************

 MP2/aug-cc-pVTZ energy=   -211.245992265398

             MP2            PAPT          HF-SCF          HF-SCF
   -211.24599227   -211.23671708   -210.34902538   -210.34902538
 **********************************************************************************************************************************
 Molpro calculation terminated
