
 Working directory              : /var/folders/2v/xbgp75_9785319ghcgb4zr4r0000gp/T//molpro.F9AfXz6dWo/
 Global scratch directory       : /var/folders/2v/xbgp75_9785319ghcgb4zr4r0000gp/T//molpro.F9AfXz6dWo/
 Wavefunction directory         : /Users/sacpjk/wfu/
 Main file repository           : /var/folders/2v/xbgp75_9785319ghcgb4zr4r0000gp/T//molpro.F9AfXz6dWo/

 id        : peterk

 Nodes                        nprocs
 Cardiff-University-G34YLXT77Y    1
 GA implementation: MPI file
 GA implementation (serial work in mppx): MPI file

 Using customized tuning parameters: mindgm=1; mindgv=20; mindgc=4; mindgr=1; noblas=0; minvec=7
 default implementation of scratch files=df  


 Variables initialized (1032), CPU time= 0.01 sec
 
 symmetry,nosym
 
 
 geometry={
            8
     N          0.00000000      0.00000000     -0.36875516
     H          0.00000000      0.00000000     -1.38378716
     C          1.22577450      0.00000000      0.15784007
     H          1.33931529      0.00000000      1.22986735
     H          2.06809426      0.00000000     -0.51143626
     C         -1.22577450      0.00000000      0.15784007
     H         -1.33931529      0.00000000      1.22986735
     H         -2.06809426      0.00000000     -0.51143626
 }
 basis=cc-pVTZ
 
 
 
 hf; ccsd
 
 
 
 {put,xml;noorbitals,nobasis}
 Commands initialized (841), CPU time= 0.00 sec, 704 directives.
 Default parameters read. Elapsed time= 0.07 sec

 Checking input...
 Passed
1


                                         ***  PROGRAM SYSTEM MOLPRO  ***
                                       Copyright, TTI GmbH Stuttgart, 2015
                                    Version 2023.1 linked Tue Jun  6 09:54:11 2023


 **********************************************************************************************************************************
 LABEL *                                                                                                                                                                 
  64 bit serial version                                                                  DATE: 11-Jun-23          TIME: 07:42:45  
 **********************************************************************************************************************************

 SHA1:             8ebb0dd001088a5c915591db1a321413035db0b1
 **********************************************************************************************************************************

 Memory per process:       393 MW
 Total memory per node:    524 MW
 Total GA space:           131 MW

 GA preallocation disabled
 GA check enabled

 Variable memory set to 393.2 MW

 ZSYMEL=NOSYM


 Geometry recognized as XYZ

 SETTING BASIS          =    CC-PVTZ


 Recomputing integrals since basis changed


 Using spherical harmonics

 Library entry N      S cc-pVTZ              selected for orbital group  1
 Library entry N      P cc-pVTZ              selected for orbital group  1
 Library entry N      D cc-pVTZ              selected for orbital group  1
 Library entry N      F cc-pVTZ              selected for orbital group  1
 Library entry H      S cc-pVTZ              selected for orbital group  2
 Library entry H      P cc-pVTZ              selected for orbital group  2
 Library entry H      D cc-pVTZ              selected for orbital group  2
 Library entry C      S cc-pVTZ              selected for orbital group  3
 Library entry C      P cc-pVTZ              selected for orbital group  3
 Library entry C      D cc-pVTZ              selected for orbital group  3
 Library entry C      F cc-pVTZ              selected for orbital group  3


 PROGRAM * SEWARD (Integral evaluation for generally contracted gaussian basis sets)     Author: Roland Lindh, 1990

 Geometry written to block  1 of record 700


 Point group  C1  



 ATOMIC COORDINATES

 NR  ATOM    CHARGE       X              Y              Z

   1  N       7.00    0.000000000    0.000000000   -0.696846259
   2  H       1.00    0.000000000    0.000000000   -2.614978747
   3  C       6.00    2.316378096    0.000000000    0.298274504
   4  H       1.00    2.530939093    0.000000000    2.324112461
   5  H       1.00    3.908131751    0.000000000   -0.966474462
   6  C       6.00   -2.316378096    0.000000000    0.298274504
   7  H       1.00   -2.530939093    0.000000000    2.324112461
   8  H       1.00   -3.908131751    0.000000000   -0.966474462

 Bond lengths in Bohr (Angstrom)

 1-2  1.918132488  1-3  2.521085642  1-6  2.521085642  3-4  2.037168587  3-5  2.033044428
     ( 1.015032000)     ( 1.334101069)     ( 1.334101069)     ( 1.078023191)     ( 1.075840780)

 6-7  2.037168587  6-8  2.033044428
     ( 1.078023191)     ( 1.075840780)

 Bond angles

  1-3-4  119.29424335   1-3-5  118.28217784   1-6-7  119.29424335   1-6-8  118.28217784

  2-1-3  113.24845886   2-1-6  113.24845886   3-1-6  133.50308228   4-3-5  122.42357881

  7-6-8  122.42357881

 NUCLEAR CHARGE:                   24
 NUMBER OF PRIMITIVE AOS:         226
 NUMBER OF SYMMETRY AOS:          206
 NUMBER OF CONTRACTIONS:          160   (  160A   )
 NUMBER OF INNER CORE ORBITALS:     0   (    0A   )
 NUMBER OF OUTER CORE ORBITALS:     3   (    3A   )
 NUMBER OF VALENCE ORBITALS:       17   (   17A   )


 NUCLEAR REPULSION ENERGY   73.05044046

 EXTRA SYMMETRY OF AOS IN SYMMETRY 1:   1 1 1 1 1 2 1 1 2 1   1 2 1 1 2 1 1 2 1 2   1 1 2 1 2 1 1 2 2 1   1 1 1 1 2 1 1 2 1 1
                                        2 1 1 2 1 1 1 1 1 2   1 1 2 1 1 2 1 1 2 1   1 2 1 2 1 1 2 1 2 1   1 2 2 1 1 1 1 1 2 1
                                        1 2 1 1 2 1 1 2 1 1   1 1 2 1 1 2 1 1 2 1   1 2 1 1 1 1 1 2 1 1   2 1 1 2 1 1 2 1 1 2
                                        1 2 1 1 2 1 2 1 1 2   2 1 1 1 1 1 2 1 1 2   1 1 2 1 1 2 1 1 1 1   2 1 1 2 1 1 2 1 1 2

 Eigenvalues of metric

         1 0.120E-02 0.134E-02 0.144E-02 0.144E-02 0.184E-02 0.191E-02 0.208E-02 0.264E-02


 Contracted 2-electron integrals neglected if value below      1.0D-11
 AO integral compression algorithm  1   Integral accuracy      1.0D-11

     192.676 MB (compressed) written to integral file ( 26.0%)


 NUMBER OF SORTED TWO-ELECTRON INTEGRALS:   82953640.     BUFFER LENGTH:  32768
 NUMBER OF SEGMENTS:   6  SEGMENT LENGTH:   15999503      RECORD LENGTH: 524288

 Memory used in sort:      16.56 MW

 SORT1 READ    92754458. AND WROTE    39739095. INTEGRALS IN    117 RECORDS. CPU TIME:     0.63 SEC, REAL TIME:     1.40 SEC
 SORT2 READ    39739095. AND WROTE    82953640. INTEGRALS IN    735 RECORDS. CPU TIME:     0.54 SEC, REAL TIME:     0.98 SEC

 FILE SIZES:   FILE 1:   223.7 MBYTE,  FILE 4:   490.8 MBYTE,   TOTAL:    714.5 MBYTE

 OPERATOR DM      FOR CENTER  0  COORDINATES:    0.000000    0.000000    0.000000


 **********************************************************************************************************************************
 DATASETS  * FILE   NREC   LENGTH (MB)   RECORD NAMES
              1      19      189.60       500      610      700      900      950      970     1000      129      960     1100   
                                          VAR    BASINP    GEOM    SYMINP    ZMAT    AOBASIS   BASIS     P2S    ABASIS      S 
                                         1400     1410     1200     1210     1080     1600     1650     1300     1700   
                                           T        V       H0       H01     AOSYM     SMH    MOLCAS    ERIS     OPER   

 PROGRAMS   *        TOTAL       INT
 CPU TIMES  *         3.69      3.60
 REAL TIME  *         8.15 SEC
 DISK USED  *       681.91 MB
 **********************************************************************************************************************************


 Program * Restricted Hartree-Fock

 Orbital guess generated from atomic densities. Full valence occupancy:   20

 Initial occupancy:  12

 NELEC=   24   SYM=1   MS2= 0   THRE=1.0D-08   THRD=3.2D-06   THRG=3.2D-06  HFMA2=F  DIIS_START=2   DIIS_MAX=10   DIIS_INCORE=F

 Level shifts:    0.00 (CLOSED)    0.00 (OPEN)    0.30 (GAP_MIN)

 ITER           ETOT              DE          GRAD        DDIFF     DIIS  NEXP   TIME(IT)  TIME(TOT)  DIAG
   1     -132.99616721    -132.99616721     0.00D+00     0.58D-01     0     0       0.42      0.82    start
   2     -133.02905859      -0.03289138     0.42D-02     0.58D-02     1     0       0.41      1.23    diag
   3     -133.03504240      -0.00598381     0.20D-02     0.19D-02     2     0       0.44      1.67    diag
   4     -133.03572481      -0.00068241     0.57D-03     0.62D-03     3     0       0.43      2.10    diag
   5     -133.03575805      -0.00003324     0.12D-03     0.15D-03     4     0       0.43      2.53    diag
   6     -133.03576075      -0.00000269     0.32D-04     0.44D-04     5     0       0.44      2.97    diag
   7     -133.03576091      -0.00000017     0.58D-05     0.10D-04     6     0       0.43      3.40    diag
   8     -133.03576093      -0.00000002     0.21D-05     0.34D-05     7     0       0.44      3.84    fixocc
   9     -133.03576093      -0.00000000     0.52D-06     0.10D-05     8     0       0.43      4.27    diag
  10     -133.03576093      -0.00000000     0.12D-06     0.17D-06     0     0       0.44      4.71    diag/orth

 Final occupancy:  12

 !RHF STATE 1.1 Energy               -133.035760931382
  RHF One-electron energy            -323.213544886382
  RHF Two-electron energy             117.127343495066
  RHF Kinetic energy                  132.764786304107
  RHF Nuclear energy                   73.050440459934
  RHF Virial quotient                  -1.002041012793

 !RHF STATE 1.1 Dipole moment          -0.00000000     0.00000000    -0.53011564
 Dipole moment /Debye                  -0.00000000     0.00000000    -1.34741955

 Orbital energies:

           1.1          2.1          3.1          4.1          5.1          6.1          7.1          8.1          9.1         10.1
    -15.673837   -11.227401   -11.227350    -1.293775    -0.967870    -0.836600    -0.714565    -0.654416    -0.561043    -0.546132

          11.1         12.1         13.1         14.1
     -0.540539    -0.235900     0.128660     0.129505


 HOMO     12.1    -0.235900 =      -6.4192eV
 LUMO     13.1     0.128660 =       3.5010eV
 LUMO-HOMO         0.364559 =       9.9202eV

 Orbitals saved in record  2100.2


 **********************************************************************************************************************************
 DATASETS  * FILE   NREC   LENGTH (MB)   RECORD NAMES
              1      19      189.60       500      610      700      900      950      970     1000      129      960     1100   
                                          VAR    BASINP    GEOM    SYMINP    ZMAT    AOBASIS   BASIS     P2S    ABASIS      S 
                                         1400     1410     1200     1210     1080     1600     1650     1300     1700   
                                           T        V       H0       H01     AOSYM     SMH    MOLCAS    ERIS     OPER   

              2       4        0.91       700     1000      520     2100   
                                         GEOM     BASIS   MCVARS     RHF  

 PROGRAMS   *        TOTAL    HF-SCF       INT
 CPU TIMES  *         8.41      4.71      3.60
 REAL TIME  *        16.92 SEC
 DISK USED  *       681.91 MB
 **********************************************************************************************************************************


 PROGRAM * CCSD (Closed-shell coupled cluster)     Authors: C. Hampel, H.-J. Werner, 1991, M. Deegan, P.J. Knowles, 1992


 Convergence thresholds:  THRVAR = 1.00D-08  THRDEN = 1.00D-06

 Number of core orbitals:           3 (   3 )
 Number of closed-shell orbitals:   9 (   9 )
 Number of external orbitals:     148 ( 148 )

 Molecular orbitals read from record     2100.2  Type=RHF/CANONICAL  

 Number of N-1 electron functions:               9
 Number of N-2 electron functions:              45
 Number of singly external CSFs:              1332
 Number of doubly external CSFs:            887778
 Total number of CSFs:                      889111

 Length of J-op  integral file:               0.00 MB
 Length of K-op  integral file:               1.82 MB
 Length of 3-ext integral record:             0.00 MB

 Integral transformation finished. Total CPU:   2.18 sec, npass=  1  Memory used:  23.10 MW

 Reference energy:                   -133.03576093

 MP2 singlet pair energy:              -0.36944612
 MP2 triplet pair energy:              -0.20112108
 MP2 correlation energy:               -0.57056721
 MP2 total energy:                   -133.60632814

 SCS-MP2 correlation energy:           -0.56847736   (PS=  1.200000  PT=  0.333333)
 SCS-MP2 total energy:               -133.60423829

 ITER.      SQ.NORM     CORR.ENERGY   TOTAL ENERGY   ENERGY CHANGE        DEN1      VAR(S)    VAR(P)  DIIS     TIME  TIME/IT
   1      1.19482819    -0.58647000  -133.62223093    -0.01590279     0.00048860  0.30D-02  0.37D-02  1  1    13.28     4.44
   2      1.20975615    -0.58835181  -133.62411274    -0.00188181    -0.01403909  0.71D-04  0.59D-03  2  2    15.99     4.60
   3      1.21711868    -0.58856209  -133.62432303    -0.00021029    -0.00335587  0.53D-04  0.55D-04  3  3    18.67     4.62
   4      1.22044379    -0.58863768  -133.62439861    -0.00007559    -0.00086712  0.58D-05  0.11D-04  4  4    21.32     4.59
   5      1.22197697    -0.58865746  -133.62441839    -0.00001978    -0.00025256  0.14D-05  0.11D-05  5  5    23.90     4.49
   6      1.22249465    -0.58864265  -133.62440359     0.00001480    -0.00005139  0.60D-07  0.10D-06  6  6    26.36     4.37
   7      1.22256714    -0.58864228  -133.62440321     0.00000037    -0.00000129  0.56D-08  0.11D-07  6  1    28.82     4.36
   8      1.22257661    -0.58864292  -133.62440385    -0.00000064     0.00000239  0.63D-09  0.97D-09  6  2    31.23     4.36

 Norm of t1 vector:      0.07939529      S-energy:    -0.00000055      T1 diagnostic:  0.01323255
                                                                       D1 diagnostic:  0.03638451
                                                                       D2 diagnostic:  0.22480559 (internal)

 Doubles amplitudes (print threshold =  0.500E-01):

         I         J         SYM. A    SYM. B    A         B      T(IJ, AB)

         7         7         1         1         1         1     -0.05532944
         9         9         1         1         1         1     -0.14251658
         9         9         1         1         1        10     -0.05997851
         9         9         1         1        10         1     -0.05997851


 RESULTS
 =======

  Reference energy                   -133.035760931382
  CCSD singlet pair energy             -0.410519050371
  CCSD triplet pair energy             -0.178123320143
  CCSD correlation energy              -0.588642921700

 !CCSD total energy                  -133.624403853081

 Timing summary (sec):

 STEP                 CPU(USER)    SYS     CPU(TOT)    WALL
 Transformation          2.22      0.20      2.42      4.22
 CCSD iterations        29.04      0.89     29.93     34.94

 Program statistics:

 Available memory in ccsd:               393215664
 Min. memory needed in ccsd:               2562521
 Max. memory used in ccsd:                 3319133
 Max. memory used in cckext:               2527058 ( 8 integral passes)



 **********************************************************************************************************************************
 DATASETS  * FILE   NREC   LENGTH (MB)   RECORD NAMES
              1      20      315.25       500      610      700      900      950      970     1000      129      960     1100   
                                          VAR    BASINP    GEOM    SYMINP    ZMAT    AOBASIS   BASIS     P2S    ABASIS      S 
                                         1400     1410     1200     1210     1080     1600     1650     1300     1700     1380   
                                           T        V       H0       H01     AOSYM     SMH    MOLCAS    ERIS     OPER     JKOP   

              2       4        0.91       700     1000      520     2100   
                                         GEOM     BASIS   MCVARS     RHF  

 PROGRAMS   *        TOTAL      CCSD    HF-SCF       INT
 CPU TIMES  *        31.15     22.75      4.71      3.60
 REAL TIME  *        56.14 SEC
 DISK USED  *       681.91 MB
 **********************************************************************************************************************************

 Dump information in style XML to xml output                                                                      

 Orbitals will not be exported.

 **********************************************************************************************************************************

 CCSD/cc-pVTZ energy=   -133.624403853081

            CCSD          HF-SCF
   -133.62440385   -133.03576093
 **********************************************************************************************************************************
 Molpro calculation terminated
