
 Working directory              : /var/folders/2v/xbgp75_9785319ghcgb4zr4r0000gp/T//molpro.HumbGrl71K/
 Global scratch directory       : /var/folders/2v/xbgp75_9785319ghcgb4zr4r0000gp/T//molpro.HumbGrl71K/
 Wavefunction directory         : /Users/sacpjk/wfu/
 Main file repository           : /var/folders/2v/xbgp75_9785319ghcgb4zr4r0000gp/T//molpro.HumbGrl71K/

 id        : peterk

 Nodes                        nprocs
 Cardiff-University-G34YLXT77Y    1
 GA implementation: MPI file
 GA implementation (serial work in mppx): MPI file

 Using customized tuning parameters: mindgm=1; mindgv=20; mindgc=4; mindgr=1; noblas=0; minvec=7
 default implementation of scratch files=df  


 Variables initialized (1032), CPU time= 0.01 sec
 
 symmetry,nosym
 
 
 geometry={
           10
     N          0.26705172      0.69636738     -0.56173710
     N          1.35510702      0.81253986      0.35870941
     H          1.84787308     -0.08681106      0.41533588
     H          0.95114425      1.00024418      1.27451809
     H          0.69417443      0.79066305     -1.48682628
     N         -0.26705172     -0.69636738     -0.56173710
     N         -1.35510702     -0.81253986      0.35870941
     H         -0.69417443     -0.79066305     -1.48682628
     H         -0.95114425     -1.00024418      1.27451809
     H         -1.84787308      0.08681106      0.41533588
 }
 basis=cc-pVDZ
 
 
 
 hf; hf; papt; mp3
 
 
 
 {put,xml;noorbitals,nobasis}
 Commands initialized (841), CPU time= 0.00 sec, 704 directives.
 Default parameters read. Elapsed time= 0.77 sec

 Checking input...
 Passed
1


                                         ***  PROGRAM SYSTEM MOLPRO  ***
                                       Copyright, TTI GmbH Stuttgart, 2015
                                    Version 2023.1 linked Tue Jun  6 09:54:11 2023


 **********************************************************************************************************************************
 LABEL *                                                                                                                                                                 
  64 bit serial version                                                                  DATE: 13-Jun-23          TIME: 06:42:44  
 **********************************************************************************************************************************

 SHA1:             8ebb0dd001088a5c915591db1a321413035db0b1
 **********************************************************************************************************************************

 Memory per process:       393 MW
 Total memory per node:    524 MW
 Total GA space:           131 MW

 GA preallocation disabled
 GA check enabled

 Variable memory set to 393.2 MW

 ZSYMEL=NOSYM


 Geometry recognized as XYZ

 SETTING BASIS          =    CC-PVDZ


 Recomputing integrals since basis changed


 Using spherical harmonics

 Library entry N      S cc-pVDZ              selected for orbital group  1
 Library entry N      P cc-pVDZ              selected for orbital group  1
 Library entry N      D cc-pVDZ              selected for orbital group  1
 Library entry H      S cc-pVDZ              selected for orbital group  2
 Library entry H      P cc-pVDZ              selected for orbital group  2


 PROGRAM * SEWARD (Integral evaluation for generally contracted gaussian basis sets)     Author: Roland Lindh, 1990

 Geometry written to block  1 of record 700


 Point group  C1  



 ATOMIC COORDINATES

 NR  ATOM    CHARGE       X              Y              Z

   1  N       7.00    0.504654612    1.315943630   -1.061529273
   2  N       7.00    2.560781137    1.535477801    0.677862543
   3  H       1.00    3.491974034   -0.164049128    0.784871063
   4  H       1.00    1.797402138    1.890187558    2.408490131
   5  H       1.00    1.311799555    1.494136621   -2.809694464
   6  N       7.00   -0.504654612   -1.315943630   -1.061529273
   7  N       7.00   -2.560781137   -1.535477801    0.677862543
   8  H       1.00   -1.311799555   -1.494136621   -2.809694464
   9  H       1.00   -1.797402138   -1.890187558    2.408490131
  10  H       1.00   -3.491974034    0.164049128    0.784871063

 Bond lengths in Bohr (Angstrom)

 1-2  2.702098339  1-5  1.933731428  1-6  2.818782656  2-3  1.940866512  2-4  1.924483920
     ( 1.429888862)     ( 1.023286604)     ( 1.491635544)     ( 1.027062327)     ( 1.018393033)

  6- 7  2.702098339   6- 8  1.933731428   7- 9  1.924483920   7-10  1.940866512
       ( 1.429888862)       ( 1.023286604)       ( 1.018393033)       ( 1.027062327)

 Bond angles

  1-2-3  109.23428917   1-2-4  106.97847166   1-6-7  110.38485651   1-6-8  103.62095394

  2-1-5  104.88275036   2-1-6  110.38485651   3-2-4  107.58548703   5-1-6  103.62095394

  6- 7- 9  106.97847166   6- 7-10  109.23428917   7- 6- 8  104.88275036   9- 7-10  107.58548703

 NUCLEAR CHARGE:                   34
 NUMBER OF PRIMITIVE AOS:         150
 NUMBER OF SYMMETRY AOS:          146
 NUMBER OF CONTRACTIONS:           86   (   86A   )
 NUMBER OF INNER CORE ORBITALS:     0   (    0A   )
 NUMBER OF OUTER CORE ORBITALS:     4   (    4A   )
 NUMBER OF VALENCE ORBITALS:       22   (   22A   )


 NUCLEAR REPULSION ENERGY  135.83614119

 Eigenvalues of metric

         1 0.491E-02 0.588E-02 0.133E-01 0.205E-01 0.320E-01 0.366E-01 0.369E-01 0.393E-01


 Contracted 2-electron integrals neglected if value below      1.0D-11
 AO integral compression algorithm  1   Integral accuracy      1.0D-11

     33.292 MB (compressed) written to integral file ( 52.2%)


 NUMBER OF SORTED TWO-ELECTRON INTEGRALS:    6999411.     BUFFER LENGTH:  32768
 NUMBER OF SEGMENTS:   1  SEGMENT LENGTH:    6999411      RECORD LENGTH: 524288

 Memory used in sort:       7.56 MW

 SORT1 READ     7921471. AND WROTE     6887255. INTEGRALS IN     20 RECORDS. CPU TIME:     0.05 SEC, REAL TIME:     0.07 SEC
 SORT2 READ     6887255. AND WROTE     6999411. INTEGRALS IN    127 RECORDS. CPU TIME:     0.08 SEC, REAL TIME:     0.10 SEC

 FILE SIZES:   FILE 1:    63.7 MBYTE,  FILE 4:    84.0 MBYTE,   TOTAL:    147.7 MBYTE

 OPERATOR DM      FOR CENTER  0  COORDINATES:    0.000000    0.000000    0.000000


 **********************************************************************************************************************************
 DATASETS  * FILE   NREC   LENGTH (MB)   RECORD NAMES
              1      19       56.77       500      610      700      900      950      970     1000      129      960     1100   
                                          VAR    BASINP    GEOM    SYMINP    ZMAT    AOBASIS   BASIS     P2S    ABASIS      S 
                                         1400     1410     1200     1210     1080     1600     1650     1300     1700   
                                           T        V       H0       H01     AOSYM     SMH    MOLCAS    ERIS     OPER   

 PROGRAMS   *        TOTAL       INT
 CPU TIMES  *         0.58      0.49
 REAL TIME  *         2.28 SEC
 DISK USED  *       141.31 MB
 **********************************************************************************************************************************


 Program * Restricted Hartree-Fock

 Orbital guess generated from atomic densities. Full valence occupancy:   26

 Initial occupancy:  17

 NELEC=   34   SYM=1   MS2= 0   THRE=1.0D-08   THRD=3.2D-06   THRG=3.2D-06  HFMA2=F  DIIS_START=2   DIIS_MAX=10   DIIS_INCORE=F

 Level shifts:    0.00 (CLOSED)    0.00 (OPEN)    0.30 (GAP_MIN)

 ITER           ETOT              DE          GRAD        DDIFF     DIIS  NEXP   TIME(IT)  TIME(TOT)  DIAG
   1     -221.13700374    -221.13700374     0.00D+00     0.12D+00     0     0       0.03      0.06    start
   2     -221.18234171      -0.04533798     0.62D-02     0.12D-01     1     0       0.03      0.09    diag
   3     -221.18711964      -0.00477793     0.21D-02     0.38D-02     2     0       0.03      0.12    diag
   4     -221.18804503      -0.00092539     0.84D-03     0.14D-02     3     0       0.03      0.15    diag
   5     -221.18810485      -0.00005982     0.16D-03     0.37D-03     4     0       0.03      0.18    diag
   6     -221.18811041      -0.00000555     0.37D-04     0.11D-03     5     0       0.03      0.21    diag
   7     -221.18811086      -0.00000046     0.11D-04     0.36D-04     6     0       0.03      0.24    diag
   8     -221.18811088      -0.00000002     0.25D-05     0.73D-05     7     0       0.03      0.27    fixocc
   9     -221.18811089      -0.00000000     0.87D-06     0.20D-05     8     0       0.03      0.30    diag
  10     -221.18811089      -0.00000000     0.20D-06     0.42D-06     0     0       0.03      0.33    diag/orth

 Final occupancy:  17

 !RHF STATE 1.1 Energy               -221.188110885848
  RHF One-electron energy            -570.423778278887
  RHF Two-electron energy             213.399526198977
  RHF Kinetic energy                  220.775774316058
  RHF Nuclear energy                  135.836141194062
  RHF Virial quotient                  -1.001867671265

 !RHF STATE 1.1 Dipole moment          -0.00000000    -0.00000000     0.09587683
 Dipole moment /Debye                  -0.00000000    -0.00000000     0.24369460

 Orbital energies:

           1.1          2.1          3.1          4.1          5.1          6.1          7.1          8.1          9.1         10.1
    -15.608017   -15.607618   -15.573713   -15.573712    -1.325560    -1.214326    -1.052457    -0.922701    -0.694209    -0.683567

          11.1         12.1         13.1         14.1         15.1         16.1         17.1         18.1         19.1
     -0.660834    -0.624715    -0.578311    -0.480880    -0.446196    -0.394472    -0.371094     0.180734     0.194015


 HOMO     17.1    -0.371094 =     -10.0980eV
 LUMO     18.1     0.180734 =       4.9180eV
 LUMO-HOMO         0.551828 =      15.0160eV

 Orbitals saved in record  2100.2


 **********************************************************************************************************************************
 DATASETS  * FILE   NREC   LENGTH (MB)   RECORD NAMES
              1      19       56.77       500      610      700      900      950      970     1000      129      960     1100   
                                          VAR    BASINP    GEOM    SYMINP    ZMAT    AOBASIS   BASIS     P2S    ABASIS      S 
                                         1400     1410     1200     1210     1080     1600     1650     1300     1700   
                                           T        V       H0       H01     AOSYM     SMH    MOLCAS    ERIS     OPER   

              2       4        0.65       700     1000      520     2100   
                                         GEOM     BASIS   MCVARS     RHF  

 PROGRAMS   *        TOTAL    HF-SCF       INT
 CPU TIMES  *         0.91      0.33      0.49
 REAL TIME  *         2.99 SEC
 DISK USED  *       141.31 MB
 **********************************************************************************************************************************


 Program * Restricted Hartree-Fock

 Molecular orbitals read from record     2100.2  Type=RHF/CANONICAL  

 Initial occupancy:  17

 NELEC=   34   SYM=1   MS2= 0   THRE=1.0D-08   THRD=3.2D-06   THRG=3.2D-06  HFMA2=F  DIIS_START=2   DIIS_MAX=10   DIIS_INCORE=F

 Level shifts:    0.00 (CLOSED)    0.00 (OPEN)    0.30 (GAP_MIN)

 ITER           ETOT              DE          GRAD        DDIFF     DIIS  NEXP   TIME(IT)  TIME(TOT)  DIAG
   1     -221.18811089    -221.18811089     0.00D+00     0.13D+00     0     0       0.03      0.03    start
   2     -221.18811089      -0.00000000     0.93D-07     0.21D-06     1     0       0.03      0.06    diag

 Final occupancy:  17

 !RHF STATE 1.1 Energy               -221.188110885875
  RHF One-electron energy            -570.423763470629
  RHF Two-electron energy             213.399511390692
  RHF Kinetic energy                  220.775758169007
  RHF Nuclear energy                  135.836141194062
  RHF Virial quotient                  -1.001867744540

 !RHF STATE 1.1 Dipole moment          -0.00000000    -0.00000000     0.09587816
 Dipole moment /Debye                  -0.00000000    -0.00000000     0.24369797

 Orbital energies:

           1.1          2.1          3.1          4.1          5.1          6.1          7.1          8.1          9.1         10.1
    -15.608016   -15.607617   -15.573710   -15.573710    -1.325559    -1.214325    -1.052456    -0.922701    -0.694208    -0.683566

          11.1         12.1         13.1         14.1         15.1         16.1         17.1         18.1         19.1
     -0.660833    -0.624715    -0.578310    -0.480879    -0.446195    -0.394470    -0.371093     0.180734     0.194015


 HOMO     17.1    -0.371093 =     -10.0980eV
 LUMO     18.1     0.180734 =       4.9180eV
 LUMO-HOMO         0.551827 =      15.0160eV

 Orbitals saved in record  2101.2


 **********************************************************************************************************************************
 DATASETS  * FILE   NREC   LENGTH (MB)   RECORD NAMES
              1      19       56.77       500      610      700      900      950      970     1000      129      960     1100   
                                          VAR    BASINP    GEOM    SYMINP    ZMAT    AOBASIS   BASIS     P2S    ABASIS      S 
                                         1400     1410     1200     1210     1080     1600     1650     1300     1700   
                                           T        V       H0       H01     AOSYM     SMH    MOLCAS    ERIS     OPER   

              2       5        0.95       700     1000      520     2100     2101   
                                         GEOM     BASIS   MCVARS     RHF      RHF  

 PROGRAMS   *        TOTAL    HF-SCF    HF-SCF       INT
 CPU TIMES  *         0.98      0.07      0.33      0.49
 REAL TIME  *         3.27 SEC
 DISK USED  *       141.31 MB
 **********************************************************************************************************************************


 PROGRAM * PAPT (Closed-shell)     Authors: C. Hampel, H.-J. Werner, 1991, P.J. Knowles, 2021


 Convergence thresholds:  THRVAR = 1.00D-08  THRDEN = 1.00D-06

 Number of core orbitals:           4 (   4 )
 Number of closed-shell orbitals:  13 (  13 )
 Number of external orbitals:      69 (  69 )

 Molecular orbitals read from record     2101.2  Type=RHF/CANONICAL  

 Number of N-1 electron functions:              13
 Number of N-2 electron functions:              91
 Number of singly external CSFs:               897
 Number of doubly external CSFs:            402753
 Total number of CSFs:                      403651

 Length of J-op  integral file:               0.00 MB
 Length of K-op  integral file:               0.57 MB

 Integral transformation finished. Total CPU:   0.08 sec, npass=  1  Memory used:   1.30 MW

 Reference energy:                   -221.18811089

                        CORR.ENERGY   TOTAL ENERGY   ENERGY CHANGE
 MP2:                   -0.69151539  -221.87962628    -0.69151539

 SCS-MP2 correlation energy:           -0.67967942   (PS=  1.200000  PT=  0.333333)
 SCS-MP2 total energy:               -221.86779031
 Iteration:   1     0.2000D+00
 Iteration:   2     0.2681D+01
 Iteration:   3     0.5392D-01
 Iteration:   4     0.5978D-01
 Iteration:   5     0.1896D-01
 Iteration:   6     0.1841D-01
 Iteration:   7     0.9220D-02
 Iteration:   8     0.4391D-02
 Iteration:   9     0.3566D-01
 Iteration:  10     0.1771D-02
 Iteration:  11     0.3576D-02
 Iteration:  12     0.6308D-03
 Iteration:  13     0.3018D-03
 Iteration:  14     0.4085D-03
 Iteration:  15     0.6040D-04
 PAPT operator written to  7000.1
 PAPT orbitals and eigenvalues written to  7000.2

 MP3(D):                -0.72215909  -221.91026997    -0.03064370



 RESULTS
 =======

  Reference energy                   -221.188110885876
  MP3 singlet pair energy              -0.481472822120
  MP3 triplet pair energy              -0.240686263247
  MP3 correlation energy               -0.722159085367

 !MP3 total energy                   -221.910269971242

 Timing summary (sec):

 STEP                 CPU(USER)    SYS     CPU(TOT)    WALL
 Transformation          0.09      0.02      0.11      0.22
 CCSD iterations         2.24      0.08      2.32      3.47

 Program statistics:

 Available memory in ccsd:               393215307
 Min. memory needed in ccsd:               1141972
 Max. memory used in ccsd:                 1479972
 Max. memory used in cckext:               1453815 ( 1 integral passes)



 **********************************************************************************************************************************
 DATASETS  * FILE   NREC   LENGTH (MB)   RECORD NAMES
              1      21       64.65       500      610      700      900      950      970     1000      129      960     1100   
                                          VAR    BASINP    GEOM    SYMINP    ZMAT    AOBASIS   BASIS     P2S    ABASIS      S 
                                         1400     1410     1200     1210     1080     1600     1650     1300     1700     1380   
                                           T        V       H0       H01     AOSYM     SMH    MOLCAS    ERIS     OPER     JKOP   
                                         7000   
                                        PAPT AO    

              2       6        1.21       700     1000      520     2100     2101     7000   
                                         GEOM     BASIS   MCVARS     RHF      RHF     PAPT   

 PROGRAMS   *        TOTAL      PAPT    HF-SCF    HF-SCF       INT
 CPU TIMES  *         2.25      1.27      0.07      0.33      0.49
 REAL TIME  *         7.13 SEC
 DISK USED  *       141.31 MB
 **********************************************************************************************************************************


 PROGRAM * MP3 (Closed-shell)     Authors: C. Hampel, H.-J. Werner, 1991, M. Deegan, P.J. Knowles, 1992


 Convergence thresholds:  THRVAR = 1.00D-08  THRDEN = 1.00D-06

 Number of core orbitals:           4 (   4 )
 Number of closed-shell orbitals:  13 (  13 )
 Number of external orbitals:      69 (  69 )

 Molecular orbitals read from record     7000.2  Type=PAPT/CANONICAL (state 1.1)

 Number of N-1 electron functions:              13
 Number of N-2 electron functions:              91
 Number of singly external CSFs:               897
 Number of doubly external CSFs:            402753
 Total number of CSFs:                      403651

 Length of J-op  integral file:               0.00 MB
 Length of K-op  integral file:               0.57 MB

 Integral transformation finished. Total CPU:   0.08 sec, npass=  1  Memory used:   1.30 MW
 Orbital energies read from record       7000.2  Type=PAPT/CANONICAL (state 1.1)

 Reference energy:                   -221.18811089

                        CORR.ENERGY   TOTAL ENERGY   ENERGY CHANGE
 MP2:                   -0.72820957  -221.91632046    -0.72820957

 SCS-MP2 correlation energy:           -0.71944339   (PS=  1.200000  PT=  0.333333)
 SCS-MP2 total energy:               -221.90755427

 MP3(D):                -0.72859073  -221.91670161    -0.00038116



 RESULTS
 =======

  Reference energy                   -221.188110885876
  MP3 singlet pair energy              -0.489047579084
  MP3 triplet pair energy              -0.239543149441
  MP3 correlation energy               -0.728590728526

 !MP3 total energy                   -221.916701614402

 Timing summary (sec):

 STEP                 CPU(USER)    SYS     CPU(TOT)    WALL
 Transformation          0.12      0.02      0.14      0.28
 CCSD iterations         2.67      0.03      2.70      0.56

 Program statistics:

 Available memory in ccsd:               393215307
 Min. memory needed in ccsd:               1141972
 Max. memory used in ccsd:                 1479972
 Max. memory used in cckext:               1453815 ( 1 integral passes)



 **********************************************************************************************************************************
 DATASETS  * FILE   NREC   LENGTH (MB)   RECORD NAMES
              1      21       64.65       500      610      700      900      950      970     1000      129      960     1100   
                                          VAR    BASINP    GEOM    SYMINP    ZMAT    AOBASIS   BASIS     P2S    ABASIS      S 
                                         1400     1410     1200     1210     1080     1600     1650     1300     1700     1380   
                                           T        V       H0       H01     AOSYM     SMH    MOLCAS    ERIS     OPER     JKOP   
                                         7000   
                                        PAPT AO    

              2       6        1.21       700     1000      520     2100     2101     7000   
                                         GEOM     BASIS   MCVARS     RHF      RHF     PAPT   

 PROGRAMS   *        TOTAL       MP3      PAPT    HF-SCF    HF-SCF       INT
 CPU TIMES  *         2.71      0.45      1.27      0.07      0.33      0.49
 REAL TIME  *         8.35 SEC
 DISK USED  *       141.31 MB
 **********************************************************************************************************************************

 Dump information in style XML to xml output                                                                      

 Orbitals will not be exported.

 **********************************************************************************************************************************

 MP3/cc-pVDZ energy=   -221.916701614402

             MP3            PAPT          HF-SCF          HF-SCF
   -221.91670161   -221.91026997   -221.18811089   -221.18811089
 **********************************************************************************************************************************
 Molpro calculation terminated
