
 Working directory              : /var/folders/2v/xbgp75_9785319ghcgb4zr4r0000gp/T//molpro.D6xigO4r6r/
 Global scratch directory       : /var/folders/2v/xbgp75_9785319ghcgb4zr4r0000gp/T//molpro.D6xigO4r6r/
 Wavefunction directory         : /Users/sacpjk/wfu/
 Main file repository           : /var/folders/2v/xbgp75_9785319ghcgb4zr4r0000gp/T//molpro.D6xigO4r6r/

 id        : peterk

 Nodes                        nprocs
 Cardiff-University-G34YLXT77Y    1
 GA implementation: MPI file
 GA implementation (serial work in mppx): MPI file

 Using customized tuning parameters: mindgm=1; mindgv=20; mindgc=4; mindgr=1; noblas=0; minvec=7
 default implementation of scratch files=df  


 Variables initialized (1032), CPU time= 0.00 sec
 
 symmetry,nosym
 
 
 geometry={
           13
     C         -1.95562211     -0.53954090      0.00000805
     C         -1.13108458      0.71318040      0.00005005
     C          0.20564837      0.80700882      0.00002705
     C          1.15756998     -0.30167414     -0.00004295
     C          2.48359820     -0.12620320     -0.00003495
     H         -2.60507076     -0.56886261      0.87713351
     H         -2.60511309     -0.56877265     -0.87708907
     H         -1.35131756     -1.44334918     -0.00005395
     H         -1.69365291      1.64032011      0.00010405
     H          0.64577091      1.79837477      0.00006505
     H          0.76527501     -1.31050982     -0.00010395
     H          3.16470753     -0.96498882     -0.00008695
     H          2.91929100      0.86501723      0.00002405
 }
 basis=cc-pVDZ
 
 
 
 hf; hf; papt; mp3
 
 
 
 {put,xml;noorbitals,nobasis}
 Commands initialized (841), CPU time= 0.01 sec, 704 directives.
 Default parameters read. Elapsed time= 0.96 sec

 Checking input...
 Passed
1


                                         ***  PROGRAM SYSTEM MOLPRO  ***
                                       Copyright, TTI GmbH Stuttgart, 2015
                                    Version 2023.1 linked Tue Jun  6 09:54:11 2023


 **********************************************************************************************************************************
 LABEL *                                                                                                                                                                 
  64 bit serial version                                                                  DATE: 09-Jun-23          TIME: 16:41:04  
 **********************************************************************************************************************************

 SHA1:             8ebb0dd001088a5c915591db1a321413035db0b1
 **********************************************************************************************************************************

 Memory per process:       805 MW
 Total memory per node:   1074 MW
 Total GA space:           268 MW

 GA preallocation disabled
 GA check enabled

 Variable memory set to 805.3 MW

 ZSYMEL=NOSYM


 Geometry recognized as XYZ

 SETTING BASIS          =    CC-PVDZ


 Recomputing integrals since basis changed


 Using spherical harmonics

 Library entry C      S cc-pVDZ              selected for orbital group  1
 Library entry C      P cc-pVDZ              selected for orbital group  1
 Library entry C      D cc-pVDZ              selected for orbital group  1
 Library entry H      S cc-pVDZ              selected for orbital group  2
 Library entry H      P cc-pVDZ              selected for orbital group  2


 PROGRAM * SEWARD (Integral evaluation for generally contracted gaussian basis sets)     Author: Roland Lindh, 1990

 Geometry written to block  1 of record 700


 Point group  C1  



 ATOMIC COORDINATES

 NR  ATOM    CHARGE       X              Y              Z

   1  C       6.00   -3.695590191   -1.019584534    0.000015212
   2  C       6.00   -2.137440080    1.347715633    0.000094581
   3  C       6.00    0.388619097    1.525025650    0.000051117
   4  C       6.00    2.187490232   -0.570081503   -0.000081164
   5  C       6.00    4.693320402   -0.238489484   -0.000066046
   6  H       1.00   -4.922870272   -1.074994535    1.657542109
   7  H       1.00   -4.922950264   -1.074824536   -1.657458129
   8  H       1.00   -2.553620096   -2.727534652   -0.000101951
   9  H       1.00   -3.200540150    3.099755765    0.000196626
  10  H       1.00    1.220330159    3.398435785    0.000122927
  11  H       1.00    1.446160179   -2.476504643   -0.000196437
  12  H       1.00    5.980430496   -1.823564583   -0.000164312
  13  H       1.00    5.516660468    1.634645658    0.000045448

 Bond lengths in Bohr (Angstrom)

 1-2  2.834068076  1-6  2.063172818  1-7  2.063172820  1-8  2.054553314  2-3  2.532274434
     ( 1.499724240)     ( 1.091784037)     ( 1.091784038)     ( 1.087222792)     ( 1.340021922)

  2- 9  2.049347796   3- 4  2.761414739   3-10  2.049733843   4- 5  2.527674446   4-11  2.045487582
       ( 1.084468151)       ( 1.461277750)       ( 1.084672438)       ( 1.337587713)       ( 1.082425414)

  5-12  2.041841197   5-13  2.046099738
       ( 1.080495830)       ( 1.082749352)

 Bond angles

  1-2-3  127.36793620   1-2-9  115.39873262   2-1-6  110.45402152   2-1-7  110.45386782

  2- 1- 8  112.87971288   2- 3- 4  126.63443987   2- 3-10  117.95423915   3- 2- 9  117.23333118

  3- 4- 5  123.11152689   3- 4-11  118.10139595   4- 3-10  115.41132098   4- 5-12  121.53918017

  4- 5-13  121.26603237   5- 4-11  118.78707715   6- 1- 7  106.90709601   6- 1- 8  107.95995642

  7- 1- 8  107.95986127  12- 5-13  117.19478746

 NUCLEAR CHARGE:                   38
 NUMBER OF PRIMITIVE AOS:         191
 NUMBER OF SYMMETRY AOS:          186
 NUMBER OF CONTRACTIONS:          110   (  110A   )
 NUMBER OF INNER CORE ORBITALS:     0   (    0A   )
 NUMBER OF OUTER CORE ORBITALS:     5   (    5A   )
 NUMBER OF VALENCE ORBITALS:       28   (   28A   )


 NUCLEAR REPULSION ENERGY  155.81513849


 Eigenvalues of metric

         1 0.133E-02 0.197E-02 0.287E-02 0.453E-02 0.114E-01 0.147E-01 0.164E-01 0.209E-01


 Contracted 2-electron integrals neglected if value below      1.0D-11
 AO integral compression algorithm  1   Integral accuracy      1.0D-11

     66.060 MB (compressed) written to integral file ( 42.4%)


 NUMBER OF SORTED TWO-ELECTRON INTEGRALS:   18638565.     BUFFER LENGTH:  32768
 NUMBER OF SEGMENTS:   2  SEGMENT LENGTH:   15997996      RECORD LENGTH: 524288

 Memory used in sort:      16.56 MW

 SORT1 READ    19533568. AND WROTE    16611450. INTEGRALS IN     48 RECORDS. CPU TIME:     0.14 SEC, REAL TIME:     0.19 SEC
 SORT2 READ    16611450. AND WROTE    18638565. INTEGRALS IN    252 RECORDS. CPU TIME:     0.19 SEC, REAL TIME:     0.22 SEC

 FILE SIZES:   FILE 1:    96.7 MBYTE,  FILE 4:   201.4 MBYTE,   TOTAL:    298.1 MBYTE

 OPERATOR DM      FOR CENTER  0  COORDINATES:    0.000000    0.000000    0.000000


 **********************************************************************************************************************************
 DATASETS  * FILE   NREC   LENGTH (MB)   RECORD NAMES
              1      19       84.17       500      610      700      900      950      970     1000      129      960     1100   
                                          VAR    BASINP    GEOM    SYMINP    ZMAT    AOBASIS   BASIS     P2S    ABASIS      S 
                                         1400     1410     1200     1210     1080     1600     1650     1300     1700   
                                           T        V       H0       H01     AOSYM     SMH    MOLCAS    ERIS     OPER   

 PROGRAMS   *        TOTAL       INT
 CPU TIMES  *         1.24      1.15
 REAL TIME  *         4.00 SEC
 DISK USED  *       284.84 MB
 **********************************************************************************************************************************


 Program * Restricted Hartree-Fock

 Orbital guess generated from atomic densities. Full valence occupancy:   33

 Initial occupancy:  19

 NELEC=   38   SYM=1   MS2= 0   THRE=1.0D-08   THRD=3.2D-06   THRG=3.2D-06  HFMA2=F  DIIS_START=2   DIIS_MAX=10   DIIS_INCORE=F

 Level shifts:    0.00 (CLOSED)    0.00 (OPEN)    0.30 (GAP_MIN)

 ITER           ETOT              DE          GRAD        DDIFF     DIIS  NEXP   TIME(IT)  TIME(TOT)  DIAG
   1     -193.91399855    -193.91399855     0.00D+00     0.10D+00     0     0       0.10      0.19    start
   2     -193.96750669      -0.05350815     0.44D-02     0.99D-02     1     0       0.10      0.29    diag
   3     -193.97292935      -0.00542266     0.15D-02     0.34D-02     2     0       0.09      0.38    diag
   4     -193.97373116      -0.00080181     0.50D-03     0.13D-02     3     0       0.10      0.48    diag
   5     -193.97376694      -0.00003578     0.13D-03     0.25D-03     4     0       0.10      0.58    diag
   6     -193.97377164      -0.00000470     0.34D-04     0.98D-04     5     0       0.09      0.67    diag
   7     -193.97377201      -0.00000037     0.83D-05     0.26D-04     6     0       0.10      0.77    diag
   8     -193.97377205      -0.00000004     0.26D-05     0.85D-05     7     0       0.09      0.86    fixocc
   9     -193.97377206      -0.00000001     0.14D-05     0.44D-05     8     0       0.10      0.96    diag
  10     -193.97377206      -0.00000000     0.31D-06     0.12D-05     9     0       0.10      1.06    diag/orth
  11     -193.97377206      -0.00000000     0.15D-06     0.35D-06     0     0       0.09      1.15    diag

 Final occupancy:  19

 !RHF STATE 1.1 Energy               -193.973772063265
  RHF One-electron energy            -568.724376930638
  RHF Two-electron energy             218.935466379893
  RHF Kinetic energy                  193.760246614499
  RHF Nuclear energy                  155.815138487479
  RHF Virial quotient                  -1.001102008552

 !RHF STATE 1.1 Dipole moment          -0.19226740    -0.06033281     0.00000042
 Dipole moment /Debye                  -0.48869499    -0.15335070     0.00000107

 Orbital energies:

           1.1          2.1          3.1          4.1          5.1          6.1          7.1          8.1          9.1         10.1
    -11.238097   -11.237807   -11.230959   -11.229725   -11.229224    -1.095426    -1.025907    -0.932819    -0.807478    -0.726285

          11.1         12.1         13.1         14.1         15.1         16.1         17.1         18.1         19.1         20.1
     -0.655442    -0.614069    -0.568620    -0.565143    -0.534590    -0.520784    -0.473882    -0.430386    -0.310071     0.126622

          21.1
      0.192614


 HOMO     19.1    -0.310071 =      -8.4375eV
 LUMO     20.1     0.126622 =       3.4456eV
 LUMO-HOMO         0.436693 =      11.8830eV

 Orbitals saved in record  2100.2


 **********************************************************************************************************************************
 DATASETS  * FILE   NREC   LENGTH (MB)   RECORD NAMES
              1      19       84.17       500      610      700      900      950      970     1000      129      960     1100   
                                          VAR    BASINP    GEOM    SYMINP    ZMAT    AOBASIS   BASIS     P2S    ABASIS      S 
                                         1400     1410     1200     1210     1080     1600     1650     1300     1700   
                                           T        V       H0       H01     AOSYM     SMH    MOLCAS    ERIS     OPER   

              2       4        0.77       700     1000      520     2100   
                                         GEOM     BASIS   MCVARS     RHF  

 PROGRAMS   *        TOTAL    HF-SCF       INT
 CPU TIMES  *         2.39      1.15      1.15
 REAL TIME  *         5.69 SEC
 DISK USED  *       284.84 MB
 **********************************************************************************************************************************


 Program * Restricted Hartree-Fock

 Molecular orbitals read from record     2100.2  Type=RHF/CANONICAL  

 Initial occupancy:  19

 NELEC=   38   SYM=1   MS2= 0   THRE=1.0D-08   THRD=3.2D-06   THRG=3.2D-06  HFMA2=F  DIIS_START=2   DIIS_MAX=10   DIIS_INCORE=F

 Level shifts:    0.00 (CLOSED)    0.00 (OPEN)    0.30 (GAP_MIN)

 ITER           ETOT              DE          GRAD        DDIFF     DIIS  NEXP   TIME(IT)  TIME(TOT)  DIAG
   1     -193.97377206    -193.97377206     0.00D+00     0.10D+00     0     0       0.09      0.09    start
   2     -193.97377206      -0.00000000     0.62D-07     0.16D-06     1     0       0.09      0.18    diag

 Final occupancy:  19

 !RHF STATE 1.1 Energy               -193.973772063285
  RHF One-electron energy            -568.724388844567
  RHF Two-electron energy             218.935478293803
  RHF Kinetic energy                  193.760248797334
  RHF Nuclear energy                  155.815138487479
  RHF Virial quotient                  -1.001101997274

 !RHF STATE 1.1 Dipole moment          -0.19223906    -0.06033213     0.00000042
 Dipole moment /Debye                  -0.48862296    -0.15334899     0.00000107

 Orbital energies:

           1.1          2.1          3.1          4.1          5.1          6.1          7.1          8.1          9.1         10.1
    -11.238098   -11.237812   -11.230960   -11.229725   -11.229220    -1.095427    -1.025907    -0.932819    -0.807479    -0.726285

          11.1         12.1         13.1         14.1         15.1         16.1         17.1         18.1         19.1         20.1
     -0.655443    -0.614069    -0.568620    -0.565143    -0.534590    -0.520784    -0.473882    -0.430387    -0.310071     0.126621

          21.1
      0.192614


 HOMO     19.1    -0.310071 =      -8.4375eV
 LUMO     20.1     0.126621 =       3.4455eV
 LUMO-HOMO         0.436693 =      11.8830eV

 Orbitals saved in record  2101.2


 **********************************************************************************************************************************
 DATASETS  * FILE   NREC   LENGTH (MB)   RECORD NAMES
              1      19       84.17       500      610      700      900      950      970     1000      129      960     1100   
                                          VAR    BASINP    GEOM    SYMINP    ZMAT    AOBASIS   BASIS     P2S    ABASIS      S 
                                         1400     1410     1200     1210     1080     1600     1650     1300     1700   
                                           T        V       H0       H01     AOSYM     SMH    MOLCAS    ERIS     OPER   

              2       5        1.20       700     1000      520     2100     2101   
                                         GEOM     BASIS   MCVARS     RHF      RHF  

 PROGRAMS   *        TOTAL    HF-SCF    HF-SCF       INT
 CPU TIMES  *         2.59      0.19      1.15      1.15
 REAL TIME  *         6.09 SEC
 DISK USED  *       284.84 MB
 **********************************************************************************************************************************


 PROGRAM * PAPT (Closed-shell)     Authors: C. Hampel, H.-J. Werner, 1991, P.J. Knowles, 2021


 Convergence thresholds:  THRVAR = 1.00D-08  THRDEN = 1.00D-06

 Number of core orbitals:           5 (   5 )
 Number of closed-shell orbitals:  14 (  14 )
 Number of external orbitals:      91 (  91 )

 Molecular orbitals read from record     2101.2  Type=RHF/CANONICAL  

 Number of N-1 electron functions:              14
 Number of N-2 electron functions:             105
 Number of singly external CSFs:              1274
 Number of doubly external CSFs:            812175
 Total number of CSFs:                      813450

 Length of J-op  integral file:               0.00 MB
 Length of K-op  integral file:               0.89 MB

 Integral transformation finished. Total CPU:   0.20 sec, npass=  1  Memory used:   2.36 MW

 Reference energy:                   -193.97377206

                        CORR.ENERGY   TOTAL ENERGY   ENERGY CHANGE
 MP2:                   -0.67760272  -194.65137478    -0.67760272

 SCS-MP2 correlation energy:           -0.67421874   (PS=  1.200000  PT=  0.333333)
 SCS-MP2 total energy:               -194.64799081
 Iteration:   1     0.2641D+00
 Iteration:   2     0.1996D+01
 Iteration:   3     0.1040D+00
 Iteration:   4     0.3593D+00
 Iteration:   5     0.3915D-01
 Iteration:   6     0.3931D-01
 Iteration:   7     0.3813D-01
 Iteration:   8     0.1755D-01
 Iteration:   9     0.1653D+00
 Iteration:  10     0.9664D-02
 Iteration:  11     0.2306D-01
 Iteration:  12     0.4933D-02
 Iteration:  13     0.3619D-02
 Iteration:  14     0.6061D-02
 Iteration:  15     0.1358D-02
 Iteration:  16     0.2338D-02
 Iteration:  17     0.7501D-03
 Iteration:  18     0.4603D-03
 Iteration:  19     0.8001D-03
 Iteration:  20     0.9943D-04
 PAPT operator written to  7000.1
 PAPT orbitals and eigenvalues written to  7000.2

 MP3(D):                -0.72755329  -194.70132535    -0.04995057



 RESULTS
 =======

  Reference energy                   -193.973772063285
  MP3 singlet pair energy              -0.498072368400
  MP3 triplet pair energy              -0.229480921521
  MP3 correlation energy               -0.727553289922

 !MP3 total energy                   -194.701325353207

 Timing summary (sec):

 STEP                 CPU(USER)    SYS     CPU(TOT)    WALL
 Transformation          0.22      0.02      0.24      0.32
 CCSD iterations         5.74      0.10      5.84      3.80

 Program statistics:

 Available memory in ccsd:               805305565
 Min. memory needed in ccsd:               2197782
 Max. memory used in ccsd:                 2899161
 Max. memory used in cckext:               2693716 ( 1 integral passes)



 **********************************************************************************************************************************
 DATASETS  * FILE   NREC   LENGTH (MB)   RECORD NAMES
              1      21       98.99       500      610      700      900      950      970     1000      129      960     1100   
                                          VAR    BASINP    GEOM    SYMINP    ZMAT    AOBASIS   BASIS     P2S    ABASIS      S 
                                         1400     1410     1200     1210     1080     1600     1650     1300     1700     1380   
                                           T        V       H0       H01     AOSYM     SMH    MOLCAS    ERIS     OPER     JKOP   
                                         7000   
                                        PAPT AO    

              2       6        1.57       700     1000      520     2100     2101     7000   
                                         GEOM     BASIS   MCVARS     RHF      RHF     PAPT   

 PROGRAMS   *        TOTAL      PAPT    HF-SCF    HF-SCF       INT
 CPU TIMES  *         5.89      3.30      0.19      1.15      1.15
 REAL TIME  *        10.31 SEC
 DISK USED  *       284.84 MB
 **********************************************************************************************************************************


 PROGRAM * MP3 (Closed-shell)     Authors: C. Hampel, H.-J. Werner, 1991, M. Deegan, P.J. Knowles, 1992


 Convergence thresholds:  THRVAR = 1.00D-08  THRDEN = 1.00D-06

 Number of core orbitals:           5 (   5 )
 Number of closed-shell orbitals:  14 (  14 )
 Number of external orbitals:      91 (  91 )

 Molecular orbitals read from record     7000.2  Type=PAPT/CANONICAL (state 1.1)

 Number of N-1 electron functions:              14
 Number of N-2 electron functions:             105
 Number of singly external CSFs:              1274
 Number of doubly external CSFs:            812175
 Total number of CSFs:                      813450

 Length of J-op  integral file:               0.00 MB
 Length of K-op  integral file:               0.89 MB

 Integral transformation finished. Total CPU:   0.22 sec, npass=  1  Memory used:   2.36 MW
 Orbital energies read from record       7000.2  Type=PAPT/CANONICAL (state 1.1)

 Reference energy:                   -193.97377206

                        CORR.ENERGY   TOTAL ENERGY   ENERGY CHANGE
 MP2:                   -0.73727054  -194.71104260    -0.73727054

 SCS-MP2 correlation energy:           -0.73861284   (PS=  1.200000  PT=  0.333333)
 SCS-MP2 total energy:               -194.71238490

 MP3(D):                -0.73778904  -194.71156110    -0.00051849



 RESULTS
 =======

  Reference energy                   -193.973772063285
  MP3 singlet pair energy              -0.510423015965
  MP3 triplet pair energy              -0.227366019042
  MP3 correlation energy               -0.737789035008

 !MP3 total energy                   -194.711561098292

 Timing summary (sec):

 STEP                 CPU(USER)    SYS     CPU(TOT)    WALL
 Transformation          0.34      0.05      0.39      0.52
 CCSD iterations         6.81      0.06      6.87      1.29

 Program statistics:

 Available memory in ccsd:               805305565
 Min. memory needed in ccsd:               2197782
 Max. memory used in ccsd:                 2899161
 Max. memory used in cckext:               2693716 ( 1 integral passes)



 **********************************************************************************************************************************
 DATASETS  * FILE   NREC   LENGTH (MB)   RECORD NAMES
              1      21       98.99       500      610      700      900      950      970     1000      129      960     1100   
                                          VAR    BASINP    GEOM    SYMINP    ZMAT    AOBASIS   BASIS     P2S    ABASIS      S 
                                         1400     1410     1200     1210     1080     1600     1650     1300     1700     1380   
                                           T        V       H0       H01     AOSYM     SMH    MOLCAS    ERIS     OPER     JKOP   
                                         7000   
                                        PAPT AO    

              2       6        1.57       700     1000      520     2100     2101     7000   
                                         GEOM     BASIS   MCVARS     RHF      RHF     PAPT   

 PROGRAMS   *        TOTAL       MP3      PAPT    HF-SCF    HF-SCF       INT
 CPU TIMES  *         7.08      1.19      3.30      0.19      1.15      1.15
 REAL TIME  *        12.19 SEC
 DISK USED  *       284.84 MB
 **********************************************************************************************************************************

 Dump information in style XML to xml output                                                                      

 Orbitals will not be exported.

 **********************************************************************************************************************************

 MP3/cc-pVDZ energy=   -194.711561098292

             MP3            PAPT          HF-SCF          HF-SCF
   -194.71156110   -194.70132535   -193.97377206   -193.97377206
 **********************************************************************************************************************************
 Molpro calculation terminated
