
 Working directory              : /var/folders/2v/xbgp75_9785319ghcgb4zr4r0000gp/T//molpro.7jKFtbOJgm/
 Global scratch directory       : /var/folders/2v/xbgp75_9785319ghcgb4zr4r0000gp/T//molpro.7jKFtbOJgm/
 Wavefunction directory         : /Users/sacpjk/wfu/
 Main file repository           : /var/folders/2v/xbgp75_9785319ghcgb4zr4r0000gp/T//molpro.7jKFtbOJgm/

 id        : peterk

 Nodes                        nprocs
 Cardiff-University-G34YLXT77Y    1
 GA implementation: MPI file
 GA implementation (serial work in mppx): MPI file

 Using customized tuning parameters: mindgm=1; mindgv=20; mindgc=4; mindgr=1; noblas=0; minvec=7
 default implementation of scratch files=df  


 Variables initialized (1032), CPU time= 0.00 sec
 
 core,small
 angstrom
 
 geometry={
 H;F,H,0.91576748
 }
 basis=cc-pCVDZ
 
 
 
 hf; hf; papt; mp2
 
 
 
 {put,xml;noorbitals,nobasis}
 Commands initialized (841), CPU time= 0.01 sec, 704 directives.
 Default parameters read. Elapsed time= 1.63 sec

 Checking input...
 Passed
1


                                         ***  PROGRAM SYSTEM MOLPRO  ***
                                       Copyright, TTI GmbH Stuttgart, 2015
                                    Version 2023.1 linked Tue Jun  6 09:54:11 2023


 **********************************************************************************************************************************
 LABEL *                                                                                                                                                                 
  64 bit serial version                                                                  DATE: 12-Jun-23          TIME: 09:37:05  
 **********************************************************************************************************************************

 SHA1:             8ebb0dd001088a5c915591db1a321413035db0b1
 **********************************************************************************************************************************

 Memory per process:       393 MW
 Total memory per node:    524 MW
 Total GA space:           131 MW

 GA preallocation disabled
 GA check enabled

 Variable memory set to 393.2 MW

 ZUNIT=ANG

 SETTING BASIS          =    CC-PCVDZ


 Recomputing integrals since basis changed


 Using spherical harmonics

 Library entry H      S cc-pVDZ              selected for orbital group  1
 Library entry H      P cc-pVDZ              selected for orbital group  1
 Library entry F      S cc-pCVDZ             selected for orbital group  2
 Library entry F      P cc-pCVDZ             selected for orbital group  2
 Library entry F      D cc-pCVDZ             selected for orbital group  2


 PROGRAM * SEWARD (Integral evaluation for generally contracted gaussian basis sets)     Author: Roland Lindh, 1990

 Geometry written to block  1 of record 700

 Orientation using atomic masses  
 Molecule type: Linear
 Symmetry elements: X,Y
 Rotational constants:     629.5970564    629.5970564      0.0000000 GHz  (calculated with average atomic masses)

 Point group  C2v 



 ATOMIC COORDINATES

 NR  ATOM    CHARGE       X              Y              Z

   1  H       1.00    0.000000000    0.000000000   -1.643362868
   2  F       9.00    0.000000000    0.000000000    0.087186863

 Bond lengths in Bohr (Angstrom)

 1-2  1.730549731
     ( 0.915767480)

 NUCLEAR CHARGE:                   10
 NUMBER OF PRIMITIVE AOS:          38
 NUMBER OF SYMMETRY AOS:           37
 NUMBER OF CONTRACTIONS:           23   (   12A1  +    5B1  +    5B2  +    1A2  )
 NUMBER OF INNER CORE ORBITALS:     0   (    0A1  +    0B1  +    0B2  +    0A2  )
 NUMBER OF OUTER CORE ORBITALS:     1   (    1A1  +    0B1  +    0B2  +    0A2  )
 NUMBER OF VALENCE ORBITALS:        5   (    3A1  +    1B1  +    1B2  +    0A2  )


 NUCLEAR REPULSION ENERGY    5.20065956

 EXTRA SYMMETRY OF AOS IN SYMMETRY 1:   1 1 1 1 1 1 1 1 1 1   1 2

 Eigenvalues of metric

         1 0.220E-01 0.459E-01 0.798E-01 0.164E+00 0.240E+00 0.971E+00 0.100E+01 0.102E+01
         2 0.177E+00 0.613E+00 0.993E+00 0.114E+01 0.208E+01
         3 0.177E+00 0.613E+00 0.993E+00 0.114E+01 0.208E+01
         4 0.100E+01


 Contracted 2-electron integrals neglected if value below      1.0D-11
 AO integral compression algorithm  1   Integral accuracy      1.0D-11

     0.262 MB (compressed) written to integral file (100.0%)


 NUMBER OF SORTED TWO-ELECTRON INTEGRALS:      12241.     BUFFER LENGTH:  32768
 NUMBER OF SEGMENTS:   1  SEGMENT LENGTH:      12241      RECORD LENGTH: 524288

 Memory used in sort:       0.57 MW

 SORT1 READ       16495. AND WROTE        9376. INTEGRALS IN      1 RECORDS. CPU TIME:     0.00 SEC, REAL TIME:     0.00 SEC
 SORT2 READ        9376. AND WROTE       12241. INTEGRALS IN      1 RECORDS. CPU TIME:     0.01 SEC, REAL TIME:     0.01 SEC

 FILE SIZES:   FILE 1:    30.2 MBYTE,  FILE 4:     4.3 MBYTE,   TOTAL:     34.5 MBYTE

 OPERATOR DM      FOR CENTER  0  COORDINATES:    0.000000    0.000000    0.000000


 **********************************************************************************************************************************
 DATASETS  * FILE   NREC   LENGTH (MB)   RECORD NAMES
              1      19       28.65       500      610      700      900      950      970     1000      129      960     1100   
                                          VAR    BASINP    GEOM    SYMINP    ZMAT    AOBASIS   BASIS     P2S    ABASIS      S 
                                         1400     1410     1200     1210     1080     1600     1650     1300     1700   
                                           T        V       H0       H01     AOSYM     SMH    MOLCAS    ERIS     OPER   

 PROGRAMS   *        TOTAL       INT
 CPU TIMES  *         0.17      0.07
 REAL TIME  *         2.40 SEC
 DISK USED  *        33.23 MB
 **********************************************************************************************************************************


 Program * Restricted Hartree-Fock

 Orbital guess generated from atomic densities. Full valence occupancy:    4   1   1   0

 Initial occupancy:   3   1   1   0

 NELEC=   10   SYM=1   MS2= 0   THRE=1.0D-08   THRD=3.2D-06   THRG=3.2D-06  HFMA2=F  DIIS_START=2   DIIS_MAX=10   DIIS_INCORE=F

 Level shifts:    0.00 (CLOSED)    0.00 (OPEN)    0.30 (GAP_MIN)

 ITER           ETOT              DE          GRAD        DDIFF     DIIS  NEXP   TIME(IT)  TIME(TOT)  DIAG
   1      -99.99314985     -99.99314985     0.00D+00     0.42D+00     0     0       0.00      0.00    start
   2     -100.01463726      -0.02148741     0.32D-01     0.67D-01     1     0       0.00      0.00    diag
   3     -100.01956192      -0.00492466     0.17D-01     0.18D-01     2     0       0.00      0.00    diag
   4     -100.01970987      -0.00014795     0.19D-02     0.36D-02     3     0       0.00      0.00    diag
   5     -100.01972830      -0.00001843     0.59D-03     0.13D-02     4     0       0.00      0.00    diag
   6     -100.01972912      -0.00000081     0.11D-03     0.25D-03     5     0       0.00      0.00    diag
   7     -100.01972913      -0.00000002     0.16D-04     0.43D-04     6     0       0.00      0.00    diag
   8     -100.01972913      -0.00000000     0.12D-05     0.37D-05     7     0       0.00      0.00    fixocc
   9     -100.01972913      -0.00000000     0.11D-06     0.26D-06     8     0       0.00      0.00    diag
  10     -100.01972913      -0.00000000     0.79D-08     0.15D-07     0     0       0.00      0.00    diag/orth

 Final occupancy:   3   1   1   0

 !RHF STATE 1.1 Energy               -100.019729133146
  RHF One-electron energy            -150.705062520264
  RHF Two-electron energy              45.484673828725
  RHF Kinetic energy                  100.036491339966
  RHF Nuclear energy                    5.200659558392
  RHF Virial quotient                  -0.999832439077

 !RHF STATE 1.1 Dipole moment           0.00000000     0.00000000    -0.76662291
 Dipole moment /Debye                   0.00000000     0.00000000    -1.94856108

 Orbital energies:

           1.1          2.1          3.1          4.1          5.1
    -26.277119    -1.583916    -0.748071     0.183840     0.810923

           1.2          2.2          3.2
     -0.629376     1.409810     1.602979

           1.3          2.3          3.3
     -0.629376     1.409810     1.602979

           1.4
      4.003805


 HOMO      1.3    -0.629376 =     -17.1262eV
 LUMO      4.1     0.183840 =       5.0025eV
 LUMO-HOMO         0.813216 =      22.1287eV

 Orbitals saved in record  2100.2


 **********************************************************************************************************************************
 DATASETS  * FILE   NREC   LENGTH (MB)   RECORD NAMES
              1      19       28.65       500      610      700      900      950      970     1000      129      960     1100   
                                          VAR    BASINP    GEOM    SYMINP    ZMAT    AOBASIS   BASIS     P2S    ABASIS      S 
                                         1400     1410     1200     1210     1080     1600     1650     1300     1700   
                                           T        V       H0       H01     AOSYM     SMH    MOLCAS    ERIS     OPER   

              2       4        0.38       700     1000      520     2100   
                                         GEOM     BASIS   MCVARS     RHF  

 PROGRAMS   *        TOTAL    HF-SCF       INT
 CPU TIMES  *         0.17      0.00      0.07
 REAL TIME  *         3.01 SEC
 DISK USED  *        33.23 MB
 **********************************************************************************************************************************


 Program * Restricted Hartree-Fock

 Molecular orbitals read from record     2100.2  Type=RHF/CANONICAL  

 Initial occupancy:   3   1   1   0

 NELEC=   10   SYM=1   MS2= 0   THRE=1.0D-08   THRD=3.2D-06   THRG=3.2D-06  HFMA2=F  DIIS_START=2   DIIS_MAX=10   DIIS_INCORE=F

 Level shifts:    0.00 (CLOSED)    0.00 (OPEN)    0.30 (GAP_MIN)

 ITER           ETOT              DE          GRAD        DDIFF     DIIS  NEXP   TIME(IT)  TIME(TOT)  DIAG
   1     -100.01972913    -100.01972913     0.00D+00     0.42D+00     0     0       0.00      0.00    start
   2     -100.01972913      -0.00000000     0.22D-08     0.34D-08     1     0       0.00      0.00    diag

 Final occupancy:   3   1   1   0

 !RHF STATE 1.1 Energy               -100.019729133146
  RHF One-electron energy            -150.705062496377
  RHF Two-electron energy              45.484673804839
  RHF Kinetic energy                  100.036491330864
  RHF Nuclear energy                    5.200659558392
  RHF Virial quotient                  -0.999832439168

 !RHF STATE 1.1 Dipole moment           0.00000000     0.00000000    -0.76662289
 Dipole moment /Debye                   0.00000000     0.00000000    -1.94856104

 Orbital energies:

           1.1          2.1          3.1          4.1          5.1
    -26.277119    -1.583916    -0.748071     0.183840     0.810923

           1.2          2.2          3.2
     -0.629376     1.409810     1.602979

           1.3          2.3          3.3
     -0.629376     1.409810     1.602979

           1.4
      4.003805


 HOMO      1.3    -0.629376 =     -17.1262eV
 LUMO      4.1     0.183840 =       5.0025eV
 LUMO-HOMO         0.813216 =      22.1287eV

 Orbitals saved in record  2101.2


 **********************************************************************************************************************************
 DATASETS  * FILE   NREC   LENGTH (MB)   RECORD NAMES
              1      19       28.65       500      610      700      900      950      970     1000      129      960     1100   
                                          VAR    BASINP    GEOM    SYMINP    ZMAT    AOBASIS   BASIS     P2S    ABASIS      S 
                                         1400     1410     1200     1210     1080     1600     1650     1300     1700   
                                           T        V       H0       H01     AOSYM     SMH    MOLCAS    ERIS     OPER   

              2       5        0.48       700     1000      520     2100     2101   
                                         GEOM     BASIS   MCVARS     RHF      RHF  

 PROGRAMS   *        TOTAL    HF-SCF    HF-SCF       INT
 CPU TIMES  *         0.18      0.01      0.00      0.07
 REAL TIME  *         3.53 SEC
 DISK USED  *        33.23 MB
 **********************************************************************************************************************************


 PROGRAM * PAPT (Closed-shell)     Authors: C. Hampel, H.-J. Werner, 1991, P.J. Knowles, 2021


 CORETYPE=SMALL

 Convergence thresholds:  THRVAR = 1.00D-08  THRDEN = 1.00D-06

 Number of closed-shell orbitals:   5 (   3   1   1   0 )
 Number of external orbitals:      18 (   9   4   4   1 )

 Molecular orbitals read from record     2101.2  Type=RHF/CANONICAL  

 Number of N-1 electron functions:               5
 Number of N-2 electron functions:              15
 Number of singly external CSFs:                35
 Number of doubly external CSFs:              1202
 Total number of CSFs:                        1238

 Length of J-op  integral file:               0.00 MB
 Length of K-op  integral file:               0.08 MB

 Integral transformation finished. Total CPU:   0.00 sec, npass=  1  Memory used:   0.07 MW

 Reference energy:                   -100.01972913

                        CORR.ENERGY   TOTAL ENERGY   ENERGY CHANGE
 MP2:                   -0.24280282  -100.26253195    -0.24280282

 SCS-MP2 correlation energy:           -0.24076498   (PS=  1.200000  PT=  0.333333)
 SCS-MP2 total energy:               -100.26049411
 Iteration:   1     0.3721D+00
 Iteration:   2     0.2198D+01
 Iteration:   3     0.2576D+00
 Iteration:   4     0.8873D-01
 Iteration:   5     0.6188D+00
 Iteration:   6     0.2276D-01
 Iteration:   7     0.6140D-01
 Iteration:   8     0.7496D-02
 Iteration:   9     0.4486D-02
 Iteration:  10     0.3966D-01
 Iteration:  11     0.8264D-03
 Iteration:  12     0.6349D-03
 Iteration:  13     0.4559D-03
 Iteration:  14     0.9169D-04
 PAPT operator written to  7000.1
 PAPT orbitals and eigenvalues written to  7000.2

 MP3(D):                -0.24625662  -100.26598576    -0.00345380



 RESULTS
 =======

  Reference energy                   -100.019729133146

  Correlated core orbitals:             1.1
  Orbital energies:                   -26.2771

  MP3 core-core energy                 -0.030041431484
  MP3 core-valence energy              -0.008689460154
  MP3 valence correlation energy       -0.207525732880

  MP3 singlet pair energy              -0.165674193976
  MP3 triplet pair energy              -0.080582430542
  MP3 correlation energy               -0.246256624517

 !MP3 total energy                   -100.265985757663

 Timing summary (sec):

 STEP                 CPU(USER)    SYS     CPU(TOT)    WALL
 CCSD iterations         0.31      0.02      0.33      0.69

 Program statistics:

 Available memory in ccsd:               393215897
 Min. memory needed in ccsd:                  6785
 Max. memory used in ccsd:                    7417
 Max. memory used in cckext:                 39832 ( 1 integral passes)



 **********************************************************************************************************************************
 DATASETS  * FILE   NREC   LENGTH (MB)   RECORD NAMES
              1      21       28.69       500      610      700      900      950      970     1000      129      960     1100   
                                          VAR    BASINP    GEOM    SYMINP    ZMAT    AOBASIS   BASIS     P2S    ABASIS      S 
                                         1400     1410     1200     1210     1080     1600     1650     1300     1700     1380   
                                           T        V       H0       H01     AOSYM     SMH    MOLCAS    ERIS     OPER     JKOP   
                                         7000   
                                        PAPT AO    

              2       6        0.58       700     1000      520     2100     2101     7000   
                                         GEOM     BASIS   MCVARS     RHF      RHF     PAPT   

 PROGRAMS   *        TOTAL      PAPT    HF-SCF    HF-SCF       INT
 CPU TIMES  *         0.22      0.04      0.01      0.00      0.07
 REAL TIME  *         4.89 SEC
 DISK USED  *        33.23 MB
 **********************************************************************************************************************************


 PROGRAM * MP2 (Closed-shell)     Authors: C. Hampel, H.-J. Werner, 1991, M. Deegan, P.J. Knowles, 1992


 CORETYPE=SMALL

 Convergence thresholds:  THRVAR = 1.00D-08  THRDEN = 1.00D-06

 Number of closed-shell orbitals:   5 (   3   1   1   0 )
 Number of external orbitals:      18 (   9   4   4   1 )

 Molecular orbitals read from record     7000.2  Type=PAPT/CANONICAL (state 1.1)

 Number of N-1 electron functions:               5
 Number of N-2 electron functions:              15
 Number of singly external CSFs:                35
 Number of doubly external CSFs:              1202
 Total number of CSFs:                        1238

 Length of J-op  integral file:               0.00 MB
 Length of K-op  integral file:               0.08 MB

 Integral transformation finished. Total CPU:   0.00 sec, npass=  1  Memory used:   0.07 MW
 Orbital energies read from record       7000.2  Type=PAPT/CANONICAL (state 1.1)

 Memory needed for MP2:                      0.00 MW

 SCS-MP2 correlation energy:           -0.245435879984   (PS=  1.200000  PT=  0.333333)
 SCS-MP2 total energy:               -100.265165013131


  Reference energy                   -100.019729133146

  Correlated core orbitals:             1.1
  Orbital energies:                   -24.5658

  MP2 core-core energy                 -0.030134434043
  MP2 core-valence energy              -0.008825617966
  MP2 valence correlation energy       -0.208027973281

  MP2 singlet pair energy              -0.158805765045
  MP2 triplet pair energy              -0.088182260245
  MP2 correlation energy               -0.246988025290

 !MP2 total energy                   -100.266717158436


 **********************************************************************************************************************************
 DATASETS  * FILE   NREC   LENGTH (MB)   RECORD NAMES
              1      21       28.69       500      610      700      900      950      970     1000      129      960     1100   
                                          VAR    BASINP    GEOM    SYMINP    ZMAT    AOBASIS   BASIS     P2S    ABASIS      S 
                                         1400     1410     1200     1210     1080     1600     1650     1300     1700     1380   
                                           T        V       H0       H01     AOSYM     SMH    MOLCAS    ERIS     OPER     JKOP   
                                         7000   
                                        PAPT AO    

              2       6        0.58       700     1000      520     2100     2101     7000   
                                         GEOM     BASIS   MCVARS     RHF      RHF     PAPT   

 PROGRAMS   *        TOTAL       MP2      PAPT    HF-SCF    HF-SCF       INT
 CPU TIMES  *         0.25      0.02      0.04      0.01      0.00      0.07
 REAL TIME  *         5.22 SEC
 DISK USED  *        33.23 MB
 **********************************************************************************************************************************

 Dump information in style XML to xml output                                                                      

 Orbitals will not be exported.

 **********************************************************************************************************************************

 MP2/cc-pCVDZ energy=   -100.266717158436

             MP2            PAPT          HF-SCF          HF-SCF
   -100.26671716   -100.26598576   -100.01972913   -100.01972913
 **********************************************************************************************************************************
 Molpro calculation terminated
