
 Working directory              : /var/folders/2v/xbgp75_9785319ghcgb4zr4r0000gp/T//molpro.rjq3J5nlEk/
 Global scratch directory       : /var/folders/2v/xbgp75_9785319ghcgb4zr4r0000gp/T//molpro.rjq3J5nlEk/
 Wavefunction directory         : /Users/sacpjk/wfu/
 Main file repository           : /var/folders/2v/xbgp75_9785319ghcgb4zr4r0000gp/T//molpro.rjq3J5nlEk/

 id        : peterk

 Nodes                        nprocs
 Cardiff-University-G34YLXT77Y    1
 GA implementation: MPI file
 GA implementation (serial work in mppx): MPI file

 Using customized tuning parameters: mindgm=1; mindgv=20; mindgc=4; mindgr=1; noblas=0; minvec=7
 default implementation of scratch files=df  


 Variables initialized (1032), CPU time= 0.00 sec
 
 symmetry,nosym
 
 
 geometry={
 3
  o         -0.173427461842   -0.355965673914    0.000000000000
  h         -0.596555870428    0.503630414469    0.000000000000
  h          0.769983332271   -0.147664740503    0.000000000000
 }
 basis=aug-cc-pVDZ
 
 
 
 hf; ccsd(t); counterpoise
 
 
 
 {put,xml;noorbitals,nobasis}
 Commands initialized (841), CPU time= 0.01 sec, 704 directives.
 Default parameters read. Elapsed time= 2.62 sec

 Checking input...
 Passed
1


                                         ***  PROGRAM SYSTEM MOLPRO  ***
                                       Copyright, TTI GmbH Stuttgart, 2015
                                    Version 2023.1 linked Tue Jun  6 09:54:11 2023


 **********************************************************************************************************************************
 LABEL *                                                                                                                                                                 
  64 bit serial version                                                                  DATE: 08-Jun-23          TIME: 19:18:03  
 **********************************************************************************************************************************

 SHA1:             8ebb0dd001088a5c915591db1a321413035db0b1
 **********************************************************************************************************************************

 Memory per process:       805 MW
 Total memory per node:   1074 MW
 Total GA space:           268 MW

 GA preallocation disabled
 GA check enabled

 Variable memory set to 805.3 MW

 ZSYMEL=NOSYM


 Geometry recognized as XYZ

 SETTING BASIS          =    AUG-CC-PVDZ


 Recomputing integrals since basis changed


 Using spherical harmonics

 Library entry O      S aug-cc-pVDZ          selected for orbital group  1
 Library entry O      P aug-cc-pVDZ          selected for orbital group  1
 Library entry O      D aug-cc-pVDZ          selected for orbital group  1
 Library entry H      S aug-cc-pVDZ          selected for orbital group  2
 Library entry H      P aug-cc-pVDZ          selected for orbital group  2


 PROGRAM * SEWARD (Integral evaluation for generally contracted gaussian basis sets)     Author: Roland Lindh, 1990

 Geometry written to block  1 of record 700


 Point group  C1  



 ATOMIC COORDINATES

 NR  ATOM    CHARGE       X              Y              Z

   1  O       8.00   -0.327730405   -0.672677633    0.000000000
   2  H       1.00   -1.127327213    0.951723551    0.000000000
   3  H       1.00    1.455057619   -0.279045918    0.000000000

 Bond lengths in Bohr (Angstrom)

 1-2  1.810534248  1-3  1.825726996
     ( 0.958093464)     ( 0.966133120)

 Bond angles

  2-1-3  103.75741037

 NUCLEAR CHARGE:                   10
 NUMBER OF PRIMITIVE AOS:          59
 NUMBER OF SYMMETRY AOS:           57
 NUMBER OF CONTRACTIONS:           41   (   41A   )
 NUMBER OF INNER CORE ORBITALS:     0   (    0A   )
 NUMBER OF OUTER CORE ORBITALS:     1   (    1A   )
 NUMBER OF VALENCE ORBITALS:        6   (    6A   )


 NUCLEAR REPULSION ENERGY    9.14996834

 EXTRA SYMMETRY OF AOS IN SYMMETRY 1:   1 1 1 1 1 1 2 1 1 2   1 1 2 1 1 2 1 2 1 1   2 1 2 1 1 1 1 1 2 1   1 2 1 1 1 1 1 2 1 1
                                        2

 Eigenvalues of metric

         1 0.295E-02 0.300E-02 0.113E-01 0.163E-01 0.250E-01 0.353E-01 0.761E-01 0.913E-01


 Contracted 2-electron integrals neglected if value below      1.0D-11
 AO integral compression algorithm  1   Integral accuracy      1.0D-11

     1.573 MB (compressed) written to integral file ( 36.8%)


 NUMBER OF SORTED TWO-ELECTRON INTEGRALS:     371091.     BUFFER LENGTH:  32768
 NUMBER OF SEGMENTS:   1  SEGMENT LENGTH:     371091      RECORD LENGTH: 524288

 Memory used in sort:       0.93 MW

 SORT1 READ      525861. AND WROTE      180029. INTEGRALS IN      1 RECORDS. CPU TIME:     0.01 SEC, REAL TIME:     0.00 SEC
 SORT2 READ      180029. AND WROTE      371091. INTEGRALS IN      6 RECORDS. CPU TIME:     0.01 SEC, REAL TIME:     0.01 SEC

 FILE SIZES:   FILE 1:    31.6 MBYTE,  FILE 4:     4.3 MBYTE,   TOTAL:     35.9 MBYTE

 OPERATOR DM      FOR CENTER  0  COORDINATES:    0.000000    0.000000    0.000000


 **********************************************************************************************************************************
 DATASETS  * FILE   NREC   LENGTH (MB)   RECORD NAMES
              1      19       29.66       500      610      700      900      950      970     1000      129      960     1100   
                                          VAR    BASINP    GEOM    SYMINP    ZMAT    AOBASIS   BASIS     P2S    ABASIS      S 
                                         1400     1410     1200     1210     1080     1600     1650     1300     1700   
                                           T        V       H0       H01     AOSYM     SMH    MOLCAS    ERIS     OPER   

 PROGRAMS   *        TOTAL       INT
 CPU TIMES  *         0.22      0.12
 REAL TIME  *         5.37 SEC
 DISK USED  *        34.59 MB
 **********************************************************************************************************************************


 Program * Restricted Hartree-Fock

 Orbital guess generated from atomic densities. Full valence occupancy:    7

 Initial occupancy:   5

 NELEC=   10   SYM=1   MS2= 0   THRE=1.0D-08   THRD=3.2D-06   THRG=3.2D-06  HFMA2=F  DIIS_START=2   DIIS_MAX=10   DIIS_INCORE=F

 Level shifts:    0.00 (CLOSED)    0.00 (OPEN)    0.30 (GAP_MIN)

 ITER           ETOT              DE          GRAD        DDIFF     DIIS  NEXP   TIME(IT)  TIME(TOT)  DIAG
   1      -76.00397231     -76.00397231     0.00D+00     0.15D+00     0     0       0.01      0.01    start
   2      -76.03048665      -0.02651434     0.15D-01     0.26D-01     1     0       0.00      0.01    diag
   3      -76.04082744      -0.01034078     0.92D-02     0.92D-02     2     0       0.00      0.01    diag
   4      -76.04101300      -0.00018556     0.92D-03     0.14D-02     3     0       0.00      0.01    diag
   5      -76.04102866      -0.00001566     0.23D-03     0.40D-03     4     0       0.01      0.02    diag
   6      -76.04102942      -0.00000076     0.40D-04     0.79D-04     5     0       0.00      0.02    diag
   7      -76.04102945      -0.00000003     0.73D-05     0.18D-04     6     0       0.00      0.02    diag
   8      -76.04102945      -0.00000000     0.13D-05     0.30D-05     7     0       0.00      0.02    fixocc
   9      -76.04102945      -0.00000000     0.15D-06     0.21D-06     0     0       0.00      0.02    diag

 Final occupancy:   5

 !RHF STATE 1.1 Energy                -76.041029446562
  RHF One-electron energy            -122.894576086867
  RHF Two-electron energy              37.703578300893
  RHF Kinetic energy                   75.909262948202
  RHF Nuclear energy                    9.149968339412
  RHF Virial quotient                  -1.001735842152

 !RHF STATE 1.1 Dipole moment           0.34583647     0.71327872    -0.00000000
 Dipole moment /Debye                   0.87902864     1.81297368    -0.00000000

 Orbital energies:

           1.1          2.1          3.1          4.1          5.1          6.1          7.1
    -20.578419    -1.354684    -0.715152    -0.586194    -0.509258     0.035289     0.057970


 HOMO      5.1    -0.509258 =     -13.8576eV
 LUMO      6.1     0.035289 =       0.9603eV
 LUMO-HOMO         0.544547 =      14.8179eV

 Orbitals saved in record  2100.2


 **********************************************************************************************************************************
 DATASETS  * FILE   NREC   LENGTH (MB)   RECORD NAMES
              1      19       29.66       500      610      700      900      950      970     1000      129      960     1100   
                                          VAR    BASINP    GEOM    SYMINP    ZMAT    AOBASIS   BASIS     P2S    ABASIS      S 
                                         1400     1410     1200     1210     1080     1600     1650     1300     1700   
                                           T        V       H0       H01     AOSYM     SMH    MOLCAS    ERIS     OPER   

              2       4        0.44       700     1000      520     2100   
                                         GEOM     BASIS   MCVARS     RHF  

 PROGRAMS   *        TOTAL    HF-SCF       INT
 CPU TIMES  *         0.25      0.03      0.12
 REAL TIME  *         5.78 SEC
 DISK USED  *        34.59 MB
 **********************************************************************************************************************************


 PROGRAM * CCSD (Closed-shell coupled cluster)     Authors: C. Hampel, H.-J. Werner, 1991, M. Deegan, P.J. Knowles, 1992


 Convergence thresholds:  THRVAR = 1.00D-08  THRDEN = 1.00D-06

 CCSD(T)     terms to be evaluated (factor= 1.000)


 Number of core orbitals:           1 (   1 )
 Number of closed-shell orbitals:   4 (   4 )
 Number of external orbitals:      36 (  36 )

 Molecular orbitals read from record     2100.2  Type=RHF/CANONICAL  

 Number of N-1 electron functions:               4
 Number of N-2 electron functions:              10
 Number of singly external CSFs:               144
 Number of doubly external CSFs:             10440
 Total number of CSFs:                       10585

 Length of J-op  integral file:               0.00 MB
 Length of K-op  integral file:               0.18 MB
 Length of 3-ext integral record:             0.00 MB

 Memory could be reduced to 0.40 Mwords without degradation in triples

 Integral transformation finished. Total CPU:   0.01 sec, npass=  1  Memory used:   0.29 MW

 Reference energy:                    -76.04102945

 MP2 singlet pair energy:              -0.13592532
 MP2 triplet pair energy:              -0.08389356
 MP2 correlation energy:               -0.21981888
 MP2 total energy:                    -76.26084833

 SCS-MP2 correlation energy:           -0.21531082   (PS=  1.200000  PT=  0.333333)
 SCS-MP2 total energy:                -76.25634027

 ITER.      SQ.NORM     CORR.ENERGY   TOTAL ENERGY   ENERGY CHANGE        DEN1      VAR(S)    VAR(P)  DIIS     TIME  TIME/IT
   1      1.06091608    -0.22681031   -76.26783976    -0.00699143    -0.00216870  0.12D-02  0.88D-03  1  1     0.39     0.04
   2      1.06514512    -0.22746054   -76.26848999    -0.00065023    -0.00446695  0.90D-05  0.14D-03  2  2     0.39     0.03
   3      1.06665131    -0.22760080   -76.26863025    -0.00014026    -0.00085321  0.17D-04  0.54D-05  3  3     0.40     0.03
   4      1.06711707    -0.22756535   -76.26859479     0.00003546    -0.00020342  0.76D-06  0.47D-06  4  4     0.41     0.03
   5      1.06724097    -0.22755824   -76.26858769     0.00000710    -0.00004144  0.77D-07  0.31D-07  5  5     0.42     0.03
   6      1.06726270    -0.22755661   -76.26858606     0.00000163    -0.00000276  0.81D-08  0.21D-08  6  6     0.42     0.03
   7      1.06726812    -0.22755588   -76.26858533     0.00000073    -0.00000069  0.51D-09  0.33D-09  6  2     0.43     0.03
   8      1.06726888    -0.22755597   -76.26858541    -0.00000008     0.00000013  0.56D-10  0.20D-10  6  1     0.44     0.03

 Norm of t1 vector:      0.04936063      S-energy:    -0.00000013      T1 diagnostic:  0.01234016
                                                                       D1 diagnostic:  0.02669457
                                                                       D2 diagnostic:  0.12663099 (internal)


 Total CPU time for triples:      0.03 sec


 RESULTS
 =======

  Reference energy                    -76.041029446562
  CCSD singlet pair energy             -0.153410123989
  CCSD triplet pair energy             -0.074145711628
  CCSD correlation energy              -0.227555966365

  Triples (T) contribution             -0.005247262700
  Total correlation energy             -0.232803229065

  CCSD total energy                   -76.268585412927
  CCSD[T] energy                      -76.274237652929
  CCSD-T energy                       -76.273665569926
 !CCSD(T) total energy                -76.273832675627

 Timing summary (sec):

 STEP                 CPU(USER)    SYS     CPU(TOT)    WALL
 Transformation          0.01      0.01      0.02      0.20
 CCSD iterations         0.43      0.01      0.44      0.58
 Triples                 0.03      0.00      0.03      0.03

 Program statistics:

 Available memory in ccsd:               805306299
 Min. memory needed in ccsd:                 53614
 Max. memory used in ccsd:                   59994
 Max. memory used in cckext:                 75512 ( 8 integral passes)



 **********************************************************************************************************************************
 DATASETS  * FILE   NREC   LENGTH (MB)   RECORD NAMES
              1      20       30.61       500      610      700      900      950      970     1000      129      960     1100   
                                          VAR    BASINP    GEOM    SYMINP    ZMAT    AOBASIS   BASIS     P2S    ABASIS      S 
                                         1400     1410     1200     1210     1080     1600     1650     1300     1700     1380   
                                           T        V       H0       H01     AOSYM     SMH    MOLCAS    ERIS     OPER     JKOP   

              2       4        0.44       700     1000      520     2100   
                                         GEOM     BASIS   MCVARS     RHF  

 PROGRAMS   *        TOTAL   CCSD(T)    HF-SCF       INT
 CPU TIMES  *         0.39      0.14      0.03      0.12
 REAL TIME  *         6.83 SEC
 DISK USED  *        34.59 MB
 **********************************************************************************************************************************

 Counterpoise: absolute minimum monomer separation=    -1.000 Bragg radius scale factor=     1.400 Number of monomers= 1
 Counterpoise skipped because only a single monomer


 **********************************************************************************************************************************
 DATASETS  * FILE   NREC   LENGTH (MB)   RECORD NAMES
              1      20       30.61       500      610      700      900      950      970     1000      129      960     1100   
                                          VAR    BASINP    GEOM    SYMINP    ZMAT    AOBASIS   BASIS     P2S    ABASIS      S 
                                         1400     1410     1200     1210     1080     1600     1650     1300     1700     1380   
                                           T        V       H0       H01     AOSYM     SMH    MOLCAS    ERIS     OPER     JKOP   

              2       4        0.44       700     1000      520     2100   
                                         GEOM     BASIS   MCVARS     RHF  

 PROGRAMS   *        TOTALCOUNTERPOI   CCSD(T)    HF-SCF       INT
 CPU TIMES  *         0.39      0.00      0.14      0.03      0.12
 REAL TIME  *         6.90 SEC
 DISK USED  *        34.59 MB
 **********************************************************************************************************************************

 Dump information in style XML to xml output                                                                      

 Orbitals will not be exported.

 **********************************************************************************************************************************

 CCSD(T)/aug-cc-pVDZ energy=    -76.273832675627

         CCSD(T)          HF-SCF
    -76.27383268    -76.04102945
 **********************************************************************************************************************************
 Molpro calculation terminated
