
 Working directory              : /var/folders/2v/xbgp75_9785319ghcgb4zr4r0000gp/T//molpro.37U6fUJLbg/
 Global scratch directory       : /var/folders/2v/xbgp75_9785319ghcgb4zr4r0000gp/T//molpro.37U6fUJLbg/
 Wavefunction directory         : /Users/sacpjk/wfu/
 Main file repository           : /var/folders/2v/xbgp75_9785319ghcgb4zr4r0000gp/T//molpro.37U6fUJLbg/

 id        : peterk

 Nodes                        nprocs
 Cardiff-University-G34YLXT77Y    1
 GA implementation: MPI file
 GA implementation (serial work in mppx): MPI file

 Using customized tuning parameters: mindgm=1; mindgv=20; mindgc=4; mindgr=1; noblas=0; minvec=7
 default implementation of scratch files=df  


 Variables initialized (1032), CPU time= 0.01 sec
 
 symmetry,nosym
 
 
 geometry={
            6
     CL         0.00000000      0.00000000     -2.21807245
     C          0.00000000      0.00000000     -0.39966597
     H         -0.51253198      0.88773143     -0.05771428
     H         -0.51253198     -0.88773143     -0.05771428
     H          1.02506396      0.00000000     -0.05771428
     CL         0.00000000      0.00000000      2.79088125
 }
 basis=cc-pVTZ
 
 charge=-1
 
 hf; hf; papt; mp4
 
 
 
 {put,xml;noorbitals,nobasis}
 Commands initialized (841), CPU time= 0.00 sec, 704 directives.
 Default parameters read. Elapsed time= 1.46 sec

 Checking input...
 Passed
1


                                         ***  PROGRAM SYSTEM MOLPRO  ***
                                       Copyright, TTI GmbH Stuttgart, 2015
                                    Version 2023.1 linked Tue Jun  6 09:54:11 2023


 **********************************************************************************************************************************
 LABEL *                                                                                                                                                                 
  64 bit serial version                                                                  DATE: 09-Jun-23          TIME: 16:44:07  
 **********************************************************************************************************************************

 SHA1:             8ebb0dd001088a5c915591db1a321413035db0b1
 **********************************************************************************************************************************

 Memory per process:       805 MW
 Total memory per node:   1074 MW
 Total GA space:           268 MW

 GA preallocation disabled
 GA check enabled

 Variable memory set to 805.3 MW

 ZSYMEL=NOSYM


 Geometry recognized as XYZ

 SETTING BASIS          =    CC-PVTZ
 SETTING CHARGE         =        -1.00000000                                  


 Recomputing integrals since basis changed


 Using spherical harmonics

 Library entry CL     S cc-pVTZ              selected for orbital group  1
 Library entry CL     P cc-pVTZ              selected for orbital group  1
 Library entry CL     D cc-pVTZ              selected for orbital group  1
 Library entry CL     F cc-pVTZ              selected for orbital group  1
 Library entry C      S cc-pVTZ              selected for orbital group  2
 Library entry C      P cc-pVTZ              selected for orbital group  2
 Library entry C      D cc-pVTZ              selected for orbital group  2
 Library entry C      F cc-pVTZ              selected for orbital group  2
 Library entry H      S cc-pVTZ              selected for orbital group  3
 Library entry H      P cc-pVTZ              selected for orbital group  3
 Library entry H      D cc-pVTZ              selected for orbital group  3


 PROGRAM * SEWARD (Integral evaluation for generally contracted gaussian basis sets)     Author: Roland Lindh, 1990

 Geometry written to block  1 of record 700


 Point group  C1  



 ATOMIC COORDINATES

 NR  ATOM    CHARGE       X              Y              Z

   1  CL     17.00    0.000000000    0.000000000   -4.191549455
   2  C       6.00    0.000000000    0.000000000   -0.755259225
   3  H       1.00   -0.968545072    1.677569275   -0.109064183
   4  H       1.00   -0.968545072   -1.677569275   -0.109064183
   5  H       1.00    1.937090145    0.000000000   -0.109064183
   6  CL     17.00    0.000000000    0.000000000    5.274001209

 Bond lengths in Bohr (Angstrom)

 1-2  3.436290230  2-3  2.042029936  2-4  2.042029936  2-5  2.042029936
     ( 1.818406480)     ( 1.080595706)     ( 1.080595706)     ( 1.080595706)

 Bond angles

  1-2-3  108.44821349   1-2-4  108.44821349   1-2-5  108.44821349   3-2-4  110.47456744

  3-2-5  110.47456743   4-2-5  110.47456743

 NUCLEAR CHARGE:                   43
 NUMBER OF PRIMITIVE AOS:         226
 NUMBER OF SYMMETRY AOS:          208
 NUMBER OF CONTRACTIONS:          140   (  140A   )
 NUMBER OF INNER CORE ORBITALS:     2   (    2A   )
 NUMBER OF OUTER CORE ORBITALS:     9   (    9A   )
 NUMBER OF VALENCE ORBITALS:       15   (   15A   )


 NUCLEAR REPULSION ENERGY  107.04222592


 Eigenvalues of metric

         1 0.122E-02 0.180E-02 0.180E-02 0.250E-02 0.404E-02 0.743E-02 0.858E-02 0.102E-01


 Contracted 2-electron integrals neglected if value below      1.0D-11
 AO integral compression algorithm  1   Integral accuracy      1.0D-11

     133.956 MB (compressed) written to integral file ( 29.6%)


 NUMBER OF SORTED TWO-ELECTRON INTEGRALS:   48713385.     BUFFER LENGTH:  32768
 NUMBER OF SEGMENTS:   4  SEGMENT LENGTH:   15999503      RECORD LENGTH: 524288

 Memory used in sort:      16.56 MW

 SORT1 READ    56675876. AND WROTE    30896874. INTEGRALS IN     91 RECORDS. CPU TIME:     0.30 SEC, REAL TIME:     0.37 SEC
 SORT2 READ    30896874. AND WROTE    48713385. INTEGRALS IN    511 RECORDS. CPU TIME:     0.35 SEC, REAL TIME:     0.43 SEC

 FILE SIZES:   FILE 1:   164.8 MBYTE,  FILE 4:   381.7 MBYTE,   TOTAL:    546.5 MBYTE

 OPERATOR DM      FOR CENTER  0  COORDINATES:    0.000000    0.000000    0.000000


 **********************************************************************************************************************************
 DATASETS  * FILE   NREC   LENGTH (MB)   RECORD NAMES
              1      19      137.99       500      610      700      900      950      970     1000      129      960     1100   
                                          VAR    BASINP    GEOM    SYMINP    ZMAT    AOBASIS   BASIS     P2S    ABASIS      S 
                                         1400     1410     1200     1210     1080     1600     1650     1300     1700   
                                           T        V       H0       H01     AOSYM     SMH    MOLCAS    ERIS     OPER   

 PROGRAMS   *        TOTAL       INT
 CPU TIMES  *         2.04      1.95
 REAL TIME  *         4.70 SEC
 DISK USED  *       521.65 MB
 **********************************************************************************************************************************


 Program * Restricted Hartree-Fock

 Orbital guess generated from atomic densities. Full valence occupancy:   26

 Initial occupancy:  22

 NELEC=   44   SYM=1   MS2= 0   THRE=1.0D-08   THRD=3.2D-06   THRG=3.2D-06  HFMA2=F  DIIS_START=2   DIIS_MAX=10   DIIS_INCORE=F

 Level shifts:    0.00 (CLOSED)    0.00 (OPEN)    0.30 (GAP_MIN)

 ITER           ETOT              DE          GRAD        DDIFF     DIIS  NEXP   TIME(IT)  TIME(TOT)  DIAG
   1     -958.67126964    -958.67126964     0.00D+00     0.93D-01     0     0       0.21      0.42    start
   2     -958.72215808      -0.05088844     0.39D-02     0.12D-01     1     0       0.22      0.64    diag
   3     -958.72818247      -0.00602439     0.17D-02     0.18D-02     2     0       0.22      0.86    diag
   4     -958.72859933      -0.00041687     0.28D-03     0.62D-03     3     0       0.22      1.08    diag
   5     -958.72862742      -0.00002809     0.75D-04     0.16D-03     4     0       0.22      1.30    diag
   6     -958.72863054      -0.00000311     0.30D-04     0.58D-04     5     0       0.22      1.52    diag
   7     -958.72863069      -0.00000015     0.47D-05     0.15D-04     6     0       0.22      1.74    diag
   8     -958.72863070      -0.00000001     0.13D-05     0.34D-05     7     0       0.22      1.96    fixocc
   9     -958.72863071      -0.00000000     0.42D-06     0.14D-05     8     0       0.23      2.19    diag
  10     -958.72863071      -0.00000000     0.82D-07     0.16D-06     0     0       0.22      2.41    diag/orth

 Final occupancy:  22

 !RHF STATE 1.1 Energy               -958.728630705221
  RHF One-electron energy           -1546.307796588897
  RHF Two-electron energy             480.536939961968
  RHF Kinetic energy                  958.804869952780
  RHF Nuclear energy                  107.042225921708
  RHF Virial quotient                  -0.999920485127

 !RHF STATE 1.1 Dipole moment           0.00000000     0.00000000    -3.62808949
 Dipole moment /Debye                   0.00000000     0.00000000    -9.22168366

 Orbital energies:

           1.1          2.1          3.1          4.1          5.1          6.1          7.1          8.1          9.1         10.1
   -104.690493  -104.500367   -11.140240   -10.416167   -10.226973    -7.882920    -7.881475    -7.881475    -7.692987    -7.692984

          11.1         12.1         13.1         14.1         15.1         16.1         17.1         18.1         19.1         20.1
     -7.692984    -0.984661    -0.771789    -0.738509    -0.466981    -0.466981    -0.400664    -0.306338    -0.306338    -0.158945

          21.1         22.1         23.1         24.1
     -0.158336    -0.158336     0.290270     0.334255


 HOMO     22.1    -0.158336 =      -4.3085eV
 LUMO     23.1     0.290270 =       7.8986eV
 LUMO-HOMO         0.448606 =      12.2072eV

 Orbitals saved in record  2100.2


 **********************************************************************************************************************************
 DATASETS  * FILE   NREC   LENGTH (MB)   RECORD NAMES
              1      19      137.99       500      610      700      900      950      970     1000      129      960     1100   
                                          VAR    BASINP    GEOM    SYMINP    ZMAT    AOBASIS   BASIS     P2S    ABASIS      S 
                                         1400     1410     1200     1210     1080     1600     1650     1300     1700   
                                           T        V       H0       H01     AOSYM     SMH    MOLCAS    ERIS     OPER   

              2       4        0.78       700     1000      520     2100   
                                         GEOM     BASIS   MCVARS     RHF  

 PROGRAMS   *        TOTAL    HF-SCF       INT
 CPU TIMES  *         4.45      2.41      1.95
 REAL TIME  *         7.71 SEC
 DISK USED  *       521.65 MB
 **********************************************************************************************************************************


 Program * Restricted Hartree-Fock

 Molecular orbitals read from record     2100.2  Type=RHF/CANONICAL  

 Initial occupancy:  22

 NELEC=   44   SYM=1   MS2= 0   THRE=1.0D-08   THRD=3.2D-06   THRG=3.2D-06  HFMA2=F  DIIS_START=2   DIIS_MAX=10   DIIS_INCORE=F

 Level shifts:    0.00 (CLOSED)    0.00 (OPEN)    0.30 (GAP_MIN)

 ITER           ETOT              DE          GRAD        DDIFF     DIIS  NEXP   TIME(IT)  TIME(TOT)  DIAG
   1     -958.72863071    -958.72863071     0.00D+00     0.91D-01     0     0       0.22      0.22    start
   2     -958.72863071      -0.00000000     0.33D-07     0.59D-07     1     0       0.22      0.44    diag

 Final occupancy:  22

 !RHF STATE 1.1 Energy               -958.728630705228
  RHF One-electron energy           -1546.307809153520
  RHF Two-electron energy             480.536952526585
  RHF Kinetic energy                  958.804881212319
  RHF Nuclear energy                  107.042225921708
  RHF Virial quotient                  -0.999920473385

 !RHF STATE 1.1 Dipole moment           0.00000000     0.00000000    -3.62808275
 Dipole moment /Debye                   0.00000000     0.00000000    -9.22166653

 Orbital energies:

           1.1          2.1          3.1          4.1          5.1          6.1          7.1          8.1          9.1         10.1
   -104.690495  -104.500368   -11.140239   -10.416169   -10.226974    -7.882922    -7.881477    -7.881477    -7.692988    -7.692985

          11.1         12.1         13.1         14.1         15.1         16.1         17.1         18.1         19.1         20.1
     -7.692985    -0.984661    -0.771789    -0.738509    -0.466981    -0.466981    -0.400664    -0.306339    -0.306339    -0.158946

          21.1         22.1         23.1         24.1
     -0.158336    -0.158336     0.290270     0.334255


 HOMO     22.1    -0.158336 =      -4.3085eV
 LUMO     23.1     0.290270 =       7.8986eV
 LUMO-HOMO         0.448606 =      12.2072eV

 Orbitals saved in record  2101.2


 **********************************************************************************************************************************
 DATASETS  * FILE   NREC   LENGTH (MB)   RECORD NAMES
              1      19      137.99       500      610      700      900      950      970     1000      129      960     1100   
                                          VAR    BASINP    GEOM    SYMINP    ZMAT    AOBASIS   BASIS     P2S    ABASIS      S 
                                         1400     1410     1200     1210     1080     1600     1650     1300     1700   
                                           T        V       H0       H01     AOSYM     SMH    MOLCAS    ERIS     OPER   

              2       5        1.41       700     1000      520     2100     2101   
                                         GEOM     BASIS   MCVARS     RHF      RHF  

 PROGRAMS   *        TOTAL    HF-SCF    HF-SCF       INT
 CPU TIMES  *         4.90      0.45      2.41      1.95
 REAL TIME  *         8.42 SEC
 DISK USED  *       521.65 MB
 **********************************************************************************************************************************


 PROGRAM * PAPT (Closed-shell)     Authors: C. Hampel, H.-J. Werner, 1991, P.J. Knowles, 2021


 Convergence thresholds:  THRVAR = 1.00D-08  THRDEN = 1.00D-06

 Number of core orbitals:          11 (  11 )
 Number of closed-shell orbitals:  11 (  11 )
 Number of external orbitals:     118 ( 118 )

 Molecular orbitals read from record     2101.2  Type=RHF/CANONICAL  

 Number of N-1 electron functions:              11
 Number of N-2 electron functions:              66
 Number of singly external CSFs:              1298
 Number of doubly external CSFs:            843051
 Total number of CSFs:                      844350

 Length of J-op  integral file:               0.00 MB
 Length of K-op  integral file:               1.41 MB

 Integral transformation finished. Total CPU:   0.39 sec, npass=  1  Memory used:   2.58 MW

 Reference energy:                   -958.72863071

                        CORR.ENERGY   TOTAL ENERGY   ENERGY CHANGE
 MP2:                   -0.57245017  -959.30108087    -0.57245017

 SCS-MP2 correlation energy:           -0.56980616   (PS=  1.200000  PT=  0.333333)
 SCS-MP2 total energy:               -959.29843686
 Iteration:   1     0.1837D+00
 Iteration:   2     0.2943D+00
 Iteration:   3     0.4591D-01
 Iteration:   4     0.4542D-01
 Iteration:   5     0.4357D-01
 Iteration:   6     0.2032D-01
 Iteration:   7     0.5796D-01
 Iteration:   8     0.6513D-02
 Iteration:   9     0.7254D-02
 Iteration:  10     0.4766D-02
 Iteration:  11     0.2145D-02
 Iteration:  12     0.1045D-01
 Iteration:  13     0.2588D-02
 Iteration:  14     0.3839D-02
 Iteration:  15     0.1078D-01
 Iteration:  16     0.1679D-02
 Iteration:  17     0.4665D-02
 Iteration:  18     0.4305D-03
 Iteration:  19     0.1945D-03
 Iteration:  20     0.2614D-02
 Iteration:  21     0.4814D-04
 PAPT operator written to  7000.1
 PAPT orbitals and eigenvalues written to  7000.2

 MP3(D):                -0.61942557  -959.34805627    -0.04697540



 RESULTS
 =======

  Reference energy                   -958.728630705227
  MP3 singlet pair energy              -0.418624711881
  MP3 triplet pair energy              -0.200800853831
  MP3 correlation energy               -0.619425565712

 !MP3 total energy                   -959.348056270940

 Timing summary (sec):

 STEP                 CPU(USER)    SYS     CPU(TOT)    WALL
 Transformation          0.42      0.04      0.46      0.61
 CCSD iterations         8.01      0.20      8.21      4.10

 Program statistics:

 Available memory in ccsd:               805305862
 Min. memory needed in ccsd:               2360550
 Max. memory used in ccsd:                 3065232
 Max. memory used in cckext:               2778578 ( 1 integral passes)



 **********************************************************************************************************************************
 DATASETS  * FILE   NREC   LENGTH (MB)   RECORD NAMES
              1      21      153.20       500      610      700      900      950      970     1000      129      960     1100   
                                          VAR    BASINP    GEOM    SYMINP    ZMAT    AOBASIS   BASIS     P2S    ABASIS      S 
                                         1400     1410     1200     1210     1080     1600     1650     1300     1700     1380   
                                           T        V       H0       H01     AOSYM     SMH    MOLCAS    ERIS     OPER     JKOP   
                                         7000   
                                        PAPT AO    

              2       6        1.96       700     1000      520     2100     2101     7000   
                                         GEOM     BASIS   MCVARS     RHF      RHF     PAPT   

 PROGRAMS   *        TOTAL      PAPT    HF-SCF    HF-SCF       INT
 CPU TIMES  *         8.35      3.43      0.45      2.41      1.95
 REAL TIME  *        13.29 SEC
 DISK USED  *       521.65 MB
 **********************************************************************************************************************************


 PROGRAM * MP4 (Closed-shell)     Authors: C. Hampel, H.-J. Werner, 1991, M. Deegan, P.J. Knowles, 1992


 Convergence thresholds:  THRVAR = 1.00D-08  THRDEN = 1.00D-06

 MP4(T)     terms to be evaluated (factor= 0.000)


 Number of core orbitals:          11 (  11 )
 Number of closed-shell orbitals:  11 (  11 )
 Number of external orbitals:     118 ( 118 )

 Molecular orbitals read from record     7000.2  Type=PAPT/CANONICAL (state 1.1)

 Number of N-1 electron functions:              11
 Number of N-2 electron functions:              66
 Number of singly external CSFs:              1298
 Number of doubly external CSFs:            843051
 Total number of CSFs:                      844350

 Length of J-op  integral file:               0.00 MB
 Length of K-op  integral file:               1.41 MB

 Memory could be reduced to 24.50 Mwords without degradation in triples

 Integral transformation finished. Total CPU:   0.82 sec, npass=  1  Memory used:  19.17 MW
 Orbital energies read from record       7000.2  Type=PAPT/CANONICAL (state 1.1)

 Reference energy:                   -958.72863071

                        CORR.ENERGY   TOTAL ENERGY   ENERGY CHANGE
 MP2:                   -0.62692195  -959.35555265    -0.62692195

 SCS-MP2 correlation energy:           -0.62593808   (PS=  1.200000  PT=  0.333333)
 SCS-MP2 total energy:               -959.35456878

 MP3(D):                -0.62645951  -959.35509022     0.00046243
 MP4(DQ):               -0.61602662  -959.34465733     0.01043289
 MP4(SDQ):              -0.61854270  -959.34717341    -0.00251608

 Norm of t1 vector:      0.04421203      S-energy:    -0.00251608      T1 diagnostic:  0.00666521

 Largest off-diagonal element in interal  block of Fock matrix:  0.13D+00
 Largest off-diagonal element in external block of Fock matrix:  0.24D+00


 Total CPU time for triples:     11.36 sec


 RESULTS
 =======

  Reference energy                   -958.728630705227
  MP4(SDQ) singlet pair energy         -0.420094211517
  MP4(SDQ) triplet pair energy         -0.195932408431
  MP4(SDQ) correlation energy          -0.618542704258

  Triples contribution                 -0.027505613857
  Total correlation energy             -0.646048318114

  MP4(SDQ) total energy              -959.347173409485
 !MP4(SDTQ) total energy             -959.374679023342

 Timing summary (sec):

 STEP                 CPU(USER)    SYS     CPU(TOT)    WALL
 Transformation          1.07      0.10      1.17      1.37
 CCSD iterations         9.84      0.06      9.90      1.81
 Triples                11.36      0.76     12.12     13.11

 Program statistics:

 Available memory in ccsd:               805305862
 Min. memory needed in ccsd:               2360550
 Max. memory used in ccsd:                 3065232
 Max. memory used in cckext:               2778578 ( 1 integral passes)



 **********************************************************************************************************************************
 DATASETS  * FILE   NREC   LENGTH (MB)   RECORD NAMES
              1      22      222.73       500      610      700      900      950      970     1000      129      960     1100   
                                          VAR    BASINP    GEOM    SYMINP    ZMAT    AOBASIS   BASIS     P2S    ABASIS      S 
                                         1400     1410     1200     1210     1080     1600     1650     1300     1700     1380   
                                           T        V       H0       H01     AOSYM     SMH    MOLCAS    ERIS     OPER     JKOP   
                                         7000     1380(1)
                                        PAPT AO   JKOP   

              2       6        1.96       700     1000      520     2100     2101     7000   
                                         GEOM     BASIS   MCVARS     RHF      RHF     PAPT   

 PROGRAMS   *        TOTAL       MP4      PAPT    HF-SCF    HF-SCF       INT
 CPU TIMES  *        22.19     13.85      3.43      0.45      2.41      1.95
 REAL TIME  *        29.69 SEC
 DISK USED  *       521.65 MB
 **********************************************************************************************************************************

 Dump information in style XML to xml output                                                                      

 Orbitals will not be exported.

 **********************************************************************************************************************************

 MP4/cc-pVTZ energy=   -959.374679023342

             MP4            PAPT          HF-SCF          HF-SCF
   -959.37467902   -959.34805627   -958.72863071   -958.72863071
 **********************************************************************************************************************************
 Molpro calculation terminated
