
 Working directory              : /var/folders/2v/xbgp75_9785319ghcgb4zr4r0000gp/T//molpro.IZLAzys0iM/
 Global scratch directory       : /var/folders/2v/xbgp75_9785319ghcgb4zr4r0000gp/T//molpro.IZLAzys0iM/
 Wavefunction directory         : /Users/sacpjk/wfu/
 Main file repository           : /var/folders/2v/xbgp75_9785319ghcgb4zr4r0000gp/T//molpro.IZLAzys0iM/

 id        : peterk

 Nodes                        nprocs
 Cardiff-University-G34YLXT77Y    1
 GA implementation: MPI file
 GA implementation (serial work in mppx): MPI file

 Using customized tuning parameters: mindgm=1; mindgv=20; mindgc=4; mindgr=1; noblas=0; minvec=7
 default implementation of scratch files=df  


 Variables initialized (1032), CPU time= 0.00 sec
 
 symmetry,nosym
 
 
 geometry={
 7
  c         -1.219464515572    0.073760515072    0.057955212954
  h         -0.153593967574    0.043388991216    0.033362449116
  c         -2.431341092167    0.107502198428    0.085327262797
  h         -3.491874598154    0.137853634187    0.109928546917
  o          2.051307305400   -0.041241326464   -0.032742747897
  h          2.621663720801   -0.631010707653    0.464284178043
  h          2.623303147372    0.309746695214   -0.718114902141
 }
 basis=aug-cc-pVTZ
 
 
 
 hf; ccsd
 
 
 
 {put,xml;noorbitals,nobasis}
 Commands initialized (841), CPU time= 0.01 sec, 704 directives.
 Default parameters read. Elapsed time= 0.07 sec

 Checking input...
 Passed
1


                                         ***  PROGRAM SYSTEM MOLPRO  ***
                                       Copyright, TTI GmbH Stuttgart, 2015
                                    Version 2023.1 linked Tue Jun  6 09:54:11 2023


 **********************************************************************************************************************************
 LABEL *                                                                                                                                                                 
  64 bit serial version                                                                  DATE: 09-Jun-23          TIME: 00:36:05  
 **********************************************************************************************************************************

 SHA1:             8ebb0dd001088a5c915591db1a321413035db0b1
 **********************************************************************************************************************************

 Memory per process:       805 MW
 Total memory per node:   1074 MW
 Total GA space:           268 MW

 GA preallocation disabled
 GA check enabled

 Variable memory set to 805.3 MW

 ZSYMEL=NOSYM


 Geometry recognized as XYZ

 SETTING BASIS          =    AUG-CC-PVTZ


 Recomputing integrals since basis changed


 Using spherical harmonics

 Library entry C      S aug-cc-pVTZ          selected for orbital group  1
 Library entry C      P aug-cc-pVTZ          selected for orbital group  1
 Library entry C      D aug-cc-pVTZ          selected for orbital group  1
 Library entry C      F aug-cc-pVTZ          selected for orbital group  1
 Library entry H      S aug-cc-pVTZ          selected for orbital group  2
 Library entry H      P aug-cc-pVTZ          selected for orbital group  2
 Library entry H      D aug-cc-pVTZ          selected for orbital group  2
 Library entry O      S aug-cc-pVTZ          selected for orbital group  5
 Library entry O      P aug-cc-pVTZ          selected for orbital group  5
 Library entry O      D aug-cc-pVTZ          selected for orbital group  5
 Library entry O      F aug-cc-pVTZ          selected for orbital group  5


 PROGRAM * SEWARD (Integral evaluation for generally contracted gaussian basis sets)     Author: Roland Lindh, 1990

 Geometry written to block  1 of record 700


 Point group  C1  



 ATOMIC COORDINATES

 NR  ATOM    CHARGE       X              Y              Z

   1  C       6.00   -2.304453953    0.139387172    0.109519480
   2  H       1.00   -0.290250533    0.081993310    0.063045892
   3  C       6.00   -4.594568780    0.203149713    0.161245158
   4  H       1.00   -6.598686652    0.260505614    0.207734847
   5  O       8.00    3.876409005   -0.077934812   -0.061874826
   6  H       1.00    4.954226423   -1.192437419    0.877369940
   7  H       1.00    4.957324490    0.585336422   -1.357040491

 Bond lengths in Bohr (Angstrom)

 1-2  2.015556813  1-3  2.291586159  3-4  2.005477359  5-6  1.812729208  5-7  1.812666852
     ( 1.066586733)     ( 1.212655172)     ( 1.061252915)     ( 0.959254986)     ( 0.959221989)

 Bond angles

  1-3-4  179.94347663   2-1-3  179.95345016   6-5-7  103.92346879

 NUCLEAR CHARGE:                   24
 NUMBER OF PRIMITIVE AOS:         309
 NUMBER OF SYMMETRY AOS:          274
 NUMBER OF CONTRACTIONS:          230   (  230A   )
 NUMBER OF INNER CORE ORBITALS:     0   (    0A   )
 NUMBER OF OUTER CORE ORBITALS:     3   (    3A   )
 NUMBER OF VALENCE ORBITALS:       16   (   16A   )


 NUCLEAR REPULSION ENERGY   53.29797980


 Eigenvalues of metric

         1 0.505E-05 0.714E-05 0.289E-04 0.960E-04 0.195E-03 0.248E-03 0.265E-03 0.305E-03


 Contracted 2-electron integrals neglected if value below      1.0D-12
 AO integral compression algorithm  1   Integral accuracy      1.0D-12

     1396.703 MB (compressed) written to integral file ( 43.1%)


 NUMBER OF SORTED TWO-ELECTRON INTEGRALS:  352862895.     BUFFER LENGTH:  32768
 NUMBER OF SEGMENTS:  23  SEGMENT LENGTH:   15999762      RECORD LENGTH: 524288

 Memory used in sort:      16.56 MW

 SORT1 READ   405469932. AND WROTE   300172700. INTEGRALS IN    868 RECORDS. CPU TIME:     2.58 SEC, REAL TIME:     3.93 SEC
 SORT2 READ   300172700. AND WROTE   352862895. INTEGRALS IN   5328 RECORDS. CPU TIME:     2.09 SEC, REAL TIME:     3.10 SEC

 FILE SIZES:   FILE 1:  1428.8 MBYTE,  FILE 4:  3640.7 MBYTE,   TOTAL:   5069.5 MBYTE

 OPERATOR DM      FOR CENTER  0  COORDINATES:    0.000000    0.000000    0.000000


 **********************************************************************************************************************************
 DATASETS  * FILE   NREC   LENGTH (MB)   RECORD NAMES
              1      19     1185.06       500      610      700      900      950      970     1000      129      960     1100   
                                          VAR    BASINP    GEOM    SYMINP    ZMAT    AOBASIS   BASIS     P2S    ABASIS      S 
                                         1400     1410     1200     1210     1080     1600     1650     1300     1700   
                                           T        V       H0       H01     AOSYM     SMH    MOLCAS    ERIS     OPER   

 PROGRAMS   *        TOTAL       INT
 CPU TIMES  *        11.27     11.18
 REAL TIME  *        14.78 SEC
 DISK USED  *         4.72 GB
 **********************************************************************************************************************************


 Program * Restricted Hartree-Fock

 Orbital guess generated from atomic densities. Full valence occupancy:   19

 Initial occupancy:  12

 NELEC=   24   SYM=1   MS2= 0   THRE=1.0D-08   THRD=3.2D-06   THRG=3.2D-06  HFMA2=F  DIIS_START=2   DIIS_MAX=10   DIIS_INCORE=F

 Level shifts:    0.00 (CLOSED)    0.00 (OPEN)    0.30 (GAP_MIN)

 ITER           ETOT              DE          GRAD        DDIFF     DIIS  NEXP   TIME(IT)  TIME(TOT)  DIAG
   1     -152.86289557    -152.86289557     0.00D+00     0.46D-01     0     0       1.63      3.18    start
   2     -152.90179795      -0.03890238     0.46D-02     0.76D-02     1     0       1.76      4.94    diag
   3     -152.91256537      -0.01076742     0.26D-02     0.20D-02     2     0       1.69      6.63    diag
   4     -152.91300843      -0.00044306     0.38D-03     0.70D-03     3     0       1.84      8.47    diag
   5     -152.91305287      -0.00004445     0.10D-03     0.19D-03     4     0       1.70     10.17    diag
   6     -152.91305671      -0.00000384     0.34D-04     0.62D-04     5     0       1.70     11.87    diag
   7     -152.91305728      -0.00000056     0.13D-04     0.18D-04     6     0       1.63     13.50    diag
   8     -152.91305732      -0.00000004     0.31D-05     0.38D-05     7     0       1.87     15.37    fixocc
   9     -152.91305733      -0.00000000     0.75D-06     0.15D-05     8     0       1.69     17.06    diag
  10     -152.91305733      -0.00000000     0.18D-06     0.26D-06     0     0       1.61     18.67    diag/orth

 Final occupancy:  12

 !RHF STATE 1.1 Energy               -152.913057325403
  RHF One-electron energy            -313.467296836905
  RHF Two-electron energy             107.256259712272
  RHF Kinetic energy                  152.604491149842
  RHF Nuclear energy                   53.297979799230
  RHF Virial quotient                  -1.002021999308

 !RHF STATE 1.1 Dipole moment           0.98518959    -0.16526128    -0.13040933
 Dipole moment /Debye                   2.50410217    -0.42005227    -0.33146744

 Orbital energies:

           1.1          2.1          3.1          4.1          5.1          6.1          7.1          8.1          9.1         10.1
    -20.584209   -11.227382   -11.223737    -1.370844    -1.010172    -0.750422    -0.732744    -0.665683    -0.601169    -0.528384

          11.1         12.1         13.1         14.1
     -0.391379    -0.391255     0.022614     0.035544


 HOMO     12.1    -0.391255 =     -10.6466eV
 LUMO     13.1     0.022614 =       0.6154eV
 LUMO-HOMO         0.413869 =      11.2619eV

 Orbitals saved in record  2100.2


 **********************************************************************************************************************************
 DATASETS  * FILE   NREC   LENGTH (MB)   RECORD NAMES
              1      19     1185.06       500      610      700      900      950      970     1000      129      960     1100   
                                          VAR    BASINP    GEOM    SYMINP    ZMAT    AOBASIS   BASIS     P2S    ABASIS      S 
                                         1400     1410     1200     1210     1080     1600     1650     1300     1700   
                                           T        V       H0       H01     AOSYM     SMH    MOLCAS    ERIS     OPER   

              2       4        1.32       700     1000      520     2100   
                                         GEOM     BASIS   MCVARS     RHF  

 PROGRAMS   *        TOTAL    HF-SCF       INT
 CPU TIMES  *        29.94     18.67     11.18
 REAL TIME  *        38.08 SEC
 DISK USED  *         4.72 GB
 **********************************************************************************************************************************


 PROGRAM * CCSD (Closed-shell coupled cluster)     Authors: C. Hampel, H.-J. Werner, 1991, M. Deegan, P.J. Knowles, 1992


 Convergence thresholds:  THRVAR = 1.00D-08  THRDEN = 1.00D-06

 Number of core orbitals:           3 (   3 )
 Number of closed-shell orbitals:   9 (   9 )
 Number of external orbitals:     218 ( 218 )

 Molecular orbitals read from record     2100.2  Type=RHF/CANONICAL  

 Number of N-1 electron functions:               9
 Number of N-2 electron functions:              45
 Number of singly external CSFs:              1962
 Number of doubly external CSFs:           1925703
 Total number of CSFs:                     1927666

 Length of J-op  integral file:               0.00 MB
 Length of K-op  integral file:               3.69 MB
 Length of 3-ext integral record:             0.00 MB

 Integral transformation finished. Total CPU:   7.29 sec, npass=  1  Memory used:  66.24 MW

 Reference energy:                   -152.91305733

 MP2 singlet pair energy:              -0.37705827
 MP2 triplet pair energy:              -0.20794629
 MP2 correlation energy:               -0.58500456
 MP2 total energy:                   -153.49806189

 SCS-MP2 correlation energy:           -0.58185873   (PS=  1.200000  PT=  0.333333)
 SCS-MP2 total energy:               -153.49491606

 ITER.      SQ.NORM     CORR.ENERGY   TOTAL ENERGY   ENERGY CHANGE        DEN1      VAR(S)    VAR(P)  DIIS     TIME  TIME/IT
   1      1.18365807    -0.59846015  -153.51151747    -0.01345558     0.00219669  0.29D-02  0.33D-02  1  1    43.16     6.60
   2      1.19666005    -0.60005389  -153.51311122    -0.00159374    -0.01329783  0.51D-04  0.51D-03  2  2    49.02     6.69
   3      1.20288287    -0.60038972  -153.51344704    -0.00033583    -0.00323471  0.24D-04  0.53D-04  3  3    54.21     6.37
   4      1.20553819    -0.60048087  -153.51353820    -0.00009115    -0.00093869  0.10D-05  0.73D-05  4  4    59.53     6.28
   5      1.20624466    -0.60048962  -153.51354695    -0.00000875    -0.00016780  0.13D-06  0.87D-06  5  5    65.03     6.25
   6      1.20644513    -0.60048721  -153.51354454     0.00000241    -0.00004056  0.13D-07  0.58D-07  6  6    70.93     6.31
   7      1.20646580    -0.60048909  -153.51354641    -0.00000187    -0.00000339  0.19D-08  0.56D-08  6  1    76.96     6.43
   8      1.20646715    -0.60048962  -153.51354694    -0.00000053     0.00000087  0.23D-09  0.60D-09  6  2    82.09     6.38
   9      1.20646732    -0.60048975  -153.51354707    -0.00000013     0.00000009  0.62D-10  0.65D-10  6  4    86.93     6.29

 Norm of t1 vector:      0.07178881      S-energy:     0.00000030      T1 diagnostic:  0.01196480
                                                                       D1 diagnostic:  0.02840736
                                                                       D2 diagnostic:  0.18306362 (internal)

 Doubles amplitudes (print threshold =  0.500E-01):

         I         J         SYM. A    SYM. B    A         B      T(IJ, AB)

         8         8         1         1        16        16     -0.06002862
         9         9         1         1        15        15     -0.06135825


 RESULTS
 =======

  Reference energy                   -152.913057325404
  CCSD singlet pair energy             -0.418568308662
  CCSD triplet pair energy             -0.181921734643
  CCSD correlation energy              -0.600489746454

 !CCSD total energy                  -153.513547071858

 Timing summary (sec):

 STEP                 CPU(USER)    SYS     CPU(TOT)    WALL
 Transformation          7.37      0.75      8.12      9.35
 CCSD iterations        79.61      2.96     82.57     56.81

 Program statistics:

 Available memory in ccsd:               805306032
 Min. memory needed in ccsd:               5465211
 Max. memory used in ccsd:                 7129653
 Max. memory used in cckext:               5195200 ( 9 integral passes)



 **********************************************************************************************************************************
 DATASETS  * FILE   NREC   LENGTH (MB)   RECORD NAMES
              1      20     1570.47       500      610      700      900      950      970     1000      129      960     1100   
                                          VAR    BASINP    GEOM    SYMINP    ZMAT    AOBASIS   BASIS     P2S    ABASIS      S 
                                         1400     1410     1200     1210     1080     1600     1650     1300     1700     1380   
                                           T        V       H0       H01     AOSYM     SMH    MOLCAS    ERIS     OPER     JKOP   

              2       4        1.32       700     1000      520     2100   
                                         GEOM     BASIS   MCVARS     RHF  

 PROGRAMS   *        TOTAL      CCSD    HF-SCF       INT
 CPU TIMES  *        86.90     56.96     18.67     11.18
 REAL TIME  *       104.43 SEC
 DISK USED  *         4.72 GB
 **********************************************************************************************************************************

 Dump information in style XML to xml output                                                                      

 Orbitals will not be exported.

 **********************************************************************************************************************************

 CCSD/aug-cc-pVTZ energy=   -153.513547071858

            CCSD          HF-SCF
   -153.51354707   -152.91305733
 **********************************************************************************************************************************
 Molpro calculation terminated
