
 Working directory              : /var/folders/2v/xbgp75_9785319ghcgb4zr4r0000gp/T//molpro.oAmZI0gcVH/
 Global scratch directory       : /var/folders/2v/xbgp75_9785319ghcgb4zr4r0000gp/T//molpro.oAmZI0gcVH/
 Wavefunction directory         : /Users/sacpjk/wfu/
 Main file repository           : /var/folders/2v/xbgp75_9785319ghcgb4zr4r0000gp/T//molpro.oAmZI0gcVH/

 id        : peterk

 Nodes                        nprocs
 Cardiff-University-G34YLXT77Y    1
 GA implementation: MPI file
 GA implementation (serial work in mppx): MPI file

 Using customized tuning parameters: mindgm=1; mindgv=20; mindgc=4; mindgr=1; noblas=0; minvec=7
 default implementation of scratch files=df  


 Variables initialized (1032), CPU time= 0.00 sec
 
 symmetry,nosym
 
 
 geometry={
           11
     O         -2.08938271      0.82426315     -0.79451875
     S         -1.20395695     -0.20237954      0.03793684
     O         -0.96936483      0.41469892      1.31835902
     O         -1.72815681     -1.52556412     -0.09889423
     O          0.16734080     -0.06823650     -0.84156961
     S          1.65770905     -0.26432717     -0.05362682
     O          1.66402544      1.02817621      0.85675061
     O          1.55993090     -1.45589929      0.73334280
     O          2.60689562     -0.06331648     -1.09423768
     H         -2.53817447      0.33875104     -1.51496149
     H          0.87313394      0.97383379      1.45141931
 }
 basis=cc-pVTZ
 
 
 
 hf
 
 
 
 {put,xml;noorbitals,nobasis}
 Commands initialized (841), CPU time= 0.01 sec, 704 directives.
 Default parameters read. Elapsed time= 0.27 sec

 Checking input...
 Passed
1


                                         ***  PROGRAM SYSTEM MOLPRO  ***
                                       Copyright, TTI GmbH Stuttgart, 2015
                                    Version 2023.1 linked Tue Jun  6 09:54:11 2023


 **********************************************************************************************************************************
 LABEL *                                                                                                                                                                 
  64 bit serial version                                                                  DATE: 12-Jun-23          TIME: 23:31:52  
 **********************************************************************************************************************************

 SHA1:             8ebb0dd001088a5c915591db1a321413035db0b1
 **********************************************************************************************************************************

 Memory per process:       393 MW
 Total memory per node:    524 MW
 Total GA space:           131 MW

 GA preallocation disabled
 GA check enabled

 Variable memory set to 393.2 MW

 ZSYMEL=NOSYM


 Geometry recognized as XYZ

 SETTING BASIS          =    CC-PVTZ


 Recomputing integrals since basis changed


 Using spherical harmonics

 Library entry O      S cc-pVTZ              selected for orbital group  1
 Library entry O      P cc-pVTZ              selected for orbital group  1
 Library entry O      D cc-pVTZ              selected for orbital group  1
 Library entry O      F cc-pVTZ              selected for orbital group  1
 Library entry S      S cc-pVTZ              selected for orbital group  2
 Library entry S      P cc-pVTZ              selected for orbital group  2
 Library entry S      D cc-pVTZ              selected for orbital group  2
 Library entry S      F cc-pVTZ              selected for orbital group  2
 Library entry H      S cc-pVTZ              selected for orbital group  6
 Library entry H      P cc-pVTZ              selected for orbital group  6
 Library entry H      D cc-pVTZ              selected for orbital group  6


 PROGRAM * SEWARD (Integral evaluation for generally contracted gaussian basis sets)     Author: Roland Lindh, 1990

 Geometry written to block  1 of record 700


 Point group  C1  



 ATOMIC COORDINATES

 NR  ATOM    CHARGE       X              Y              Z

   1  O       8.00   -3.948361091    1.557631608   -1.501422838
   2  S      16.00   -2.275148901   -0.382441904    0.071690238
   3  O       8.00   -1.831834044    0.783667383    2.491337482
   4  O       8.00   -3.265743071   -2.882898372   -0.186883010
   5  O       8.00    0.316228281   -0.128948297   -1.590336078
   6  S      16.00    3.132616099   -0.499505959   -0.101340003
   7  O       8.00    3.144552346    1.942971445    1.619024010
   8  O       8.00    2.947842174   -2.751250923    1.385817047
   9  O       8.00    4.926318757   -0.119650806   -2.067809530
  10  H       1.00   -4.796454605    0.640146690   -2.862862305
  11  H       1.00    1.649984017    1.840279154    2.742784988

 Bond lengths in Bohr (Angstrom)

  1- 2  3.006361425   1-10  1.847852430   2- 3  2.722321017   2- 4  2.701928845   2- 5  3.088984653
       ( 1.590897954)       ( 0.977841395)       ( 1.440590243)       ( 1.429799170)       ( 1.634620283)

 2-6  5.411798754  5-6  3.207251569  6-7  2.987555970  6-8  2.704835093  6-9  2.688617036
     ( 2.863800571)     ( 1.697204440)     ( 1.580946536)     ( 1.431337090)     ( 1.422754864)

  7-11  1.872730342
       ( 0.991006219)

 Bond angles

  1-2-3  106.21792901   1-2-4  110.06463597   1-2-5   97.60846257   1-2-6  123.59861532

  2- 1-10  108.69613644   2- 5- 6  118.51549643   2- 6- 5   30.10218618   2- 6- 7   88.16028231

  2-6-8   86.11047776   2-6-9  133.39141447   3-2-4  122.76351744   3-2-5  107.84626811

  3-2-6   82.81697364   4-2-5  109.39132850   4-2-6  110.07643720   5-2-6   31.38231739

  5- 6- 7  100.15963215   5- 6- 8  106.94494652   5- 6- 9  103.29456123   6- 7-11  107.30896796

  7-6-8  111.36251475   7-6-9  107.63810673   8-6-9  124.42507130

 NUCLEAR CHARGE:                   90
 NUMBER OF PRIMITIVE AOS:         491
 NUMBER OF SYMMETRY AOS:          444
 NUMBER OF CONTRACTIONS:          306   (  306A   )
 NUMBER OF INNER CORE ORBITALS:     2   (    2A   )
 NUMBER OF OUTER CORE ORBITALS:    15   (   15A   )
 NUMBER OF VALENCE ORBITALS:       38   (   38A   )


 NUCLEAR REPULSION ENERGY  801.25554653


 Eigenvalues of metric

         1 0.141E-02 0.174E-02 0.198E-02 0.216E-02 0.238E-02 0.241E-02 0.242E-02 0.258E-02


 Contracted 2-electron integrals neglected if value below      1.0D-11
 AO integral compression algorithm  1   Integral accuracy      1.0D-11

     2900.886 MB (compressed) written to integral file ( 32.7%)


 NUMBER OF SORTED TWO-ELECTRON INTEGRALS: 1103160906.     BUFFER LENGTH:  32768
 NUMBER OF SEGMENTS:  35  SEGMENT LENGTH:   31998710      RECORD LENGTH: 524288

 Memory used in sort:      32.56 MW

 SORT1 READ  1107999407. AND WROTE   794401535. INTEGRALS IN   2292 RECORDS. CPU TIME:     8.40 SEC, REAL TIME:    11.28 SEC
 SORT2 READ   794401535. AND WROTE  1103160906. INTEGRALS IN  11066 RECORDS. CPU TIME:     6.53 SEC, REAL TIME:    14.48 SEC

 FILE SIZES:   FILE 1:  2934.5 MBYTE,  FILE 4:  9613.4 MBYTE,   TOTAL:  12547.9 MBYTE

 OPERATOR DM      FOR CENTER  0  COORDINATES:    0.000000    0.000000    0.000000


 **********************************************************************************************************************************
 DATASETS  * FILE   NREC   LENGTH (MB)   RECORD NAMES
              1      19     2492.98       500      610      700      900      950      970     1000      129      960     1100   
                                          VAR    BASINP    GEOM    SYMINP    ZMAT    AOBASIS   BASIS     P2S    ABASIS      S 
                                         1400     1410     1200     1210     1080     1600     1650     1300     1700   
                                           T        V       H0       H01     AOSYM     SMH    MOLCAS    ERIS     OPER   

 PROGRAMS   *        TOTAL       INT
 CPU TIMES  *        39.48     39.39
 REAL TIME  *        54.48 SEC
 DISK USED  *        11.69 GB
 **********************************************************************************************************************************


 Program * Restricted Hartree-Fock

 Orbital guess generated from atomic densities. Full valence occupancy:   55

 Initial occupancy:  45

 NELEC=   90   SYM=1   MS2= 0   THRE=1.0D-08   THRD=3.2D-06   THRG=3.2D-06  HFMA2=F  DIIS_START=2   DIIS_MAX=10   DIIS_INCORE=F

 Level shifts:    0.00 (CLOSED)    0.00 (OPEN)    0.30 (GAP_MIN)

 ITER           ETOT              DE          GRAD        DDIFF     DIIS  NEXP   TIME(IT)  TIME(TOT)  DIAG
   1    -1319.99887790   -1319.99887790     0.00D+00     0.57D-01     0     0       4.87      9.43    start
   2    -1320.19227752      -0.19339962     0.67D-02     0.10D-01     1     0       4.83     14.26    diag
   3    -1320.39536898      -0.20309145     0.51D-02     0.42D-02     2     0       4.98     19.24    diag
   4    -1320.39796038      -0.00259140     0.54D-03     0.66D-03     3     0       4.98     24.22    diag
   5    -1320.39843242      -0.00047204     0.22D-03     0.26D-03     4     0       5.02     29.24    diag
   6    -1320.39846780      -0.00003538     0.52D-04     0.67D-04     5     0       4.97     34.21    diag
   7    -1320.39847207      -0.00000427     0.14D-04     0.26D-04     6     0       4.88     39.09    diag
   8    -1320.39847245      -0.00000038     0.48D-05     0.75D-05     7     0       4.94     44.03    fixocc
   9    -1320.39847251      -0.00000006     0.19D-05     0.29D-05     8     0       4.96     48.99    diag
  10    -1320.39847252      -0.00000001     0.58D-06     0.98D-06     9     0       4.91     53.90    diag/orth
  11    -1320.39847252      -0.00000000     0.16D-06     0.24D-06     0     0       4.81     58.71    diag

 Final occupancy:  45

 !RHF STATE 1.1 Energy              -1320.398472521071
  RHF One-electron energy           -3415.045906017970
  RHF Two-electron energy            1293.391886965193
  RHF Kinetic energy                 1318.705473389049
  RHF Nuclear energy                  801.255546531705
  RHF Virial quotient                  -1.001283834159

 !RHF STATE 1.1 Dipole moment          -1.19799903     0.77346041    -0.43350874
 Dipole moment /Debye                  -3.04500982     1.96594027    -1.10186932

 Orbital energies:

           1.1          2.1          3.1          4.1          5.1          6.1          7.1          8.1          9.1         10.1
    -92.317463   -92.304990   -20.696468   -20.690599   -20.675086   -20.626383   -20.620738   -20.613827   -20.610390    -9.276127

          11.1         12.1         13.1         14.1         15.1         16.1         17.1         18.1         19.1         20.1
     -9.263881    -6.962311    -6.961646    -6.960486    -6.950374    -6.948989    -6.947930    -1.607044    -1.564318    -1.457515

          21.1         22.1         23.1         24.1         25.1         26.1         27.1         28.1         29.1         30.1
     -1.448297    -1.431597    -1.424164    -1.414723    -0.993255    -0.918079    -0.848976    -0.809175    -0.780571    -0.769698

          31.1         32.1         33.1         34.1         35.1         36.1         37.1         38.1         39.1         40.1
     -0.742472    -0.713347    -0.704004    -0.681948    -0.648103    -0.639668    -0.609786    -0.599987    -0.584981    -0.574662

          41.1         42.1         43.1         44.1         45.1         46.1         47.1
     -0.563071    -0.557658    -0.546888    -0.538934    -0.530495     0.100639     0.154460


 HOMO     45.1    -0.530495 =     -14.4355eV
 LUMO     46.1     0.100639 =       2.7385eV
 LUMO-HOMO         0.631134 =      17.1740eV

 Orbitals saved in record  2100.2


 **********************************************************************************************************************************
 DATASETS  * FILE   NREC   LENGTH (MB)   RECORD NAMES
              1      19     2492.98       500      610      700      900      950      970     1000      129      960     1100   
                                          VAR    BASINP    GEOM    SYMINP    ZMAT    AOBASIS   BASIS     P2S    ABASIS      S 
                                         1400     1410     1200     1210     1080     1600     1650     1300     1700   
                                           T        V       H0       H01     AOSYM     SMH    MOLCAS    ERIS     OPER   

              2       4        2.03       700     1000      520     2100   
                                         GEOM     BASIS   MCVARS     RHF  

 PROGRAMS   *        TOTAL    HF-SCF       INT
 CPU TIMES  *        98.20     58.72     39.39
 REAL TIME  *       122.48 SEC
 DISK USED  *        11.69 GB
 **********************************************************************************************************************************

 Dump information in style XML to xml output                                                                      

 Orbitals will not be exported.

 **********************************************************************************************************************************

 HF/cc-pVTZ energy=  -1320.398472521071

          HF-SCF
  -1320.39847252
 **********************************************************************************************************************************
 Molpro calculation terminated
