
 Working directory              : /var/folders/2v/xbgp75_9785319ghcgb4zr4r0000gp/T//molpro.HK5cOq446C/
 Global scratch directory       : /var/folders/2v/xbgp75_9785319ghcgb4zr4r0000gp/T//molpro.HK5cOq446C/
 Wavefunction directory         : /Users/sacpjk/wfu/
 Main file repository           : /var/folders/2v/xbgp75_9785319ghcgb4zr4r0000gp/T//molpro.HK5cOq446C/

 id        : peterk

 Nodes                        nprocs
 Cardiff-University-G34YLXT77Y    1
 GA implementation: MPI file
 GA implementation (serial work in mppx): MPI file

 Using customized tuning parameters: mindgm=1; mindgv=20; mindgc=4; mindgr=1; noblas=0; minvec=7
 default implementation of scratch files=df  


 Variables initialized (1032), CPU time= 0.01 sec
 
 symmetry,nosym
 
 
 geometry={
           16
     H         -0.14488305      1.24400044      2.88882353
     C         -0.07937003      0.72142926      1.93826519
     C         -0.12869305      1.40898550      0.77551778
     C          0.07937003     -0.72142926      1.93826519
     C          0.12869305     -1.40898550      0.77551778
     H          0.14488305     -1.24400044      2.88882353
     H         -0.22121808      2.49234589      0.77554378
     C         -0.00672700      0.74846727     -0.52330869
     C          0.00672700     -0.74846727     -0.52330869
     H          0.22121808     -2.49234589      0.77554378
     C          0.12869305      1.49744753     -1.64147408
     C         -0.12869305     -1.49744753     -1.64147408
     H          0.08954603      2.58173092     -1.59097507
     H          0.29445710      1.06448038     -2.62239243
     H         -0.29445710     -1.06448038     -2.62239243
     H         -0.08954603     -2.58173092     -1.59097507
 }
 basis=cc-pVDZ
 
 
 
 hf; mp2
 
 
 
 {put,xml;noorbitals,nobasis}
 Commands initialized (841), CPU time= 0.00 sec, 704 directives.
 Default parameters read. Elapsed time= 0.65 sec

 Checking input...
 Passed
1


                                         ***  PROGRAM SYSTEM MOLPRO  ***
                                       Copyright, TTI GmbH Stuttgart, 2015
                                    Version 2023.1 linked Tue Jun  6 09:54:11 2023


 **********************************************************************************************************************************
 LABEL *                                                                                                                                                                 
  64 bit serial version                                                                  DATE: 10-Jun-23          TIME: 15:04:08  
 **********************************************************************************************************************************

 SHA1:             8ebb0dd001088a5c915591db1a321413035db0b1
 **********************************************************************************************************************************

 Memory per process:       805 MW
 Total memory per node:   1074 MW
 Total GA space:           268 MW

 GA preallocation disabled
 GA check enabled

 Variable memory set to 805.3 MW

 ZSYMEL=NOSYM


 Geometry recognized as XYZ

 SETTING BASIS          =    CC-PVDZ


 Recomputing integrals since basis changed


 Using spherical harmonics

 Library entry H      S cc-pVDZ              selected for orbital group  1
 Library entry H      P cc-pVDZ              selected for orbital group  1
 Library entry C      S cc-pVDZ              selected for orbital group  2
 Library entry C      P cc-pVDZ              selected for orbital group  2
 Library entry C      D cc-pVDZ              selected for orbital group  2


 PROGRAM * SEWARD (Integral evaluation for generally contracted gaussian basis sets)     Author: Roland Lindh, 1990

 Geometry written to block  1 of record 700


 Point group  C1  



 ATOMIC COORDINATES

 NR  ATOM    CHARGE       X              Y              Z

   1  H       1.00   -0.273789285    2.350820131    5.459085294
   2  C       6.00   -0.149987619    1.363303720    3.662790366
   3  C       6.00   -0.243194619    2.662596709    1.465516209
   4  C       6.00    0.149987619   -1.363303720    3.662790366
   5  C       6.00    0.243194619   -2.662596709    1.465516209
   6  H       1.00    0.273789285   -2.350820131    5.459085294
   7  H       1.00   -0.418041585    4.709851140    1.465565342
   8  C       6.00   -0.012712188    1.414398154   -0.988910103
   9  C       6.00    0.012712188   -1.414398154   -0.988910103
  10  H       1.00    0.418041585   -4.709851140    1.465565342
  11  C       6.00    0.243194619    2.829765718   -3.101936452
  12  C       6.00   -0.243194619   -2.829765718   -3.101936452
  13  H       1.00    0.169217472    4.878764366   -3.006507153
  14  H       1.00    0.556443274    2.011576383   -4.955603484
  15  H       1.00   -0.556443274   -2.011576383   -4.955603484
  16  H       1.00   -0.169217472   -4.878764366   -3.006507153

 Bond lengths in Bohr (Angstrom)

 1-2  2.053580040  2-3  2.554381243  2-4  2.743059108  3-7  2.054707320  3-8  2.763210145
     ( 1.086707758)     ( 1.351720342)     ( 1.451564368)     ( 1.087304289)     ( 1.462227837)

  4- 5  2.554381243   4- 6  2.053580040   5- 9  2.763210145   5-10  2.054707320   8- 9  2.828910558
       ( 1.351720342)       ( 1.086707758)       ( 1.462227837)       ( 1.087304289)       ( 1.496994999)

  8-11  2.556097413   9-12  2.556097413  11-13  2.052553247  11-14  2.050278023  12-15  2.050278023
       ( 1.352628500)       ( 1.352628500)       ( 1.086164402)       ( 1.084960406)       ( 1.084960406)

 12-16  2.052553247
       ( 1.086164402)

 Bond angles

  1-2-3  120.37310675   1-2-4  118.98523299   2-3-7  120.65665132   2-3-8  122.09063715

  2-4-5  120.63668491   2-4-6  118.98523299   3-2-4  120.63668491   3-8-9  116.90110185

  3- 8-11  119.50545488   4- 5- 9  122.09063715   4- 5-10  120.65665132   5- 4- 6  120.37310675

  5- 9- 8  116.90110185   5- 9-12  119.50545488   7- 3- 8  117.20664928   8- 9-12  123.55931298

  8-11-13  120.71185850   8-11-14  122.80045878   9- 5-10  117.20664928   9- 8-11  123.55931298

  9-12-15  122.80045878   9-12-16  120.71185850  13-11-14  116.48174274  15-12-16  116.48174274

 NUCLEAR CHARGE:                   56
 NUMBER OF PRIMITIVE AOS:         272
 NUMBER OF SYMMETRY AOS:          264
 NUMBER OF CONTRACTIONS:          152   (  152A   )
 NUMBER OF INNER CORE ORBITALS:     0   (    0A   )
 NUMBER OF OUTER CORE ORBITALS:     8   (    8A   )
 NUMBER OF VALENCE ORBITALS:       40   (   40A   )


 NUCLEAR REPULSION ENERGY  323.99277370


 Eigenvalues of metric

         1 0.286E-03 0.782E-03 0.131E-02 0.168E-02 0.206E-02 0.208E-02 0.343E-02 0.355E-02


 Contracted 2-electron integrals neglected if value below      1.0D-11
 AO integral compression algorithm  1   Integral accuracy      1.0D-11

     259.785 MB (compressed) written to integral file ( 46.2%)


 NUMBER OF SORTED TWO-ELECTRON INTEGRALS:   67611006.     BUFFER LENGTH:  32768
 NUMBER OF SEGMENTS:   5  SEGMENT LENGTH:   15999503      RECORD LENGTH: 524288

 Memory used in sort:      16.56 MW

 SORT1 READ    70371276. AND WROTE    62233694. INTEGRALS IN    181 RECORDS. CPU TIME:     0.48 SEC, REAL TIME:     0.60 SEC
 SORT2 READ    62233694. AND WROTE    67611006. INTEGRALS IN    991 RECORDS. CPU TIME:     0.45 SEC, REAL TIME:     0.57 SEC

 FILE SIZES:   FILE 1:   290.9 MBYTE,  FILE 4:   759.2 MBYTE,   TOTAL:   1050.1 MBYTE

 OPERATOR DM      FOR CENTER  0  COORDINATES:    0.000000    0.000000    0.000000


 **********************************************************************************************************************************
 DATASETS  * FILE   NREC   LENGTH (MB)   RECORD NAMES
              1      19      255.29       500      610      700      900      950      970     1000      129      960     1100   
                                          VAR    BASINP    GEOM    SYMINP    ZMAT    AOBASIS   BASIS     P2S    ABASIS      S 
                                         1400     1410     1200     1210     1080     1600     1650     1300     1700   
                                           T        V       H0       H01     AOSYM     SMH    MOLCAS    ERIS     OPER   

 PROGRAMS   *        TOTAL       INT
 CPU TIMES  *         3.47      3.38
 REAL TIME  *         5.55 SEC
 DISK USED  *      1002.10 MB
 **********************************************************************************************************************************


 Program * Restricted Hartree-Fock

 Orbital guess generated from atomic densities. Full valence occupancy:   48

 Initial occupancy:  28

 NELEC=   56   SYM=1   MS2= 0   THRE=1.0D-08   THRD=3.2D-06   THRG=3.2D-06  HFMA2=F  DIIS_START=2   DIIS_MAX=10   DIIS_INCORE=F

 Level shifts:    0.00 (CLOSED)    0.00 (OPEN)    0.30 (GAP_MIN)

 ITER           ETOT              DE          GRAD        DDIFF     DIIS  NEXP   TIME(IT)  TIME(TOT)  DIAG
   1     -307.48570381    -307.48570381     0.00D+00     0.89D-01     0     0       0.28      0.55    start
   2     -307.55600912      -0.07030531     0.35D-02     0.82D-02     1     0       0.29      0.84    diag
   3     -307.56277495      -0.00676584     0.11D-02     0.28D-02     2     0       0.29      1.13    diag
   4     -307.56373022      -0.00095527     0.39D-03     0.97D-03     3     0       0.30      1.43    diag
   5     -307.56381183      -0.00008161     0.11D-03     0.22D-03     4     0       0.30      1.73    diag
   6     -307.56383567      -0.00002384     0.41D-04     0.11D-03     5     0       0.29      2.02    diag
   7     -307.56383822      -0.00000255     0.12D-04     0.38D-04     6     0       0.31      2.33    diag
   8     -307.56383830      -0.00000008     0.28D-05     0.81D-05     7     0       0.31      2.64    fixocc
   9     -307.56383830      -0.00000001     0.11D-05     0.22D-05     8     0       0.29      2.93    diag
  10     -307.56383830      -0.00000000     0.27D-06     0.66D-06     0     0       0.30      3.23    diag/orth

 Final occupancy:  28

 !RHF STATE 1.1 Energy               -307.563838303039
  RHF One-electron energy           -1056.348447947120
  RHF Two-electron energy             424.791835940004
  RHF Kinetic energy                  307.179090038109
  RHF Nuclear energy                  323.992773704077
  RHF Virial quotient                  -1.001252521013

 !RHF STATE 1.1 Dipole moment          -0.00000000     0.00000000     0.02587623
 Dipole moment /Debye                  -0.00000000     0.00000000     0.06577082

 Orbital energies:

           1.1          2.1          3.1          4.1          5.1          6.1          7.1          8.1          9.1         10.1
    -11.253923   -11.253244   -11.241966   -11.241631   -11.240455   -11.239970   -11.237217   -11.237205    -1.153093    -1.056583

          11.1         12.1         13.1         14.1         15.1         16.1         17.1         18.1         19.1         20.1
     -1.046574    -0.954088    -0.877105    -0.801023    -0.770799    -0.681519    -0.656422    -0.646118    -0.588148    -0.583475

          21.1         22.1         23.1         24.1         25.1         26.1         27.1         28.1         29.1         30.1
     -0.564969    -0.542031    -0.507441    -0.496924    -0.473291    -0.386901    -0.386279    -0.264013     0.059700     0.177616


 HOMO     28.1    -0.264013 =      -7.1842eV
 LUMO     29.1     0.059700 =       1.6245eV
 LUMO-HOMO         0.323713 =       8.8087eV

 Orbitals saved in record  2100.2


 **********************************************************************************************************************************
 DATASETS  * FILE   NREC   LENGTH (MB)   RECORD NAMES
              1      19      255.29       500      610      700      900      950      970     1000      129      960     1100   
                                          VAR    BASINP    GEOM    SYMINP    ZMAT    AOBASIS   BASIS     P2S    ABASIS      S 
                                         1400     1410     1200     1210     1080     1600     1650     1300     1700   
                                           T        V       H0       H01     AOSYM     SMH    MOLCAS    ERIS     OPER   

              2       4        1.00       700     1000      520     2100   
                                         GEOM     BASIS   MCVARS     RHF  

 PROGRAMS   *        TOTAL    HF-SCF       INT
 CPU TIMES  *         6.70      3.23      3.38
 REAL TIME  *         9.72 SEC
 DISK USED  *      1002.10 MB
 **********************************************************************************************************************************


 PROGRAM * MP2 (Closed-shell)     Authors: C. Hampel, H.-J. Werner, 1991, M. Deegan, P.J. Knowles, 1992


 Convergence thresholds:  THRVAR = 1.00D-08  THRDEN = 1.00D-06

 Number of core orbitals:           8 (   8 )
 Number of closed-shell orbitals:  20 (  20 )
 Number of external orbitals:     124 ( 124 )

 Molecular orbitals read from record     2100.2  Type=RHF/CANONICAL  

 Number of N-1 electron functions:              20
 Number of N-2 electron functions:             210
 Number of singly external CSFs:              2480
 Number of doubly external CSFs:           3076440
 Total number of CSFs:                     3078921

 Length of J-op  integral file:               0.00 MB
 Length of K-op  integral file:               1.65 MB

 Integral transformation finished. Total CPU:   0.95 sec, npass=  1  Memory used:   8.36 MW

 Memory needed for MP2:                      0.11 MW

 SCS-MP2 correlation energy:           -1.024007471324   (PS=  1.200000  PT=  0.333333)
 SCS-MP2 total energy:               -308.587845774362


  Reference energy                   -307.563838303038
  MP2 singlet pair energy              -0.645942097565
  MP2 triplet pair energy              -0.399980819323
  MP2 correlation energy               -1.045922916888

 !MP2 total energy                   -308.609761219926


 **********************************************************************************************************************************
 DATASETS  * FILE   NREC   LENGTH (MB)   RECORD NAMES
              1      20      311.29       500      610      700      900      950      970     1000      129      960     1100   
                                          VAR    BASINP    GEOM    SYMINP    ZMAT    AOBASIS   BASIS     P2S    ABASIS      S 
                                         1400     1410     1200     1210     1080     1600     1650     1300     1700     1380   
                                           T        V       H0       H01     AOSYM     SMH    MOLCAS    ERIS     OPER     JKOP   

              2       4        1.00       700     1000      520     2100   
                                         GEOM     BASIS   MCVARS     RHF  

 PROGRAMS   *        TOTAL       MP2    HF-SCF       INT
 CPU TIMES  *         7.83      1.13      3.23      3.38
 REAL TIME  *        11.65 SEC
 DISK USED  *      1002.10 MB
 **********************************************************************************************************************************

 Dump information in style XML to xml output                                                                      

 Orbitals will not be exported.

 **********************************************************************************************************************************

 MP2/cc-pVDZ energy=   -308.609761219926

             MP2          HF-SCF
   -308.60976122   -307.56383830
 **********************************************************************************************************************************
 Molpro calculation terminated
