
 Working directory              : /var/folders/2v/xbgp75_9785319ghcgb4zr4r0000gp/T//molpro.EYI9akDxl8/
 Global scratch directory       : /var/folders/2v/xbgp75_9785319ghcgb4zr4r0000gp/T//molpro.EYI9akDxl8/
 Wavefunction directory         : /Users/sacpjk/wfu/
 Main file repository           : /var/folders/2v/xbgp75_9785319ghcgb4zr4r0000gp/T//molpro.EYI9akDxl8/

 id        : peterk

 Nodes                        nprocs
 Cardiff-University-G34YLXT77Y    1
 GA implementation: MPI file
 GA implementation (serial work in mppx): MPI file

 Using customized tuning parameters: mindgm=1; mindgv=20; mindgc=4; mindgr=1; noblas=0; minvec=7
 default implementation of scratch files=df  


 Variables initialized (1032), CPU time= 0.00 sec
 
 symmetry,nosym
 
 
 geometry={
            6
     C         -0.62421620      0.28593985      0.00000000
     H         -0.68092146      1.36354307      0.00000000
     H         -1.48969207     -0.35847391      0.00000000
     N          0.55573802     -0.26924615      0.00000000
     H          0.55369001     -1.30176739      0.00000000
     O          1.68540169      0.28000452      0.00000000
 }
 basis=cc-pVTZ
 
 
 
 hf; hf; papt; mp4
 
 
 
 {put,xml;noorbitals,nobasis}
 Commands initialized (841), CPU time= 0.01 sec, 704 directives.
 Default parameters read. Elapsed time= 1.20 sec

 Checking input...
 Passed
1


                                         ***  PROGRAM SYSTEM MOLPRO  ***
                                       Copyright, TTI GmbH Stuttgart, 2015
                                    Version 2023.1 linked Tue Jun  6 09:54:11 2023


 **********************************************************************************************************************************
 LABEL *                                                                                                                                                                 
  64 bit serial version                                                                  DATE: 11-Jun-23          TIME: 15:34:17  
 **********************************************************************************************************************************

 SHA1:             8ebb0dd001088a5c915591db1a321413035db0b1
 **********************************************************************************************************************************

 Memory per process:       393 MW
 Total memory per node:    524 MW
 Total GA space:           131 MW

 GA preallocation disabled
 GA check enabled

 Variable memory set to 393.2 MW

 ZSYMEL=NOSYM


 Geometry recognized as XYZ

 SETTING BASIS          =    CC-PVTZ


 Recomputing integrals since basis changed


 Using spherical harmonics

 Library entry C      S cc-pVTZ              selected for orbital group  1
 Library entry C      P cc-pVTZ              selected for orbital group  1
 Library entry C      D cc-pVTZ              selected for orbital group  1
 Library entry C      F cc-pVTZ              selected for orbital group  1
 Library entry H      S cc-pVTZ              selected for orbital group  2
 Library entry H      P cc-pVTZ              selected for orbital group  2
 Library entry H      D cc-pVTZ              selected for orbital group  2
 Library entry N      S cc-pVTZ              selected for orbital group  3
 Library entry N      P cc-pVTZ              selected for orbital group  3
 Library entry N      D cc-pVTZ              selected for orbital group  3
 Library entry N      F cc-pVTZ              selected for orbital group  3
 Library entry O      S cc-pVTZ              selected for orbital group  5
 Library entry O      P cc-pVTZ              selected for orbital group  5
 Library entry O      D cc-pVTZ              selected for orbital group  5
 Library entry O      F cc-pVTZ              selected for orbital group  5


 PROGRAM * SEWARD (Integral evaluation for generally contracted gaussian basis sets)     Author: Roland Lindh, 1990

 Geometry written to block  1 of record 700


 Point group  C1  



 ATOMIC COORDINATES

 NR  ATOM    CHARGE       X              Y              Z

   1  C       6.00   -1.179597661    0.540348005    0.000000000
   2  H       1.00   -1.286755072    2.576722961    0.000000000
   3  H       1.00   -2.815110022   -0.677417513    0.000000000
   4  N       7.00    1.050192655   -0.508801484    0.000000000
   5  H       1.00    1.046322477   -2.459983845    0.000000000
   6  O       8.00    3.184947604    0.529131856    0.000000000

 Bond lengths in Bohr (Angstrom)

 1-2  2.039192408  1-3  2.039081543  1-4  2.464280727  4-5  1.951186200  4-6  2.373706871
     ( 1.079094151)     ( 1.079035484)     ( 1.304041202)     ( 1.032523271)     ( 1.256111582)

 Bond angles

  1-4-5  115.08403562   1-4-6  128.87296113   2-1-3  123.65831583   2-1-4  118.20990210

  3-1-4  118.13178207   5-4-6  116.04300324

 NUCLEAR CHARGE:                   24
 NUMBER OF PRIMITIVE AOS:         192
 NUMBER OF SYMMETRY AOS:          174
 NUMBER OF CONTRACTIONS:          132   (  132A   )
 NUMBER OF INNER CORE ORBITALS:     0   (    0A   )
 NUMBER OF OUTER CORE ORBITALS:     3   (    3A   )
 NUMBER OF VALENCE ORBITALS:       15   (   15A   )


 NUCLEAR REPULSION ENERGY   72.13301824

 EXTRA SYMMETRY OF AOS IN SYMMETRY 1:   1 1 1 1 1 1 2 1 1 2   1 1 2 1 1 2 1 2 1 1   2 1 2 1 1 2 1 2 1 2   1 1 1 1 1 2 1 1 2 1
                                        1 2 1 2 1 1 1 1 1 2   1 1 2 1 1 2 1 2 1 1   1 1 1 1 2 1 1 2 1 1   2 1 1 2 1 2 1 1 2 1
                                        2 1 1 2 1 2 1 2 1 1   1 1 1 2 1 1 2 1 1 2   1 2 1 1 1 1 1 1 2 1   1 2 1 1 2 1 1 2 1 2
                                        1 1 2 1 2 1 1 2 1 2   1 2

 Eigenvalues of metric

         1 0.129E-02 0.148E-02 0.172E-02 0.206E-02 0.259E-02 0.273E-02 0.467E-02 0.573E-02


 Contracted 2-electron integrals neglected if value below      1.0D-11
 AO integral compression algorithm  1   Integral accuracy      1.0D-11

     98.566 MB (compressed) written to integral file ( 27.4%)


 NUMBER OF SORTED TWO-ELECTRON INTEGRALS:   38531031.     BUFFER LENGTH:  32768
 NUMBER OF SEGMENTS:   3  SEGMENT LENGTH:   15998004      RECORD LENGTH: 524288

 Memory used in sort:      16.56 MW

 SORT1 READ    44982346. AND WROTE    19094795. INTEGRALS IN     56 RECORDS. CPU TIME:     0.26 SEC, REAL TIME:     0.35 SEC
 SORT2 READ    19094795. AND WROTE    38531031. INTEGRALS IN    376 RECORDS. CPU TIME:     0.26 SEC, REAL TIME:     0.32 SEC

 FILE SIZES:   FILE 1:   129.3 MBYTE,  FILE 4:   234.9 MBYTE,   TOTAL:    364.2 MBYTE

 OPERATOR DM      FOR CENTER  0  COORDINATES:    0.000000    0.000000    0.000000


 **********************************************************************************************************************************
 DATASETS  * FILE   NREC   LENGTH (MB)   RECORD NAMES
              1      19      108.61       500      610      700      900      950      970     1000      129      960     1100   
                                          VAR    BASINP    GEOM    SYMINP    ZMAT    AOBASIS   BASIS     P2S    ABASIS      S 
                                         1400     1410     1200     1210     1080     1600     1650     1300     1700   
                                           T        V       H0       H01     AOSYM     SMH    MOLCAS    ERIS     OPER   

 PROGRAMS   *        TOTAL       INT
 CPU TIMES  *         1.74      1.63
 REAL TIME  *         5.85 SEC
 DISK USED  *       347.80 MB
 **********************************************************************************************************************************


 Program * Restricted Hartree-Fock

 Orbital guess generated from atomic densities. Full valence occupancy:   18

 Initial occupancy:  12

 NELEC=   24   SYM=1   MS2= 0   THRE=1.0D-08   THRD=3.2D-06   THRG=3.2D-06  HFMA2=F  DIIS_START=2   DIIS_MAX=10   DIIS_INCORE=F

 Level shifts:    0.00 (CLOSED)    0.00 (OPEN)    0.30 (GAP_MIN)

 ITER           ETOT              DE          GRAD        DDIFF     DIIS  NEXP   TIME(IT)  TIME(TOT)  DIAG
   1     -168.78484887    -168.78484887     0.00D+00     0.69D-01     0     0       0.18      0.35    start
   2     -168.82944404      -0.04459517     0.88D-02     0.11D-01     1     0       0.18      0.53    diag
   3     -168.87785295      -0.04840891     0.71D-02     0.52D-02     2     0       0.18      0.71    diag
   4     -168.87876051      -0.00090756     0.78D-03     0.88D-03     3     0       0.18      0.89    diag
   5     -168.87895783      -0.00019731     0.34D-03     0.40D-03     4     0       0.18      1.07    diag
   6     -168.87899553      -0.00003770     0.14D-03     0.14D-03     5     0       0.18      1.25    diag
   7     -168.87900411      -0.00000858     0.42D-04     0.87D-04     6     0       0.18      1.43    diag
   8     -168.87900515      -0.00000105     0.13D-04     0.35D-04     7     0       0.18      1.61    fixocc
   9     -168.87900523      -0.00000008     0.43D-05     0.94D-05     8     0       0.19      1.80    diag
  10     -168.87900525      -0.00000001     0.16D-05     0.42D-05     9     0       0.18      1.98    diag/orth
  11     -168.87900525      -0.00000000     0.51D-06     0.12D-05     9     0       0.18      2.16    diag
  12     -168.87900525      -0.00000000     0.11D-06     0.16D-06     0     0       0.18      2.34    diag

 Final occupancy:  12

 !RHF STATE 1.1 Energy               -168.879005247278
  RHF One-electron energy            -373.103530564806
  RHF Two-electron energy             132.091507079465
  RHF Kinetic energy                  168.605101219529
  RHF Nuclear energy                   72.133018238062
  RHF Virial quotient                  -1.001624529897

 !RHF STATE 1.1 Dipole moment          -1.55430735    -0.73890020    -0.00000000
 Dipole moment /Debye                  -3.95065523    -1.87809699    -0.00000000

 Orbital energies:

           1.1          2.1          3.1          4.1          5.1          6.1          7.1          8.1          9.1         10.1
    -20.518209   -15.736218   -11.293585    -1.453967    -1.154820    -0.894308    -0.752510    -0.670764    -0.617930    -0.590985

          11.1         12.1         13.1         14.1
     -0.428781    -0.348176     0.110844     0.124476


 HOMO     12.1    -0.348176 =      -9.4744eV
 LUMO     13.1     0.110844 =       3.0162eV
 LUMO-HOMO         0.459020 =      12.4906eV

 Orbitals saved in record  2100.2


 **********************************************************************************************************************************
 DATASETS  * FILE   NREC   LENGTH (MB)   RECORD NAMES
              1      19      108.61       500      610      700      900      950      970     1000      129      960     1100   
                                          VAR    BASINP    GEOM    SYMINP    ZMAT    AOBASIS   BASIS     P2S    ABASIS      S 
                                         1400     1410     1200     1210     1080     1600     1650     1300     1700   
                                           T        V       H0       H01     AOSYM     SMH    MOLCAS    ERIS     OPER   

              2       4        0.75       700     1000      520     2100   
                                         GEOM     BASIS   MCVARS     RHF  

 PROGRAMS   *        TOTAL    HF-SCF       INT
 CPU TIMES  *         4.08      2.34      1.63
 REAL TIME  *         9.25 SEC
 DISK USED  *       347.80 MB
 **********************************************************************************************************************************


 Program * Restricted Hartree-Fock

 Molecular orbitals read from record     2100.2  Type=RHF/CANONICAL  

 Initial occupancy:  12

 NELEC=   24   SYM=1   MS2= 0   THRE=1.0D-08   THRD=3.2D-06   THRG=3.2D-06  HFMA2=F  DIIS_START=2   DIIS_MAX=10   DIIS_INCORE=F

 Level shifts:    0.00 (CLOSED)    0.00 (OPEN)    0.30 (GAP_MIN)

 ITER           ETOT              DE          GRAD        DDIFF     DIIS  NEXP   TIME(IT)  TIME(TOT)  DIAG
   1     -168.87900525    -168.87900525     0.00D+00     0.71D-01     0     0       0.18      0.18    start
   2     -168.87900525      -0.00000000     0.50D-07     0.82D-07     1     0       0.18      0.36    diag

 Final occupancy:  12

 !RHF STATE 1.1 Energy               -168.879005247288
  RHF One-electron energy            -373.103540392494
  RHF Two-electron energy             132.091516907143
  RHF Kinetic energy                  168.605105523822
  RHF Nuclear energy                   72.133018238062
  RHF Virial quotient                  -1.001624504327

 !RHF STATE 1.1 Dipole moment          -1.55431352    -0.73889668    -0.00000000
 Dipole moment /Debye                  -3.95067091    -1.87808803    -0.00000000

 Orbital energies:

           1.1          2.1          3.1          4.1          5.1          6.1          7.1          8.1          9.1         10.1
    -20.518209   -15.736220   -11.293586    -1.453967    -1.154820    -0.894308    -0.752511    -0.670764    -0.617931    -0.590985

          11.1         12.1         13.1         14.1
     -0.428781    -0.348176     0.110844     0.124476


 HOMO     12.1    -0.348176 =      -9.4743eV
 LUMO     13.1     0.110844 =       3.0162eV
 LUMO-HOMO         0.459020 =      12.4906eV

 Orbitals saved in record  2101.2


 **********************************************************************************************************************************
 DATASETS  * FILE   NREC   LENGTH (MB)   RECORD NAMES
              1      19      108.61       500      610      700      900      950      970     1000      129      960     1100   
                                          VAR    BASINP    GEOM    SYMINP    ZMAT    AOBASIS   BASIS     P2S    ABASIS      S 
                                         1400     1410     1200     1210     1080     1600     1650     1300     1700   
                                           T        V       H0       H01     AOSYM     SMH    MOLCAS    ERIS     OPER   

              2       5        1.31       700     1000      520     2100     2101   
                                         GEOM     BASIS   MCVARS     RHF      RHF  

 PROGRAMS   *        TOTAL    HF-SCF    HF-SCF       INT
 CPU TIMES  *         4.46      0.37      2.34      1.63
 REAL TIME  *        10.50 SEC
 DISK USED  *       347.80 MB
 **********************************************************************************************************************************


 PROGRAM * PAPT (Closed-shell)     Authors: C. Hampel, H.-J. Werner, 1991, P.J. Knowles, 2021


 Convergence thresholds:  THRVAR = 1.00D-08  THRDEN = 1.00D-06

 Number of core orbitals:           3 (   3 )
 Number of closed-shell orbitals:   9 (   9 )
 Number of external orbitals:     120 ( 120 )

 Molecular orbitals read from record     2101.2  Type=RHF/CANONICAL  

 Number of N-1 electron functions:               9
 Number of N-2 electron functions:              45
 Number of singly external CSFs:              1080
 Number of doubly external CSFs:            583740
 Total number of CSFs:                      584821

 Length of J-op  integral file:               0.00 MB
 Length of K-op  integral file:               1.26 MB

 Integral transformation finished. Total CPU:   0.33 sec, npass=  1  Memory used:   1.70 MW

 Reference energy:                   -168.87900525

                        CORR.ENERGY   TOTAL ENERGY   ENERGY CHANGE
 MP2:                   -0.62411120  -169.50311645    -0.62411120

 SCS-MP2 correlation energy:           -0.61390950   (PS=  1.200000  PT=  0.333333)
 SCS-MP2 total energy:               -169.49291475
 Iteration:   1     0.2658D+00
 Iteration:   2     0.4295D+00
 Iteration:   3     0.7740D-01
 Iteration:   4     0.8585D-01
 Iteration:   5     0.4605D-01
 Iteration:   6     0.3087D-01
 Iteration:   7     0.6233D-01
 Iteration:   8     0.9451D-02
 Iteration:   9     0.1575D-01
 Iteration:  10     0.4096D-02
 Iteration:  11     0.2034D-02
 Iteration:  12     0.6410D-02
 Iteration:  13     0.7538D-03
 Iteration:  14     0.2694D-02
 Iteration:  15     0.3429D-03
 Iteration:  16     0.2484D-03
 Iteration:  17     0.4858D-03
 Iteration:  18     0.5941D-04
 PAPT operator written to  7000.1
 PAPT orbitals and eigenvalues written to  7000.2

 MP3(D):                -0.62584331  -169.50484855    -0.00173211



 RESULTS
 =======

  Reference energy                   -168.879005247288
  MP3 singlet pair energy              -0.417310811788
  MP3 triplet pair energy              -0.208532494342
  MP3 correlation energy               -0.625843306130

 !MP3 total energy                   -169.504848553419

 Timing summary (sec):

 STEP                 CPU(USER)    SYS     CPU(TOT)    WALL
 Transformation          0.35      0.03      0.38      0.62
 CCSD iterations         6.96      0.13      7.09      5.04

 Program statistics:

 Available memory in ccsd:               393215664
 Min. memory needed in ccsd:               1706029
 Max. memory used in ccsd:                 2198293
 Max. memory used in cckext:               1724986 ( 1 integral passes)



 **********************************************************************************************************************************
 DATASETS  * FILE   NREC   LENGTH (MB)   RECORD NAMES
              1      21      117.94       500      610      700      900      950      970     1000      129      960     1100   
                                          VAR    BASINP    GEOM    SYMINP    ZMAT    AOBASIS   BASIS     P2S    ABASIS      S 
                                         1400     1410     1200     1210     1080     1600     1650     1300     1700     1380   
                                           T        V       H0       H01     AOSYM     SMH    MOLCAS    ERIS     OPER     JKOP   
                                         7000   
                                        PAPT AO    

              2       6        1.81       700     1000      520     2100     2101     7000   
                                         GEOM     BASIS   MCVARS     RHF      RHF     PAPT   

 PROGRAMS   *        TOTAL      PAPT    HF-SCF    HF-SCF       INT
 CPU TIMES  *         7.20      2.74      0.37      2.34      1.63
 REAL TIME  *        16.61 SEC
 DISK USED  *       347.80 MB
 **********************************************************************************************************************************


 PROGRAM * MP4 (Closed-shell)     Authors: C. Hampel, H.-J. Werner, 1991, M. Deegan, P.J. Knowles, 1992


 Convergence thresholds:  THRVAR = 1.00D-08  THRDEN = 1.00D-06

 MP4(T)     terms to be evaluated (factor= 0.000)


 Number of core orbitals:           3 (   3 )
 Number of closed-shell orbitals:   9 (   9 )
 Number of external orbitals:     120 ( 120 )

 Molecular orbitals read from record     7000.2  Type=PAPT/CANONICAL (state 1.1)

 Number of N-1 electron functions:               9
 Number of N-2 electron functions:              45
 Number of singly external CSFs:              1080
 Number of doubly external CSFs:            583740
 Total number of CSFs:                      584821

 Length of J-op  integral file:               0.00 MB
 Length of K-op  integral file:               1.26 MB

 Memory could be reduced to 21.57 Mwords without degradation in triples

 Integral transformation finished. Total CPU:   0.94 sec, npass=  1  Memory used:  13.28 MW
 Orbital energies read from record       7000.2  Type=PAPT/CANONICAL (state 1.1)

 Reference energy:                   -168.87900525

                        CORR.ENERGY   TOTAL ENERGY   ENERGY CHANGE
 MP2:                   -0.63201724  -169.51102249    -0.63201724

 SCS-MP2 correlation energy:           -0.62516360   (PS=  1.200000  PT=  0.333333)
 SCS-MP2 total energy:               -169.50416885

 MP3(D):                -0.63250434  -169.51150959    -0.00048711
 MP4(DQ):               -0.62473906  -169.50374431     0.00776528
 MP4(SDQ):              -0.63219082  -169.51119606    -0.00745175

 Norm of t1 vector:      0.08147319      S-energy:    -0.00745175      T1 diagnostic:  0.01357887

 Largest off-diagonal element in interal  block of Fock matrix:  0.18D+00
 Largest off-diagonal element in external block of Fock matrix:  0.46D+00


 Total CPU time for triples:     10.22 sec


 RESULTS
 =======

  Reference energy                   -168.879005247288
  MP4(SDQ) singlet pair energy         -0.415157541641
  MP4(SDQ) triplet pair energy         -0.209581522173
  MP4(SDQ) correlation energy          -0.632190815987

  Triples contribution                 -0.032437945543
  Total correlation energy             -0.664628761530

  MP4(SDQ) total energy              -169.511196063275
 !MP4(SDTQ) total energy             -169.543634008818

 Timing summary (sec):

 STEP                 CPU(USER)    SYS     CPU(TOT)    WALL
 Transformation          1.14      0.09      1.23      1.83
 CCSD iterations         8.73      0.06      8.79      1.85
 Triples                10.22      0.48     10.70     11.16

 Program statistics:

 Available memory in ccsd:               393215664
 Min. memory needed in ccsd:               1706029
 Max. memory used in ccsd:                 2198293
 Max. memory used in cckext:               1724986 ( 1 integral passes)



 **********************************************************************************************************************************
 DATASETS  * FILE   NREC   LENGTH (MB)   RECORD NAMES
              1      22      177.76       500      610      700      900      950      970     1000      129      960     1100   
                                          VAR    BASINP    GEOM    SYMINP    ZMAT    AOBASIS   BASIS     P2S    ABASIS      S 
                                         1400     1410     1200     1210     1080     1600     1650     1300     1700     1380   
                                           T        V       H0       H01     AOSYM     SMH    MOLCAS    ERIS     OPER     JKOP   
                                         7000     1380(1)
                                        PAPT AO   JKOP   

              2       6        1.81       700     1000      520     2100     2101     7000   
                                         GEOM     BASIS   MCVARS     RHF      RHF     PAPT   

 PROGRAMS   *        TOTAL       MP4      PAPT    HF-SCF    HF-SCF       INT
 CPU TIMES  *        19.98     12.78      2.74      0.37      2.34      1.63
 REAL TIME  *        32.10 SEC
 DISK USED  *       347.80 MB
 **********************************************************************************************************************************

 Dump information in style XML to xml output                                                                      

 Orbitals will not be exported.

 **********************************************************************************************************************************

 MP4/cc-pVTZ energy=   -169.543634008818

             MP4            PAPT          HF-SCF          HF-SCF
   -169.54363401   -169.50484855   -168.87900525   -168.87900525
 **********************************************************************************************************************************
 Molpro calculation terminated
