
 Working directory              : /var/folders/2v/xbgp75_9785319ghcgb4zr4r0000gp/T//molpro.aXjeHuYKtk/
 Global scratch directory       : /var/folders/2v/xbgp75_9785319ghcgb4zr4r0000gp/T//molpro.aXjeHuYKtk/
 Wavefunction directory         : /Users/sacpjk/wfu/
 Main file repository           : /var/folders/2v/xbgp75_9785319ghcgb4zr4r0000gp/T//molpro.aXjeHuYKtk/

 id        : peterk

 Nodes                        nprocs
 Cardiff-University-G34YLXT77Y    1
 GA implementation: MPI file
 GA implementation (serial work in mppx): MPI file

 Using customized tuning parameters: mindgm=1; mindgv=20; mindgc=4; mindgr=1; noblas=0; minvec=7
 default implementation of scratch files=df  


 Variables initialized (1032), CPU time= 0.01 sec
 
 symmetry,nosym
 
 
 geometry={
           13
     C         -0.01452154     -0.75798489      1.30942047
     C         -0.01452154     -0.75798489     -1.30942047
     C         -0.01452154      0.65683562      1.21164043
     C         -0.01452154      0.65683562     -1.21164043
     C         -0.17284160      1.33447586      0.00000000
     H          0.46798863     -1.05717499      0.00000000
     H          0.48511863     -1.18468504      2.18168078
     H          0.48511863     -1.18468504     -2.18168078
     H         -0.92708187     -1.30284508      1.06870038
     H         -0.92708187     -1.30284508     -1.06870038
     H          0.37512860      1.24016583      2.04603073
     H          0.37512860      1.24016583     -2.04603073
     H         -0.10339158      2.41972625      0.00000000
 }
 basis=cc-pVTZ
 
 
 
 hf; mp3
 
 
 
 {put,xml;noorbitals,nobasis}
 Commands initialized (841), CPU time= 0.00 sec, 704 directives.
 Default parameters read. Elapsed time= 3.51 sec

 Checking input...
 Passed
1


                                         ***  PROGRAM SYSTEM MOLPRO  ***
                                       Copyright, TTI GmbH Stuttgart, 2015
                                    Version 2023.1 linked Tue Jun  6 09:54:11 2023


 **********************************************************************************************************************************
 LABEL *                                                                                                                                                                 
  64 bit serial version                                                                  DATE: 10-Jun-23          TIME: 16:29:10  
 **********************************************************************************************************************************

 SHA1:             8ebb0dd001088a5c915591db1a321413035db0b1
 **********************************************************************************************************************************

 Memory per process:       805 MW
 Total memory per node:   1074 MW
 Total GA space:           268 MW

 GA preallocation disabled
 GA check enabled

 Variable memory set to 805.3 MW

 ZSYMEL=NOSYM


 Geometry recognized as XYZ

 SETTING BASIS          =    CC-PVTZ


 Recomputing integrals since basis changed


 Using spherical harmonics

 Library entry C      S cc-pVTZ              selected for orbital group  1
 Library entry C      P cc-pVTZ              selected for orbital group  1
 Library entry C      D cc-pVTZ              selected for orbital group  1
 Library entry C      F cc-pVTZ              selected for orbital group  1
 Library entry H      S cc-pVTZ              selected for orbital group  2
 Library entry H      P cc-pVTZ              selected for orbital group  2
 Library entry H      D cc-pVTZ              selected for orbital group  2


 PROGRAM * SEWARD (Integral evaluation for generally contracted gaussian basis sets)     Author: Roland Lindh, 1990

 Geometry written to block  1 of record 700


 Point group  C1  



 ATOMIC COORDINATES

 NR  ATOM    CHARGE       X              Y              Z

   1  C       6.00   -0.027441734   -1.432383849    2.474446070
   2  C       6.00   -0.027441734   -1.432383849   -2.474446070
   3  C       6.00   -0.027441734    1.241239431    2.289668574
   4  C       6.00   -0.027441734    1.241239431   -2.289668574
   5  C       6.00   -0.326623287    2.521793895    0.000000000
   6  H       1.00    0.884370340   -1.997771197    0.000000000
   7  H       1.00    0.916741349   -2.238730270    4.122779166
   8  H       1.00    0.916741349   -2.238730270   -4.122779166
   9  H       1.00   -1.751930829   -2.462020384    2.019551027
  10  H       1.00   -1.751930829   -2.462020384   -2.019551027
  11  H       1.00    0.708890316    2.343573768    3.866437722
  12  H       1.00    0.708890316    2.343573768   -3.866437722
  13  H       1.00   -0.195381770    4.572619909    0.000000000

 Bond lengths in Bohr (Angstrom)

 1-3  2.680000777  1-6  2.697025670  1-7  2.063656521  1-9  2.059355126  2-4  2.680000777
     ( 1.418195336)     ( 1.427204522)     ( 1.092040002)     ( 1.089763802)     ( 1.418195336)

  2- 6  2.697025670   2- 8  2.063656521   2-10  2.059355126   3- 5  2.640437751   3-11  2.059982239
       ( 1.427204522)       ( 1.092040002)       ( 1.089763802)       ( 1.397259485)       ( 1.090095656)

  4- 5  2.640437751   4-12  2.059982239   5-13  2.055021089
       ( 1.397259485)       ( 1.090095656)       ( 1.087470328)

 Bond angles

  1- 3- 5  122.92983423   1- 3-11  118.75538171   1- 6- 2  133.11857628   2- 4- 5  122.92983423

  2- 4-12  118.75538171   3- 1- 6   98.38812662   3- 1- 7  116.41551821   3- 1- 9  118.91820303

  3- 5- 4  120.25937359   3- 5-13  118.47347191   4- 2- 6   98.38812662   4- 2- 8  116.41551821

  4- 2-10  118.91820303   4- 5-13  118.47347191   5- 3-11  116.40579220   5- 4-12  116.40579220

  6- 1- 7  119.75102425   6- 1- 9   88.60364094   6- 2- 8  119.75102425   6- 2-10   88.60364094

  7- 1- 9  111.35879906   8- 2-10  111.35879906

 NUCLEAR CHARGE:                   38
 NUMBER OF PRIMITIVE AOS:         371
 NUMBER OF SYMMETRY AOS:          338
 NUMBER OF CONTRACTIONS:          262   (  262A   )
 NUMBER OF INNER CORE ORBITALS:     0   (    0A   )
 NUMBER OF OUTER CORE ORBITALS:     5   (    5A   )
 NUMBER OF VALENCE ORBITALS:       28   (   28A   )


 NUCLEAR REPULSION ENERGY  164.15366010


 Eigenvalues of metric

         1 0.244E-03 0.453E-03 0.656E-03 0.826E-03 0.971E-03 0.105E-02 0.128E-02 0.128E-02


 Contracted 2-electron integrals neglected if value below      1.0D-11
 AO integral compression algorithm  1   Integral accuracy      1.0D-11

     2044.985 MB (compressed) written to integral file ( 40.8%)


 NUMBER OF SORTED TWO-ELECTRON INTEGRALS:  593521831.     BUFFER LENGTH:  32768
 NUMBER OF SEGMENTS:  38  SEGMENT LENGTH:   15999762      RECORD LENGTH: 262144

 Memory used in sort:      16.29 MW

 SORT1 READ   626384435. AND WROTE   510694779. INTEGRALS IN   2938 RECORDS. CPU TIME:     4.98 SEC, REAL TIME:     8.39 SEC
 SORT2 READ   510694779. AND WROTE   593521831. INTEGRALS IN   7801 RECORDS. CPU TIME:     3.42 SEC, REAL TIME:    15.15 SEC

 FILE SIZES:   FILE 1:  2077.7 MBYTE,  FILE 4:  6161.5 MBYTE,   TOTAL:   8239.2 MBYTE

 OPERATOR DM      FOR CENTER  0  COORDINATES:    0.000000    0.000000    0.000000


 **********************************************************************************************************************************
 DATASETS  * FILE   NREC   LENGTH (MB)   RECORD NAMES
              1      19     1845.45       500      610      700      900      950      970     1000      129      960     1100   
                                          VAR    BASINP    GEOM    SYMINP    ZMAT    AOBASIS   BASIS     P2S    ABASIS      S 
                                         1400     1410     1200     1210     1080     1600     1650     1300     1700   
                                           T        V       H0       H01     AOSYM     SMH    MOLCAS    ERIS     OPER   

 PROGRAMS   *        TOTAL       INT
 CPU TIMES  *        22.06     21.96
 REAL TIME  *        47.36 SEC
 DISK USED  *         7.67 GB
 **********************************************************************************************************************************


 Program * Restricted Hartree-Fock

 Orbital guess generated from atomic densities. Full valence occupancy:   33

 Initial occupancy:  19

 NELEC=   38   SYM=1   MS2= 0   THRE=1.0D-08   THRD=3.2D-06   THRG=3.2D-06  HFMA2=F  DIIS_START=2   DIIS_MAX=10   DIIS_INCORE=F

 Level shifts:    0.00 (CLOSED)    0.00 (OPEN)    0.30 (GAP_MIN)

 ITER           ETOT              DE          GRAD        DDIFF     DIIS  NEXP   TIME(IT)  TIME(TOT)  DIAG
   1     -193.87178106    -193.87178106     0.00D+00     0.45D-01     0     0       2.57      5.07    start
   2     -193.92410691      -0.05232586     0.28D-02     0.41D-02     1     0       2.74      7.81    diag
   3     -193.93092635      -0.00681943     0.11D-02     0.12D-02     2     0       2.72     10.53    diag
   4     -193.93211761      -0.00119127     0.39D-03     0.55D-03     3     0       2.53     13.06    diag
   5     -193.93218001      -0.00006239     0.10D-03     0.13D-03     4     0       2.46     15.52    diag
   6     -193.93219043      -0.00001043     0.30D-04     0.58D-04     5     0       2.42     17.94    diag
   7     -193.93219229      -0.00000186     0.12D-04     0.21D-04     6     0       2.42     20.36    diag
   8     -193.93219286      -0.00000057     0.49D-05     0.13D-04     7     0       2.45     22.81    fixocc
   9     -193.93219297      -0.00000011     0.19D-05     0.60D-05     8     0       2.39     25.20    diag
  10     -193.93219299      -0.00000002     0.86D-06     0.27D-05     9     0       2.40     27.60    diag/orth
  11     -193.93219299      -0.00000000     0.27D-06     0.72D-06     9     0       2.39     29.99    diag
  12     -193.93219299      -0.00000000     0.96D-07     0.15D-06     0     0       2.41     32.40    diag

 Final occupancy:  19

 !RHF STATE 1.1 Energy               -193.932192988936
  RHF One-electron energy            -585.435524306800
  RHF Two-electron energy             227.349671217530
  RHF Kinetic energy                  193.575965508005
  RHF Nuclear energy                  164.153660100333
  RHF Virial quotient                  -1.001840246438

 !RHF STATE 1.1 Dipole moment           0.08464524     0.01186152     0.00000000
 Dipole moment /Debye                   0.21514674     0.03014898     0.00000000

 Orbital energies:

           1.1          2.1          3.1          4.1          5.1          6.1          7.1          8.1          9.1         10.1
    -11.242771   -11.242733   -11.228328   -11.228323   -11.228060    -1.112792    -1.005068    -0.939371    -0.806583    -0.723915

          11.1         12.1         13.1         14.1         15.1         16.1         17.1         18.1         19.1         20.1
     -0.674401    -0.589433    -0.577351    -0.566997    -0.531924    -0.516394    -0.497892    -0.352943    -0.302816     0.101171

          21.1
      0.142539


 HOMO     19.1    -0.302816 =      -8.2400eV
 LUMO     20.1     0.101171 =       2.7530eV
 LUMO-HOMO         0.403986 =      10.9930eV

 Orbitals saved in record  2100.2


 **********************************************************************************************************************************
 DATASETS  * FILE   NREC   LENGTH (MB)   RECORD NAMES
              1      19     1845.45       500      610      700      900      950      970     1000      129      960     1100   
                                          VAR    BASINP    GEOM    SYMINP    ZMAT    AOBASIS   BASIS     P2S    ABASIS      S 
                                         1400     1410     1200     1210     1080     1600     1650     1300     1700   
                                           T        V       H0       H01     AOSYM     SMH    MOLCAS    ERIS     OPER   

              2       4        1.67       700     1000      520     2100   
                                         GEOM     BASIS   MCVARS     RHF  

 PROGRAMS   *        TOTAL    HF-SCF       INT
 CPU TIMES  *        54.46     32.40     21.96
 REAL TIME  *        90.84 SEC
 DISK USED  *         7.67 GB
 **********************************************************************************************************************************


 PROGRAM * MP3 (Closed-shell)     Authors: C. Hampel, H.-J. Werner, 1991, M. Deegan, P.J. Knowles, 1992


 Convergence thresholds:  THRVAR = 1.00D-08  THRDEN = 1.00D-06

 Number of core orbitals:           5 (   5 )
 Number of closed-shell orbitals:  14 (  14 )
 Number of external orbitals:     243 ( 243 )

 Molecular orbitals read from record     2100.2  Type=RHF/CANONICAL  

 Number of N-1 electron functions:              14
 Number of N-2 electron functions:             105
 Number of singly external CSFs:              3402
 Number of doubly external CSFs:           5788503
 Total number of CSFs:                     5791906

 Length of J-op  integral file:               0.00 MB
 Length of K-op  integral file:               4.78 MB

 Integral transformation finished. Total CPU:   5.23 sec, npass=  1  Memory used:  13.38 MW

 Reference energy:                   -193.93219299

                        CORR.ENERGY   TOTAL ENERGY   ENERGY CHANGE
 MP2:                   -0.86641424  -194.79860723    -0.86641424

 SCS-MP2 correlation energy:           -0.85859444   (PS=  1.200000  PT=  0.333333)
 SCS-MP2 total energy:               -194.79078743

 MP3(D):                -0.89540797  -194.82760095    -0.02899373



 RESULTS
 =======

  Reference energy                   -193.932192988938
  MP3 singlet pair energy              -0.603948570665
  MP3 triplet pair energy              -0.291459394635
  MP3 correlation energy               -0.895407965300

 !MP3 total energy                   -194.827600954238

 Timing summary (sec):

 STEP                 CPU(USER)    SYS     CPU(TOT)    WALL
 Transformation          5.46      0.69      6.15      7.31
 CCSD iterations        70.65      0.75     71.40     20.95

 Program statistics:

 Available memory in ccsd:               805305565
 Min. memory needed in ccsd:              14535538
 Max. memory used in ccsd:                19778069
 Max. memory used in cckext:              15058152 ( 1 integral passes)



 **********************************************************************************************************************************
 DATASETS  * FILE   NREC   LENGTH (MB)   RECORD NAMES
              1      20     1929.09       500      610      700      900      950      970     1000      129      960     1100   
                                          VAR    BASINP    GEOM    SYMINP    ZMAT    AOBASIS   BASIS     P2S    ABASIS      S 
                                         1400     1410     1200     1210     1080     1600     1650     1300     1700     1380   
                                           T        V       H0       H01     AOSYM     SMH    MOLCAS    ERIS     OPER     JKOP   

              2       4        1.67       700     1000      520     2100   
                                         GEOM     BASIS   MCVARS     RHF  

 PROGRAMS   *        TOTAL       MP3    HF-SCF       INT
 CPU TIMES  *        76.02     21.56     32.40     21.96
 REAL TIME  *       119.74 SEC
 DISK USED  *         7.67 GB
 **********************************************************************************************************************************

 Dump information in style XML to xml output                                                                      

 Orbitals will not be exported.

 **********************************************************************************************************************************

 MP3/cc-pVTZ energy=   -194.827600954238

             MP3          HF-SCF
   -194.82760095   -193.93219299
 **********************************************************************************************************************************
 Molpro calculation terminated
