
 Working directory              : /var/folders/2v/xbgp75_9785319ghcgb4zr4r0000gp/T//molpro.Dghlp1TaGZ/
 Global scratch directory       : /var/folders/2v/xbgp75_9785319ghcgb4zr4r0000gp/T//molpro.Dghlp1TaGZ/
 Wavefunction directory         : /Users/sacpjk/wfu/
 Main file repository           : /var/folders/2v/xbgp75_9785319ghcgb4zr4r0000gp/T//molpro.Dghlp1TaGZ/

 id        : peterk

 Nodes                        nprocs
 Cardiff-University-G34YLXT77Y    1
 GA implementation: MPI file
 GA implementation (serial work in mppx): MPI file

 Using customized tuning parameters: mindgm=1; mindgv=20; mindgc=4; mindgr=1; noblas=0; minvec=7
 default implementation of scratch files=df  


 Variables initialized (1032), CPU time= 0.00 sec
 
 symmetry,nosym
 
 
 geometry={
           14
     C         -0.29185967     -2.89452203      0.00000000
     H          0.66835967     -3.40596421      0.00000000
     H         -1.17802099     -3.52183225      0.00000000
     C         -0.37379871     -1.55391455      0.00000000
     H         -1.35953406     -1.09227639      0.00000000
     C          0.78456671     -0.67768724      0.00000000
     H          1.75028705     -1.18240342      0.00000000
     C          0.78456671      0.67768724      0.00000000
     H          1.75028705      1.18240342      0.00000000
     C         -0.37379870      1.55391455      0.00000000
     H         -1.35953406      1.09227639      0.00000000
     C         -0.29185967      2.89452203      0.00000000
     H          0.66835967      3.40596421      0.00000000
     H         -1.17802099      3.52183225      0.00000000
 }
 basis=cc-pVTZ
 
 
 
 hf; ccsd(t)
 
 
 
 {put,xml;noorbitals,nobasis}
 Commands initialized (841), CPU time= 0.01 sec, 704 directives.
 Default parameters read. Elapsed time= 1.40 sec

 Checking input...
 Passed
1


                                         ***  PROGRAM SYSTEM MOLPRO  ***
                                       Copyright, TTI GmbH Stuttgart, 2015
                                    Version 2023.1 linked Tue Jun  6 09:54:11 2023


 **********************************************************************************************************************************
 LABEL *                                                                                                                                                                 
  64 bit serial version                                                                  DATE: 12-Jun-23          TIME: 01:45:31  
 **********************************************************************************************************************************

 SHA1:             8ebb0dd001088a5c915591db1a321413035db0b1
 **********************************************************************************************************************************

 Memory per process:       393 MW
 Total memory per node:    524 MW
 Total GA space:           131 MW

 GA preallocation disabled
 GA check enabled

 Variable memory set to 393.2 MW

 ZSYMEL=NOSYM


 Geometry recognized as XYZ

 SETTING BASIS          =    CC-PVTZ


 Recomputing integrals since basis changed


 Using spherical harmonics

 Library entry C      S cc-pVTZ              selected for orbital group  1
 Library entry C      P cc-pVTZ              selected for orbital group  1
 Library entry C      D cc-pVTZ              selected for orbital group  1
 Library entry C      F cc-pVTZ              selected for orbital group  1
 Library entry H      S cc-pVTZ              selected for orbital group  2
 Library entry H      P cc-pVTZ              selected for orbital group  2
 Library entry H      D cc-pVTZ              selected for orbital group  2


 PROGRAM * SEWARD (Integral evaluation for generally contracted gaussian basis sets)     Author: Roland Lindh, 1990

 Geometry written to block  1 of record 700


 Point group  C1  



 ATOMIC COORDINATES

 NR  ATOM    CHARGE       X              Y              Z

   1  C       6.00   -0.551534843   -5.469853898    0.000000000
   2  H       1.00    1.263016729   -6.436339547    0.000000000
   3  H       1.00   -2.226137040   -6.655298409    0.000000000
   4  C       6.00   -0.706377188   -2.936472921    0.000000000
   5  H       1.00   -2.569147031   -2.064103229    0.000000000
   6  C       6.00    1.482616208   -1.280643282    0.000000000
   7  H       1.00    3.307563164   -2.234418633    0.000000000
   8  C       6.00    1.482616208    1.280643282    0.000000000
   9  H       1.00    3.307563164    2.234418633    0.000000000
  10  C       6.00   -0.706377169    2.936472921    0.000000000
  11  H       1.00   -2.569147031    2.064103229    0.000000000
  12  C       6.00   -0.551534843    5.469853898    0.000000000
  13  H       1.00    1.263016729    6.436339547    0.000000000
  14  H       1.00   -2.226137040    6.655298409    0.000000000

 Bond lengths in Bohr (Angstrom)

 1-2  2.055892000  1-3  2.051723960  1-4  2.538108613  4-5  2.056924978  4-6  2.744715628
     ( 1.087931195)     ( 1.085725563)     ( 1.343109237)     ( 1.088477823)     ( 1.452440961)

  6- 7  2.059154878   6- 8  2.561286564   8- 9  2.059154878   8-10  2.744715613  10-11  2.056924995
       ( 1.089657835)       ( 1.355374480)       ( 1.089657835)       ( 1.452440953)       ( 1.088477832)

 10-12  2.538108612  12-13  2.055892000  12-14  2.051723960
       ( 1.343109236)       ( 1.087931195)       ( 1.085725563)

 Bond angles

  1-4-5  118.59217940   1-4-6  123.60749590   2-1-3  116.66433886   2-1-4  121.53874401

  3-1-4  121.79691713   4-6-7  115.30188927   4-6-8  127.10511034   5-4-6  117.80032471

  6- 8- 9  117.59300039   6- 8-10  127.10511057   7- 6- 8  117.59300039   8-10-11  117.80032469

  8-10-12  123.60749656   9- 8-10  115.30188903  10-12-13  121.53874359  10-12-14  121.79691755

 11-10-12  118.59217875  13-12-14  116.66433886

 NUCLEAR CHARGE:                   44
 NUMBER OF PRIMITIVE AOS:         418
 NUMBER OF SYMMETRY AOS:          380
 NUMBER OF CONTRACTIONS:          292   (  292A   )
 NUMBER OF INNER CORE ORBITALS:     0   (    0A   )
 NUMBER OF OUTER CORE ORBITALS:     6   (    6A   )
 NUMBER OF VALENCE ORBITALS:       32   (   32A   )


 NUCLEAR REPULSION ENERGY  196.23621796

 EXTRA SYMMETRY OF AOS IN SYMMETRY 1:   1 1 1 1 1 1 2 1 1 2   1 1 2 1 1 2 1 2 1 1   2 1 2 1 1 2 1 2 1 2   1 1 1 1 1 2 1 1 2 1
                                        1 2 1 2 1 1 1 1 1 2   1 1 2 1 1 2 1 2 1 1   1 1 1 1 2 1 1 2 1 1   2 1 1 2 1 2 1 1 2 1
                                        2 1 1 2 1 2 1 2 1 1   1 1 1 2 1 1 2 1 1 2   1 2 1 1 1 1 1 1 2 1   1 2 1 1 2 1 1 2 1 2
                                        1 1 2 1 2 1 1 2 1 2   1 2 1 1 1 1 1 2 1 1   2 1 1 2 1 2 1 1 1 1   1 1 2 1 1 2 1 1 2 1
                                        1 2 1 2 1 1 2 1 2 1   1 2 1 2 1 2 1 1 1 1   1 2 1 1 2 1 1 2 1 2   1 1 1 1 1 1 2 1 1 2
                                        1 1 2 1 1 2 1 2 1 1   2 1 2 1 1 2 1 2 1 2   1 1 1 1 1 2 1 1 2 1   1 2 1 2 1 1 1 1 1 1
                                        2 1 1 2 1 1 2 1 1 2   1 2 1 1 2 1 2 1 1 2   1 2 1 2 1 1 1 1 1 2   1 1 2 1 1 2 1 2 1 1
                                        1 1 1 2 1 1 2 1 1 2   1 2

 Eigenvalues of metric

         1 0.109E-03 0.298E-03 0.441E-03 0.454E-03 0.690E-03 0.783E-03 0.880E-03 0.997E-03


 Contracted 2-electron integrals neglected if value below      1.0D-11
 AO integral compression algorithm  1   Integral accuracy      1.0D-11

     1405.354 MB (compressed) written to integral file ( 19.8%)


 NUMBER OF SORTED TWO-ELECTRON INTEGRALS:  915000031.     BUFFER LENGTH:  32768
 NUMBER OF SEGMENTS:  58  SEGMENT LENGTH:   15999984      RECORD LENGTH: 262144

 Memory used in sort:      16.29 MW

 SORT1 READ   886753637. AND WROTE   330832011. INTEGRALS IN   1922 RECORDS. CPU TIME:     6.05 SEC, REAL TIME:     7.77 SEC
 SORT2 READ   330832011. AND WROTE   915000031. INTEGRALS IN   5361 RECORDS. CPU TIME:     4.00 SEC, REAL TIME:     5.86 SEC

 FILE SIZES:   FILE 1:  1438.7 MBYTE,  FILE 4:  4030.8 MBYTE,   TOTAL:   5469.5 MBYTE

 OPERATOR DM      FOR CENTER  0  COORDINATES:    0.000000    0.000000    0.000000


 **********************************************************************************************************************************
 DATASETS  * FILE   NREC   LENGTH (MB)   RECORD NAMES
              1      19     1209.01       500      610      700      900      950      970     1000      129      960     1100   
                                          VAR    BASINP    GEOM    SYMINP    ZMAT    AOBASIS   BASIS     P2S    ABASIS      S 
                                         1400     1410     1200     1210     1080     1600     1650     1300     1700   
                                           T        V       H0       H01     AOSYM     SMH    MOLCAS    ERIS     OPER   

 PROGRAMS   *        TOTAL       INT
 CPU TIMES  *        27.99     27.89
 REAL TIME  *        38.47 SEC
 DISK USED  *         5.09 GB
 **********************************************************************************************************************************


 Program * Restricted Hartree-Fock

 Orbital guess generated from atomic densities. Full valence occupancy:   38

 Initial occupancy:  22

 NELEC=   44   SYM=1   MS2= 0   THRE=1.0D-08   THRD=3.2D-06   THRG=3.2D-06  HFMA2=F  DIIS_START=2   DIIS_MAX=10   DIIS_INCORE=F

 Level shifts:    0.00 (CLOSED)    0.00 (OPEN)    0.30 (GAP_MIN)

 ITER           ETOT              DE          GRAD        DDIFF     DIIS  NEXP   TIME(IT)  TIME(TOT)  DIAG
   1     -231.82083416    -231.82083416     0.00D+00     0.43D-01     0     0       4.06      8.05    start
   2     -231.88030630      -0.05947214     0.26D-02     0.37D-02     1     0       4.27     12.32    diag
   3     -231.88630014      -0.00599384     0.83D-03     0.11D-02     2     0       4.20     16.52    diag
   4     -231.88718803      -0.00088789     0.28D-03     0.46D-03     3     0       4.23     20.75    diag
   5     -231.88723075      -0.00004272     0.68D-04     0.96D-04     4     0       4.33     25.08    diag
   6     -231.88723881      -0.00000806     0.23D-04     0.39D-04     5     0       4.34     29.42    diag
   7     -231.88723961      -0.00000080     0.63D-05     0.11D-04     6     0       4.33     33.75    diag
   8     -231.88723968      -0.00000007     0.21D-05     0.34D-05     7     0       4.35     38.10    fixocc
   9     -231.88723969      -0.00000000     0.47D-06     0.10D-05     8     0       4.36     42.46    diag
  10     -231.88723969      -0.00000000     0.10D-06     0.20D-06     0     0       4.43     46.89    diag/orth

 Final occupancy:  22

 !RHF STATE 1.1 Energy               -231.887239685551
  RHF One-electron energy            -700.028090967012
  RHF Two-electron energy             271.904633324135
  RHF Kinetic energy                  231.465866735542
  RHF Nuclear energy                  196.236217957326
  RHF Virial quotient                  -1.001820453944

 !RHF STATE 1.1 Dipole moment          -0.01841691    -0.00000001     0.00000000
 Dipole moment /Debye                  -0.04681112    -0.00000002     0.00000000

 Orbital energies:

           1.1          2.1          3.1          4.1          5.1          6.1          7.1          8.1          9.1         10.1
    -11.241214   -11.241085   -11.240191   -11.238805   -11.231676   -11.231676    -1.108208    -1.055088    -0.982432    -0.844358

          11.1         12.1         13.1         14.1         15.1         16.1         17.1         18.1         19.1         20.1
     -0.793496    -0.726079    -0.671800    -0.632509    -0.598126    -0.564636    -0.545676    -0.525641    -0.480564    -0.466232

          21.1         22.1         23.1         24.1
     -0.394897    -0.295024     0.085778     0.153950


 HOMO     22.1    -0.295024 =      -8.0280eV
 LUMO     23.1     0.085778 =       2.3341eV
 LUMO-HOMO         0.380802 =      10.3622eV

 Orbitals saved in record  2100.2


 **********************************************************************************************************************************
 DATASETS  * FILE   NREC   LENGTH (MB)   RECORD NAMES
              1      19     1209.01       500      610      700      900      950      970     1000      129      960     1100   
                                          VAR    BASINP    GEOM    SYMINP    ZMAT    AOBASIS   BASIS     P2S    ABASIS      S 
                                         1400     1410     1200     1210     1080     1600     1650     1300     1700   
                                           T        V       H0       H01     AOSYM     SMH    MOLCAS    ERIS     OPER   

              2       4        1.94       700     1000      520     2100   
                                         GEOM     BASIS   MCVARS     RHF  

 PROGRAMS   *        TOTAL    HF-SCF       INT
 CPU TIMES  *        74.88     46.89     27.89
 REAL TIME  *        90.26 SEC
 DISK USED  *         5.09 GB
 **********************************************************************************************************************************


 PROGRAM * CCSD (Closed-shell coupled cluster)     Authors: C. Hampel, H.-J. Werner, 1991, M. Deegan, P.J. Knowles, 1992


 Convergence thresholds:  THRVAR = 1.00D-08  THRDEN = 1.00D-06

 CCSD(T)     terms to be evaluated (factor= 1.000)


 Number of core orbitals:           6 (   6 )
 Number of closed-shell orbitals:  16 (  16 )
 Number of external orbitals:     270 ( 270 )

 Molecular orbitals read from record     2100.2  Type=RHF/CANONICAL  

 Number of N-1 electron functions:              16
 Number of N-2 electron functions:             136
 Number of singly external CSFs:              4320
 Number of doubly external CSFs:           9333360
 Total number of CSFs:                     9337681

 Length of J-op  integral file:               0.00 MB
 Length of K-op  integral file:               5.92 MB
 Length of 3-ext integral record:             0.00 MB

 Integral transformation finished. Total CPU:  34.08 sec, npass=  1  Memory used: 233.19 MW

 Reference energy:                   -231.88723969

 MP2 singlet pair energy:              -0.63055150
 MP2 triplet pair energy:              -0.33804799
 MP2 correlation energy:               -0.96859949
 MP2 total energy:                   -232.85583918

 SCS-MP2 correlation energy:           -0.96700277   (PS=  1.200000  PT=  0.333333)
 SCS-MP2 total energy:               -232.85424246

 ITER.      SQ.NORM     CORR.ENERGY   TOTAL ENERGY   ENERGY CHANGE        DEN1      VAR(S)    VAR(P)  DIIS     TIME  TIME/IT
   1      1.34858967    -1.00929176  -232.89653144    -0.04069227    -0.01336787  0.46D-02  0.61D-02  1  1   159.49    52.88
   2      1.37623017    -1.01387981  -232.90111949    -0.00458805    -0.02472395  0.80D-04  0.10D-02  2  2   211.60    54.37
   3      1.38848474    -1.01421453  -232.90145422    -0.00033472    -0.00567793  0.40D-04  0.12D-03  3  3   262.78    54.44
   4      1.39373039    -1.01436095  -232.90160063    -0.00014642    -0.00153104  0.26D-05  0.20D-04  4  4   314.34    54.60
   5      1.39566972    -1.01438590  -232.90162559    -0.00002496    -0.00039906  0.65D-06  0.24D-05  5  5   366.00    54.68
   6      1.39622583    -1.01437617  -232.90161586     0.00000973    -0.00007204  0.85D-07  0.30D-06  6  6   417.09    54.62
   7      1.39631484    -1.01437594  -232.90161563     0.00000023    -0.00000424  0.47D-07  0.57D-07  6  2   467.03    54.41
   8      1.39634908    -1.01437564  -232.90161532     0.00000031    -0.00000270  0.17D-07  0.11D-07  6  1   513.17    53.77
   9      1.39636204    -1.01437578  -232.90161546    -0.00000014     0.00000053  0.29D-08  0.15D-08  6  3   560.83    53.41

 Norm of t1 vector:      0.09280491      S-energy:    -0.00000101      T1 diagnostic:  0.01160061
                                                                       D1 diagnostic:  0.03695395
                                                                       D2 diagnostic:  0.21656320 (internal)

 Doubles amplitudes (print threshold =  0.500E-01):

         I         J         SYM. A    SYM. B    A         B      T(IJ, AB)

        16        15         1         1         4         1      0.05215152
        16        16         1         1         1         1     -0.09988289


 Total CPU time for triples:   1304.91 sec


 RESULTS
 =======

  Reference energy                   -231.887239685551
  CCSD singlet pair energy             -0.708536867283
  CCSD triplet pair energy             -0.305837898256
  CCSD correlation energy              -1.014375778746

  Triples (T) contribution             -0.050210452603
  Total correlation energy             -1.064586231349

  CCSD total energy                  -232.901615464297
  CCSD[T] energy                     -232.953026358018
  CCSD-T energy                      -232.951326547044
 !CCSD(T) total energy               -232.951825916900

 Timing summary (sec):

 STEP                 CPU(USER)    SYS     CPU(TOT)    WALL
 Transformation         34.76      4.19     38.95     39.04
 CCSD iterations       526.43     15.54    541.97    481.54
 Triples              1304.91     33.78   1338.69   1390.48

 Program statistics:

 Available memory in ccsd:               393214954
 Min. memory needed in ccsd:              22802697
 Max. memory used in ccsd:                31357193
 Max. memory used in cckext:              24027883 ( 9 integral passes)



 **********************************************************************************************************************************
 DATASETS  * FILE   NREC   LENGTH (MB)   RECORD NAMES
              1      20     2548.98       500      610      700      900      950      970     1000      129      960     1100   
                                          VAR    BASINP    GEOM    SYMINP    ZMAT    AOBASIS   BASIS     P2S    ABASIS      S 
                                         1400     1410     1200     1210     1080     1600     1650     1300     1700     1380   
                                           T        V       H0       H01     AOSYM     SMH    MOLCAS    ERIS     OPER     JKOP   

              2       4        1.94       700     1000      520     2100   
                                         GEOM     BASIS   MCVARS     RHF  

 PROGRAMS   *        TOTAL   CCSD(T)    HF-SCF       INT
 CPU TIMES  *      1865.99   1791.11     46.89     27.89
 REAL TIME  *      2002.07 SEC
 DISK USED  *         5.09 GB
 **********************************************************************************************************************************

 Dump information in style XML to xml output                                                                      

 Orbitals will not be exported.

 **********************************************************************************************************************************

 CCSD(T)/cc-pVTZ energy=   -232.951825916900

         CCSD(T)          HF-SCF
   -232.95182592   -231.88723969
 **********************************************************************************************************************************
 Molpro calculation terminated
