
 Working directory              : /var/folders/2v/xbgp75_9785319ghcgb4zr4r0000gp/T//molpro.lZBKRv0nMV/
 Global scratch directory       : /var/folders/2v/xbgp75_9785319ghcgb4zr4r0000gp/T//molpro.lZBKRv0nMV/
 Wavefunction directory         : /Users/sacpjk/wfu/
 Main file repository           : /var/folders/2v/xbgp75_9785319ghcgb4zr4r0000gp/T//molpro.lZBKRv0nMV/

 id        : peterk

 Nodes                        nprocs
 Cardiff-University-G34YLXT77Y    1
 GA implementation: MPI file
 GA implementation (serial work in mppx): MPI file

 Using customized tuning parameters: mindgm=1; mindgv=20; mindgc=4; mindgr=1; noblas=0; minvec=7
 default implementation of scratch files=df  


 Variables initialized (1032), CPU time= 0.00 sec
 
 symmetry,nosym
 
 
 geometry={
            1
     CL         0.00000000      0.00000000      0.00000000
 }
 basis=cc-pVDZ
 
 charge=-1
 
 hf; ccsd(t)
 
 
 
 {put,xml;noorbitals,nobasis}
 Commands initialized (841), CPU time= 0.01 sec, 704 directives.
 Default parameters read. Elapsed time= 0.29 sec

 Checking input...
 Passed
1


                                         ***  PROGRAM SYSTEM MOLPRO  ***
                                       Copyright, TTI GmbH Stuttgart, 2015
                                    Version 2023.1 linked Tue Jun  6 09:54:11 2023


 **********************************************************************************************************************************
 LABEL *                                                                                                                                                                 
  64 bit serial version                                                                  DATE: 09-Jun-23          TIME: 16:06:56  
 **********************************************************************************************************************************

 SHA1:             8ebb0dd001088a5c915591db1a321413035db0b1
 **********************************************************************************************************************************

 Memory per process:       805 MW
 Total memory per node:   1074 MW
 Total GA space:           268 MW

 GA preallocation disabled
 GA check enabled

 Variable memory set to 805.3 MW

 ZSYMEL=NOSYM


 Geometry recognized as XYZ

 SETTING BASIS          =    CC-PVDZ
 SETTING CHARGE         =        -1.00000000                                  


 Recomputing integrals since basis changed


 Using spherical harmonics

 Library entry CL     S cc-pVDZ              selected for orbital group  1
 Library entry CL     P cc-pVDZ              selected for orbital group  1
 Library entry CL     D cc-pVDZ              selected for orbital group  1


 PROGRAM * SEWARD (Integral evaluation for generally contracted gaussian basis sets)     Author: Roland Lindh, 1990

 Geometry written to block  1 of record 700

 Orientation using atomic masses  
 Molecule type: Atom
 Rotational constants:       0.0000000      0.0000000      0.0000000 GHz  (calculated with average atomic masses)

 Point group  C1  



 ATOMIC COORDINATES

 NR  ATOM    CHARGE       X              Y              Z

   1  CL     17.00    0.000000000    0.000000000    0.000000000

 NUCLEAR CHARGE:                   17
 NUMBER OF PRIMITIVE AOS:          42
 NUMBER OF SYMMETRY AOS:           41
 NUMBER OF CONTRACTIONS:           18   (   18A   )
 NUMBER OF INNER CORE ORBITALS:     1   (    1A   )
 NUMBER OF OUTER CORE ORBITALS:     4   (    4A   )
 NUMBER OF VALENCE ORBITALS:        4   (    4A   )


 NUCLEAR REPULSION ENERGY    0.00000000

 EXTRA SYMMETRY OF AOS IN SYMMETRY 1:   1 1 1 1 2 3 4 2 3 4   2 3 4 5 6 7 8 9

 Eigenvalues of metric

         1 0.346E-01 0.125E+00 0.125E+00 0.125E+00 0.100E+01 0.100E+01 0.100E+01 0.100E+01


 Contracted 2-electron integrals neglected if value below      1.0D-11
 AO integral compression algorithm  1   Integral accuracy      1.0D-11

     0.262 MB (compressed) written to integral file ( 42.4%)


 NUMBER OF SORTED TWO-ELECTRON INTEGRALS:      14706.     BUFFER LENGTH:  32768
 NUMBER OF SEGMENTS:   1  SEGMENT LENGTH:      14706      RECORD LENGTH: 524288

 Memory used in sort:       0.57 MW

 SORT1 READ       19124. AND WROTE        2041. INTEGRALS IN      1 RECORDS. CPU TIME:     0.00 SEC, REAL TIME:     0.00 SEC
 SORT2 READ        2041. AND WROTE       14706. INTEGRALS IN      1 RECORDS. CPU TIME:     0.00 SEC, REAL TIME:     0.00 SEC

 FILE SIZES:   FILE 1:    30.2 MBYTE,  FILE 4:     4.3 MBYTE,   TOTAL:     34.5 MBYTE

 OPERATOR DM      FOR CENTER  0  COORDINATES:    0.000000    0.000000    0.000000


 **********************************************************************************************************************************
 DATASETS  * FILE   NREC   LENGTH (MB)   RECORD NAMES
              1      19       28.62       500      610      700      900      950      970     1000      129      960     1100   
                                          VAR    BASINP    GEOM    SYMINP    ZMAT    AOBASIS   BASIS     P2S    ABASIS      S 
                                         1400     1410     1200     1210     1080     1600     1650     1300     1700   
                                           T        V       H0       H01     AOSYM     SMH    MOLCAS    ERIS     OPER   

 PROGRAMS   *        TOTAL       INT
 CPU TIMES  *         0.19      0.08
 REAL TIME  *         1.09 SEC
 DISK USED  *        33.22 MB
 **********************************************************************************************************************************


 Program * Restricted Hartree-Fock

 Orbital guess generated from atomic densities. Full valence occupancy:    9

 Initial occupancy:   9

 NELEC=   18   SYM=1   MS2= 0   THRE=1.0D-08   THRD=3.2D-06   THRG=3.2D-06  HFMA2=F  DIIS_START=2   DIIS_MAX=10   DIIS_INCORE=F

 Level shifts:    0.00 (CLOSED)    0.00 (OPEN)    0.30 (GAP_MIN)

 ITER           ETOT              DE          GRAD        DDIFF     DIIS  NEXP   TIME(IT)  TIME(TOT)  DIAG
   1     -459.50945880    -459.50945880     0.00D+00     0.45D+00     0     0       0.00      0.00    start
   2     -459.53950019      -0.03004139     0.18D-01     0.85D-01     1     0       0.00      0.00    diag
   3     -459.54221989      -0.00271971     0.59D-02     0.17D-01     2     0       0.00      0.00    diag
   4     -459.54222032      -0.00000042     0.10D-03     0.20D-03     3     0       0.00      0.00    diag
   5     -459.54222032      -0.00000000     0.49D-06     0.60D-06     4     0       0.00      0.00    diag
   6     -459.54222032       0.00000000     0.18D-07     0.75D-07     0     0       0.00      0.00    diag

 Final occupancy:   9

 !RHF STATE 1.1 Energy               -459.542220316583
  RHF One-electron energy            -641.869291534533
  RHF Two-electron energy             182.327071217950
  RHF Kinetic energy                  459.577563697494
  RHF Nuclear energy                    0.000000000000
  RHF Virial quotient                  -0.999923095939

 !RHF STATE 1.1 Dipole moment          -0.00000000    -0.00000000    -0.00000000
 Dipole moment /Debye                  -0.00000000    -0.00000000    -0.00000000

 Orbital energies:

           1.1          2.1          3.1          4.1          5.1          6.1          7.1          8.1          9.1         10.1
   -104.458656   -10.179336    -7.645610    -7.645610    -7.645610    -0.692827    -0.113308    -0.113308    -0.113308     1.078045

          11.1
      1.078045


 HOMO      9.1    -0.113308 =      -3.0833eV
 LUMO     10.1     1.078045 =      29.3351eV
 LUMO-HOMO         1.191354 =      32.4184eV

 Orbitals saved in record  2100.2


 **********************************************************************************************************************************
 DATASETS  * FILE   NREC   LENGTH (MB)   RECORD NAMES
              1      19       28.62       500      610      700      900      950      970     1000      129      960     1100   
                                          VAR    BASINP    GEOM    SYMINP    ZMAT    AOBASIS   BASIS     P2S    ABASIS      S 
                                         1400     1410     1200     1210     1080     1600     1650     1300     1700   
                                           T        V       H0       H01     AOSYM     SMH    MOLCAS    ERIS     OPER   

              2       4        0.38       700     1000      520     2100   
                                         GEOM     BASIS   MCVARS     RHF  

 PROGRAMS   *        TOTAL    HF-SCF       INT
 CPU TIMES  *         0.19      0.00      0.08
 REAL TIME  *         1.26 SEC
 DISK USED  *        33.22 MB
 **********************************************************************************************************************************


 PROGRAM * CCSD (Closed-shell coupled cluster)     Authors: C. Hampel, H.-J. Werner, 1991, M. Deegan, P.J. Knowles, 1992


 Convergence thresholds:  THRVAR = 1.00D-08  THRDEN = 1.00D-06

 CCSD(T)     terms to be evaluated (factor= 1.000)


 Number of core orbitals:           5 (   5 )
 Number of closed-shell orbitals:   4 (   4 )
 Number of external orbitals:       9 (   9 )

 Molecular orbitals read from record     2100.2  Type=RHF/CANONICAL  

 Number of N-1 electron functions:               4
 Number of N-2 electron functions:              10
 Number of singly external CSFs:                36
 Number of doubly external CSFs:               666
 Total number of CSFs:                         703

 Length of J-op  integral file:               0.00 MB
 Length of K-op  integral file:               0.08 MB
 Length of 3-ext integral record:             0.00 MB

 Memory could be reduced to 0.06 Mwords without degradation in triples

 Integral transformation finished. Total CPU:   0.00 sec, npass=  1  Memory used:   0.09 MW

 Reference energy:                   -459.54222032

 MP2 singlet pair energy:              -0.07948064
 MP2 triplet pair energy:              -0.05492471
 MP2 correlation energy:               -0.13440535
 MP2 total energy:                   -459.67662567

 SCS-MP2 correlation energy:           -0.12955215   (PS=  1.200000  PT=  0.333333)
 SCS-MP2 total energy:               -459.67177246

 ITER.      SQ.NORM     CORR.ENERGY   TOTAL ENERGY   ENERGY CHANGE        DEN1      VAR(S)    VAR(P)  DIIS     TIME  TIME/IT
   1      1.05387947    -0.14582962  -459.68804994    -0.01142427    -0.00928843  0.86D-04  0.43D-03  1  1     0.30     0.00
   2      1.05608708    -0.14618575  -459.68840606    -0.00035613    -0.00250419  0.14D-05  0.11D-04  2  2     0.30     0.01
   3      1.05616219    -0.14621351  -459.68843382    -0.00002776    -0.00000830  0.81D-07  0.14D-06  3  3     0.30     0.01
   4      1.05617231    -0.14621562  -459.68843594    -0.00000211    -0.00000864  0.22D-08  0.32D-08  4  4     0.31     0.01
   5      1.05617282    -0.14621463  -459.68843494     0.00000099     0.00000021  0.27D-10  0.30D-10  5  5     0.31     0.01
   6      1.05617296    -0.14621488  -459.68843519    -0.00000025    -0.00000017  0.14D-12  0.66D-12  6  6     0.31     0.01

 Norm of t1 vector:      0.01132014      S-energy:     0.00000001      T1 diagnostic:  0.00283004
                                                                       D1 diagnostic:  0.00401197
                                                                       D2 diagnostic:  0.11186645 (internal)


 Total CPU time for triples:      0.00 sec


 RESULTS
 =======

  Reference energy                   -459.542220316583
  CCSD singlet pair energy             -0.093165060208
  CCSD triplet pair energy             -0.053049821344
  CCSD correlation energy              -0.146214875263

  Triples (T) contribution             -0.001150639935
  Total correlation energy             -0.147365515198

  CCSD total energy                  -459.688435191846
  CCSD[T] energy                     -459.689615502550
  CCSD-T energy                      -459.689571861774
 !CCSD(T) total energy               -459.689585831781

 Timing summary (sec):

 STEP                 CPU(USER)    SYS     CPU(TOT)    WALL
 CCSD iterations         0.31      0.00      0.31      0.15

 Program statistics:

 Available memory in ccsd:               805306295
 Min. memory needed in ccsd:                  6421
 Max. memory used in ccsd:                    6421
 Max. memory used in cckext:                 41702 ( 6 integral passes)



 **********************************************************************************************************************************
 DATASETS  * FILE   NREC   LENGTH (MB)   RECORD NAMES
              1      20       28.67       500      610      700      900      950      970     1000      129      960     1100   
                                          VAR    BASINP    GEOM    SYMINP    ZMAT    AOBASIS   BASIS     P2S    ABASIS      S 
                                         1400     1410     1200     1210     1080     1600     1650     1300     1700     1380   
                                           T        V       H0       H01     AOSYM     SMH    MOLCAS    ERIS     OPER     JKOP   

              2       4        0.38       700     1000      520     2100   
                                         GEOM     BASIS   MCVARS     RHF  

 PROGRAMS   *        TOTAL   CCSD(T)    HF-SCF       INT
 CPU TIMES  *         0.23      0.05      0.00      0.08
 REAL TIME  *         1.59 SEC
 DISK USED  *        33.22 MB
 **********************************************************************************************************************************

 Dump information in style XML to xml output                                                                      

 Orbitals will not be exported.

 **********************************************************************************************************************************

 CCSD(T)/cc-pVDZ energy=   -459.689585831781

         CCSD(T)          HF-SCF
   -459.68958583   -459.54222032
 **********************************************************************************************************************************
 Molpro calculation terminated
