
 Working directory              : /tmp/peterk/molpro.3tULPGnt4p/
 Global scratch directory       : /tmp/peterk/molpro.3tULPGnt4p/
 Wavefunction directory         : /home/peterk/wfu/
 Main file repository           : /tmp/peterk/molpro.3tULPGnt4p/

 id        : peterk

 Nodes     nprocs
 marat        1
 GA implementation: MPI file
 GA implementation (serial work in mppx): MPI file

 Using customized tuning parameters: mindgm=1; mindgv=20; mindgc=4; mindgr=1; noblas=0; minvec=7
 default implementation of scratch files=df  


 Variables initialized (1032), CPU time= 0.00 sec
 
 core,small
 angstrom
 
 geometry={
 F;F,F,1.41134168
 }
 basis=cc-pCV5Z
 
 
 
 hf; ccsd(t)
 
 
 
 {put,xml;noorbitals,nobasis}
 Commands initialized (841), CPU time= 0.00 sec, 708 directives.
 Default parameters read. Elapsed time= 0.07 sec

 Checking input...
 Passed
1


                                         ***  PROGRAM SYSTEM MOLPRO  ***
                                       Copyright, TTI GmbH Stuttgart, 2015
                                    Version 2023.1 linked Sat Jun 10 08:01:27 2023


 **********************************************************************************************************************************
 LABEL *                                                                                                                                                                 
  (16 PROC) 64 bit serial version                                                        DATE: 12-Jun-23          TIME: 12:49:11  
 **********************************************************************************************************************************

 SHA1:             8376d659ba1296ca7ee514c57770fe2c96af278c
 **********************************************************************************************************************************

 Memory per process:      1074 MW
 Total memory per node:   1074 MW

 GA preallocation disabled
 GA check disabled

 Variable memory set to 1073.7 MW

 ZUNIT=ANG

 SETTING BASIS          =    CC-PCV5Z


 Recomputing integrals since basis changed


 Using spherical harmonics

 Library entry F      S cc-pCV5Z             selected for orbital group  1
 Library entry F      P cc-pCV5Z             selected for orbital group  1
 Library entry F      D cc-pCV5Z             selected for orbital group  1
 Library entry F      F cc-pCV5Z             selected for orbital group  1
 Library entry F      G cc-pCV5Z             selected for orbital group  1
 Library entry F      H cc-pCV5Z             selected for orbital group  1


 PROGRAM * SEWARD (Integral evaluation for generally contracted gaussian basis sets)     Author: Roland Lindh, 1990

 Geometry written to block  1 of record 700

 Orientation using atomic masses  
 Molecule type: Linear
 Symmetry elements: X,Y,Z
 Rotational constants:      26.7094998     26.7094998      0.0000000 GHz  (calculated with average atomic masses)

 Point group  D2h 



 ATOMIC COORDINATES

 NR  ATOM    CHARGE       X              Y              Z

   1  F       9.00    0.000000000    0.000000000   -1.333524622
   2  F       9.00    0.000000000    0.000000000    1.333524622

 Bond lengths in Bohr (Angstrom)

 1-2  2.667049243
     ( 1.411341680)

 NUCLEAR CHARGE:                   18
 NUMBER OF PRIMITIVE AOS:         424
 NUMBER OF SYMMETRY AOS:          324
 NUMBER OF CONTRACTIONS:          290   (   55Ag  +   35B3u +   35B2u +   20B1g +   55B1u +   35B2g +   35B3g +   20Au  )
 NUMBER OF INNER CORE ORBITALS:     0   (    0Ag  +    0B3u +    0B2u +    0B1g +    0B1u +    0B2g +    0B3g +    0Au  )
 NUMBER OF OUTER CORE ORBITALS:     2   (    1Ag  +    0B3u +    0B2u +    0B1g +    1B1u +    0B2g +    0B3g +    0Au  )
 NUMBER OF VALENCE ORBITALS:        8   (    2Ag  +    1B3u +    1B2u +    0B1g +    2B1u +    1B2g +    1B3g +    0Au  )


 NUCLEAR REPULSION ENERGY   30.37064284

 EXTRA SYMMETRY OF AOS IN SYMMETRY 1:   1 1 1 1 1 1 1 1 1 1   1 1 1 1 1 1 1 1 1 1   2 1 2 1 2 1 2 1 2 1   2 1 2 1 2 1 2 1 2 1
                                        2 1 2 1 3 2 1 3 2 1   3 2 2 3 1
 EXTRA SYMMETRY OF AOS IN SYMMETRY 2:   1 1 1 1 1 1 1 1 1 1   1 1 1 1 1 1 1 2 1 2   1 2 1 2 1 2 1 2 1 2   1 2 1 2 3
 EXTRA SYMMETRY OF AOS IN SYMMETRY 3:   1 1 1 1 1 1 1 1 1 1   1 1 1 1 1 1 1 2 1 2   1 2 1 2 1 2 1 2 1 2   1 2 1 2 3
 EXTRA SYMMETRY OF AOS IN SYMMETRY 4:   1 1 1 1 1 1 1 1 1 1   1 1 1 2 1 2 1 2 2 1
 EXTRA SYMMETRY OF AOS IN SYMMETRY 5:   1 1 1 1 1 1 1 1 1 1   1 1 1 1 1 1 1 1 1 1   2 1 2 1 2 1 2 1 2 1   2 1 2 1 2 1 2 1 2 1
                                        2 1 2 1 3 2 1 3 2 1   3 2 2 3 1
 EXTRA SYMMETRY OF AOS IN SYMMETRY 6:   1 1 1 1 1 1 1 1 1 1   1 1 1 1 1 1 1 2 1 2   1 2 1 2 1 2 1 2 1 2   1 2 1 2 3
 EXTRA SYMMETRY OF AOS IN SYMMETRY 7:   1 1 1 1 1 1 1 1 1 1   1 1 1 1 1 1 1 2 1 2   1 2 1 2 1 2 1 2 1 2   1 2 1 2 3
 EXTRA SYMMETRY OF AOS IN SYMMETRY 8:   1 1 1 1 1 1 1 1 1 1   1 1 1 2 1 2 1 2 2 1

 Eigenvalues of metric

         1 0.389E-05 0.561E-03 0.624E-03 0.604E-02 0.997E-02 0.192E-01 0.383E-01 0.469E-01
         2 0.585E-03 0.350E-01 0.516E-01 0.553E-01 0.132E+00 0.174E+00 0.195E+00 0.210E+00
         3 0.585E-03 0.350E-01 0.516E-01 0.553E-01 0.132E+00 0.174E+00 0.195E+00 0.210E+00
         4 0.575E-01 0.144E+00 0.198E+00 0.329E+00 0.519E+00 0.521E+00 0.566E+00 0.690E+00
         5 0.380E-05 0.430E-03 0.498E-03 0.816E-03 0.396E-02 0.815E-02 0.284E-01 0.378E-01
         6 0.576E-03 0.187E-01 0.374E-01 0.460E-01 0.585E-01 0.124E+00 0.166E+00 0.185E+00
         7 0.576E-03 0.187E-01 0.374E-01 0.460E-01 0.585E-01 0.124E+00 0.166E+00 0.185E+00
         8 0.546E-01 0.127E+00 0.156E+00 0.293E+00 0.395E+00 0.503E+00 0.515E+00 0.624E+00


 Contracted 2-electron integrals neglected if value below      1.0D-12
 AO integral compression algorithm  1   Integral accuracy      1.0D-12

     673.972 MB (compressed) written to integral file ( 42.8%)


 NUMBER OF SORTED TWO-ELECTRON INTEGRALS:  113590235.     BUFFER LENGTH:  32768
 NUMBER OF SEGMENTS:   8  SEGMENT LENGTH:   15999480      RECORD LENGTH: 524288

 Memory used in sort:      16.56 MW

 SORT1 READ   196559208. AND WROTE    83585326. INTEGRALS IN    244 RECORDS. CPU TIME:     3.91 SEC, REAL TIME:     4.75 SEC
 SORT2 READ    83585326. AND WROTE   113590235. INTEGRALS IN   2571 RECORDS. CPU TIME:     1.64 SEC, REAL TIME:     2.00 SEC

 FILE SIZES:   FILE 1:   705.9 MBYTE,  FILE 4:  1023.5 MBYTE,   TOTAL:   1729.4 MBYTE

 OPERATOR DM      FOR CENTER  0  COORDINATES:    0.000000    0.000000    0.000000


 **********************************************************************************************************************************
 DATASETS  * FILE   NREC   LENGTH (MB)   RECORD NAMES
              1      19      414.49       500      610      700      900      950      970     1000      129      960     1100   
                                          VAR    BASINP    GEOM    SYMINP    ZMAT    AOBASIS   BASIS     P2S    ABASIS      S 
                                         1400     1410     1200     1210     1080     1600     1650     1300     1700   
                                           T        V       H0       H01     AOSYM     SMH    MOLCAS    ERIS     OPER   

 PROGRAMS   *        TOTAL       INT
 CPU TIMES  *        32.83     32.71
 REAL TIME  *        35.35 SEC
 DISK USED  *         1.61 GB
 **********************************************************************************************************************************


 Program * Restricted Hartree-Fock

 Orbital guess generated from atomic densities. Full valence occupancy:    3   1   1   0   3   1   1   0


 Initial occupancy:   3   1   1   0   2   1   1   0

 NELEC=   18   SYM=1   MS2= 0   THRE=1.0D-08   THRD=3.2D-06   THRG=3.2D-06  HFMA2=F  DIIS_START=2   DIIS_MAX=10   DIIS_INCORE=F

 Level shifts:    0.00 (CLOSED)    0.00 (OPEN)    0.30 (GAP_MIN)

 ITER           ETOT              DE          GRAD        DDIFF     DIIS  NEXP   TIME(IT)  TIME(TOT)  DIAG
   1     -198.74602515    -198.74602515     0.00D+00     0.75D-01     0     0       0.16      0.33    start
   2     -198.77020260      -0.02417745     0.11D-01     0.48D-02     1     0       0.18      0.51    diag
   3     -198.77271995      -0.00251735     0.40D-02     0.16D-02     2     0       0.18      0.69    diag
   4     -198.77283003      -0.00011008     0.58D-03     0.37D-03     3     0       0.19      0.88    diag
   5     -198.77283736      -0.00000733     0.15D-03     0.85D-04     4     0       0.18      1.06    diag
   6     -198.77283767      -0.00000031     0.29D-04     0.17D-04     5     0       0.18      1.24    diag
   7     -198.77283768      -0.00000001     0.49D-05     0.23D-05     6     0       0.18      1.42    diag
   8     -198.77283768      -0.00000000     0.32D-06     0.17D-06     7     0       0.18      1.60    fixocc
   9     -198.77283768      -0.00000000     0.36D-07     0.20D-07     0     0       0.18      1.78    diag

 Final occupancy:   3   1   1   0   2   1   1   0

 !RHF STATE 1.1 Energy               -198.772837680464
  RHF One-electron energy            -338.640408900970
  RHF Two-electron energy             109.496928384291
  RHF Kinetic energy                  198.583884500148
  RHF Nuclear energy                   30.370642836215
  RHF Virial quotient                  -1.000951503093

 !RHF STATE 1.1 Dipole moment           0.00000000     0.00000000     0.00000000
 Dipole moment /Debye                   0.00000000     0.00000000     0.00000000

 Orbital energies:

           1.1          2.1          3.1          4.1          5.1
    -26.427480    -1.764572    -0.751755     0.468660     0.586481

           1.2          2.2          3.2
     -0.811190     0.410174     1.203528

           1.3          2.3          3.3
     -0.811190     0.410174     1.203528

           1.4          2.4
      1.132303     2.889058

           1.5          2.5          3.5          4.5
    -26.427233    -1.496999     0.080624     0.374381

           1.6          2.6          3.6
     -0.666427     0.502626     1.738988

           1.7          2.7          3.7
     -0.666427     0.502626     1.738988

           1.8          2.8
      1.425991     3.715708


 HOMO      1.7    -0.666427 =     -18.1344eV
 LUMO      3.5     0.080624 =       2.1939eV
 LUMO-HOMO         0.747052 =      20.3283eV

 Orbitals saved in record  2100.2


 **********************************************************************************************************************************
 DATASETS  * FILE   NREC   LENGTH (MB)   RECORD NAMES
              1      19      414.49       500      610      700      900      950      970     1000      129      960     1100   
                                          VAR    BASINP    GEOM    SYMINP    ZMAT    AOBASIS   BASIS     P2S    ABASIS      S 
                                         1400     1410     1200     1210     1080     1600     1650     1300     1700   
                                           T        V       H0       H01     AOSYM     SMH    MOLCAS    ERIS     OPER   

              2       4        0.62       700     1000      520     2100   
                                         GEOM     BASIS   MCVARS     RHF  

 PROGRAMS   *        TOTAL    HF-SCF       INT
 CPU TIMES  *        34.62      1.79     32.71
 REAL TIME  *        37.29 SEC
 DISK USED  *         1.61 GB
 **********************************************************************************************************************************


 PROGRAM * CCSD (Closed-shell coupled cluster)     Authors: C. Hampel, H.-J. Werner, 1991, M. Deegan, P.J. Knowles, 1992


 CORETYPE=SMALL

 Convergence thresholds:  THRVAR = 1.00D-08  THRDEN = 1.00D-06

 CCSD(T)     terms to be evaluated (factor= 1.000)


 Number of closed-shell orbitals:   9 (   3   1   1   0   2   1   1   0 )
 Number of external orbitals:     281 (  52  34  34  20  53  34  34  20 )

 Molecular orbitals read from record     2100.2  Type=RHF/CANONICAL  

 Number of N-1 electron functions:               9
 Number of N-2 electron functions:              45
 Number of singly external CSFs:               398
 Number of doubly external CSFs:            414213
 Total number of CSFs:                      414612

 Length of J-op  integral file:               0.00 MB
 Length of K-op  integral file:               0.87 MB
 Length of 3-ext integral record:             0.00 MB

 Memory could be reduced to 33.54 Mwords without degradation in triples

 Integral transformation finished. Total CPU:   0.98 sec, npass=  1  Memory used:   9.04 MW

 Reference energy:                   -198.77283768

 MP2 singlet pair energy:              -0.47901035
 MP2 triplet pair energy:              -0.23852000
 MP2 correlation energy:               -0.71753035
 MP2 total energy:                   -199.49036803

 SCS-MP2 correlation energy:           -0.72322486   (PS=  1.200000  PT=  0.333333)
 SCS-MP2 total energy:               -199.49606254

 ITER.      SQ.NORM     CORR.ENERGY   TOTAL ENERGY   ENERGY CHANGE        DEN1      VAR(S)    VAR(P)  DIIS     TIME  TIME/IT
   1      1.10830296    -0.71500753  -199.48784521     0.00252282     0.01983878  0.25D-02  0.25D-02  1  1    37.09     1.23
   2      1.11784903    -0.71466432  -199.48750200     0.00034321    -0.01367220  0.54D-04  0.41D-03  2  2    38.24     1.24
   3      1.12188297    -0.71479782  -199.48763550    -0.00013350    -0.00212496  0.20D-04  0.44D-04  3  3    39.42     1.25
   4      1.12424882    -0.71477071  -199.48760839     0.00002710    -0.00114955  0.28D-06  0.35D-05  4  4    40.62     1.26
   5      1.12466839    -0.71477212  -199.48760981    -0.00000141    -0.00013871  0.13D-06  0.50D-06  5  5    41.75     1.26
   6      1.12474306    -0.71477457  -199.48761225    -0.00000245     0.00000139  0.46D-08  0.11D-06  6  6    42.91     1.26
   7      1.12475148    -0.71477678  -199.48761446    -0.00000221    -0.00000122  0.92D-09  0.19D-07  6  2    44.11     1.27
   8      1.12475188    -0.71477594  -199.48761362     0.00000084     0.00000126  0.98D-09  0.12D-08  6  1    45.29     1.27
   9      1.12475339    -0.71477577  -199.48761345     0.00000016    -0.00000095  0.12D-09  0.97D-10  6  3    46.55     1.28

 Norm of t1 vector:      0.06210973      S-energy:     0.00000043      T1 diagnostic:  0.01035162
                                                                       D1 diagnostic:  0.02944220
                                                                       D2 diagnostic:  0.21416221 (external, symmetry=5)

 Doubles amplitudes (print threshold =  0.500E-01):

         I         J         SYM. A    SYM. B    A         B      T(IJ, AB)

         3         3         5         5         1         1     -0.14575925
         3         3         5         5         1         2      0.06311336
         3         3         5         5         2         1      0.06311336


 Total CPU time for triples:     21.89 sec


 RESULTS
 =======

  Reference energy                   -198.772837680465

  Correlated core orbitals:             1.1       1.5
  Orbital energies:                   -26.4275  -26.4272

  CCSD core-core energy                -0.081068560893
  CCSD core-valence energy             -0.047122597216
  CCSD valence correlation energy      -0.586584616314

  CCSD singlet pair energy             -0.503408453672
  CCSD triplet pair energy             -0.211367749223
  CCSD correlation energy              -0.714775774423

  Triples (T) contribution             -0.023243568628
  Total correlation energy             -0.738019343051

  CCSD total energy                  -199.487613454887
  CCSD[T] energy                     -199.511726155436
  CCSD-T energy                      -199.510519395602
 !CCSD(T) total energy               -199.510857023516

 Timing summary (sec):

 STEP                 CPU(USER)    SYS     CPU(TOT)    WALL
 Transformation          1.00      0.21      1.21      1.21
 CCSD iterations        45.57      0.89     46.46     11.55
 Triples                21.89      0.72     22.61     22.60

 Program statistics:

 Available memory in ccsd:              1073741497
 Min. memory needed in ccsd:               1181843
 Max. memory used in ccsd:                 1543656
 Max. memory used in cckext:               1285669 ( 9 integral passes)



 **********************************************************************************************************************************
 DATASETS  * FILE   NREC   LENGTH (MB)   RECORD NAMES
              1      20      517.31       500      610      700      900      950      970     1000      129      960     1100   
                                          VAR    BASINP    GEOM    SYMINP    ZMAT    AOBASIS   BASIS     P2S    ABASIS      S 
                                         1400     1410     1200     1210     1080     1600     1650     1300     1700     1380   
                                           T        V       H0       H01     AOSYM     SMH    MOLCAS    ERIS     OPER     JKOP   

              2       4        0.62       700     1000      520     2100   
                                         GEOM     BASIS   MCVARS     RHF  

 PROGRAMS   *        TOTAL   CCSD(T)    HF-SCF       INT
 CPU TIMES  *        68.18     33.55      1.79     32.71
 REAL TIME  *        73.02 SEC
 DISK USED  *         1.61 GB
 **********************************************************************************************************************************

 Dump information in style XML to xml output                                                                      

 Orbitals will not be exported.

 **********************************************************************************************************************************

 CCSD(T)/cc-pCV5Z energy=   -199.510857023516

         CCSD(T)          HF-SCF
   -199.51085702   -198.77283768
 **********************************************************************************************************************************
 Molpro calculation terminated
