
 Working directory              : /var/folders/2v/xbgp75_9785319ghcgb4zr4r0000gp/T//molpro.yGmqgaK7II/
 Global scratch directory       : /var/folders/2v/xbgp75_9785319ghcgb4zr4r0000gp/T//molpro.yGmqgaK7II/
 Wavefunction directory         : /Users/sacpjk/wfu/
 Main file repository           : /var/folders/2v/xbgp75_9785319ghcgb4zr4r0000gp/T//molpro.yGmqgaK7II/

 id        : peterk

 Nodes                        nprocs
 Cardiff-University-G34YLXT77Y    1
 GA implementation: MPI file
 GA implementation (serial work in mppx): MPI file

 Using customized tuning parameters: mindgm=1; mindgv=20; mindgc=4; mindgr=1; noblas=0; minvec=7
 default implementation of scratch files=df  


 Variables initialized (1032), CPU time= 0.00 sec
 
 symmetry,nosym
 
 
 geometry={
            9
     C         -0.71731126      0.00000000      0.73536428
     C         -1.09398697      0.00000000     -0.56903173
     O          0.00000000      0.00000000     -1.38121434
     C          1.09398697      0.00000000     -0.56903173
     C          0.71731126      0.00000000      0.73536428
     H         -1.37199245      0.00000000      1.59213938
     H         -2.04808591      0.00000000     -1.06786475
     H          2.04808591      0.00000000     -1.06786475
     H          1.37199245      0.00000000      1.59213938
 }
 basis=cc-pVDZ
 
 
 
 hf
 
 
 
 {put,xml;noorbitals,nobasis}
 Commands initialized (841), CPU time= 0.00 sec, 704 directives.
 Default parameters read. Elapsed time= 0.18 sec

 Checking input...
 Passed
1


                                         ***  PROGRAM SYSTEM MOLPRO  ***
                                       Copyright, TTI GmbH Stuttgart, 2015
                                    Version 2023.1 linked Tue Jun  6 09:54:11 2023


 **********************************************************************************************************************************
 LABEL *                                                                                                                                                                 
  64 bit serial version                                                                  DATE: 10-Jun-23          TIME: 14:39:47  
 **********************************************************************************************************************************

 SHA1:             8ebb0dd001088a5c915591db1a321413035db0b1
 **********************************************************************************************************************************

 Memory per process:       805 MW
 Total memory per node:   1074 MW
 Total GA space:           268 MW

 GA preallocation disabled
 GA check enabled

 Variable memory set to 805.3 MW

 ZSYMEL=NOSYM


 Geometry recognized as XYZ

 SETTING BASIS          =    CC-PVDZ


 Recomputing integrals since basis changed


 Using spherical harmonics

 Library entry C      S cc-pVDZ              selected for orbital group  1
 Library entry C      P cc-pVDZ              selected for orbital group  1
 Library entry C      D cc-pVDZ              selected for orbital group  1
 Library entry O      S cc-pVDZ              selected for orbital group  2
 Library entry O      P cc-pVDZ              selected for orbital group  2
 Library entry O      D cc-pVDZ              selected for orbital group  2
 Library entry H      S cc-pVDZ              selected for orbital group  4
 Library entry H      P cc-pVDZ              selected for orbital group  4


 PROGRAM * SEWARD (Integral evaluation for generally contracted gaussian basis sets)     Author: Roland Lindh, 1990

 Geometry written to block  1 of record 700


 Point group  C1  



 ATOMIC COORDINATES

 NR  ATOM    CHARGE       X              Y              Z

   1  C       6.00   -1.355521828    0.000000000    1.389637091
   2  C       6.00   -2.067335757    0.000000000   -1.075314126
   3  O       8.00    0.000000000    0.000000000   -2.610116822
   4  C       6.00    2.067335757    0.000000000   -1.075314126
   5  C       6.00    1.355521828    0.000000000    1.389637091
   6  H       1.00   -2.592689976    0.000000000    3.008707380
   7  H       1.00   -3.870321450    0.000000000   -2.017971916
   8  H       1.00    3.870321450    0.000000000   -2.017971916
   9  H       1.00    2.592689976    0.000000000    3.008707380

 Bond lengths in Bohr (Angstrom)

 1-2  2.565670199  1-5  2.711043655  1-6  2.037639229  2-3  2.574780855  2-7  2.034541992
     ( 1.357694200)     ( 1.434622520)     ( 1.078272244)     ( 1.362515351)     ( 1.076633257)

 3-4  2.574780855  4-5  2.565670199  4-8  2.034541992  5-9  2.037639229
     ( 1.362515351)     ( 1.357694200)     ( 1.076633257)     ( 1.078272244)

 Bond angles

  1-2-3  110.48307374   1-2-7  133.70933251   1-5-4  106.10734474   1-5-9  127.38426163

  2-1-5  106.10734474   2-1-6  126.50839363   2-3-4  106.81916303   3-2-7  115.80759375

  3-4-5  110.48307374   3-4-8  115.80759375   4-5-9  126.50839363   5-1-6  127.38426163

  5-4-8  133.70933251

 NUCLEAR CHARGE:                   36
 NUMBER OF PRIMITIVE AOS:         163
 NUMBER OF SYMMETRY AOS:          158
 NUMBER OF CONTRACTIONS:           90   (   90A   )
 NUMBER OF INNER CORE ORBITALS:     0   (    0A   )
 NUMBER OF OUTER CORE ORBITALS:     5   (    5A   )
 NUMBER OF VALENCE ORBITALS:       24   (   24A   )


 NUCLEAR REPULSION ENERGY  160.96170046

 EXTRA SYMMETRY OF AOS IN SYMMETRY 1:   1 1 1 1 2 1 1 2 1 1   2 1 1 2 1 1 1 1 2 1   1 2 1 1 2 1 1 2 1 1   1 1 2 1 1 2 1 1 2 1
                                        1 2 1 1 1 1 2 1 1 2   1 1 2 1 1 2 1 1 1 1   2 1 1 2 1 1 2 1 1 2   1 1 1 2 1 1 1 1 2 1
                                        1 1 1 2 1 1 1 1 2 1

 Eigenvalues of metric

         1 0.740E-03 0.338E-02 0.584E-02 0.114E-01 0.150E-01 0.182E-01 0.185E-01 0.205E-01


 Contracted 2-electron integrals neglected if value below      1.0D-11
 AO integral compression algorithm  1   Integral accuracy      1.0D-11

     23.069 MB (compressed) written to integral file ( 30.7%)


 NUMBER OF SORTED TWO-ELECTRON INTEGRALS:    8386560.     BUFFER LENGTH:  32768
 NUMBER OF SEGMENTS:   1  SEGMENT LENGTH:    8386560      RECORD LENGTH: 524288

 Memory used in sort:       8.94 MW

 SORT1 READ     9488277. AND WROTE     4318007. INTEGRALS IN     13 RECORDS. CPU TIME:     0.05 SEC, REAL TIME:     0.09 SEC
 SORT2 READ     4318007. AND WROTE     8386560. INTEGRALS IN     88 RECORDS. CPU TIME:     0.08 SEC, REAL TIME:     0.11 SEC

 FILE SIZES:   FILE 1:    53.5 MBYTE,  FILE 4:    54.6 MBYTE,   TOTAL:    108.1 MBYTE

 OPERATOR DM      FOR CENTER  0  COORDINATES:    0.000000    0.000000    0.000000


 **********************************************************************************************************************************
 DATASETS  * FILE   NREC   LENGTH (MB)   RECORD NAMES
              1      19       47.80       500      610      700      900      950      970     1000      129      960     1100   
                                          VAR    BASINP    GEOM    SYMINP    ZMAT    AOBASIS   BASIS     P2S    ABASIS      S 
                                         1400     1410     1200     1210     1080     1600     1650     1300     1700   
                                           T        V       H0       H01     AOSYM     SMH    MOLCAS    ERIS     OPER   

 PROGRAMS   *        TOTAL       INT
 CPU TIMES  *         0.68      0.60
 REAL TIME  *         1.93 SEC
 DISK USED  *       103.56 MB
 **********************************************************************************************************************************


 Program * Restricted Hartree-Fock

 Orbital guess generated from atomic densities. Full valence occupancy:   29

 Initial occupancy:  18

 NELEC=   36   SYM=1   MS2= 0   THRE=1.0D-08   THRD=3.2D-06   THRG=3.2D-06  HFMA2=F  DIIS_START=2   DIIS_MAX=10   DIIS_INCORE=F

 Level shifts:    0.00 (CLOSED)    0.00 (OPEN)    0.30 (GAP_MIN)

 ITER           ETOT              DE          GRAD        DDIFF     DIIS  NEXP   TIME(IT)  TIME(TOT)  DIAG
   1     -228.59447839    -228.59447839     0.00D+00     0.12D+00     0     0       0.03      0.06    start
   2     -228.63439677      -0.03991838     0.53D-02     0.11D-01     1     0       0.04      0.10    diag
   3     -228.64183684      -0.00744008     0.24D-02     0.45D-02     2     0       0.03      0.13    diag
   4     -228.64317554      -0.00133870     0.88D-03     0.17D-02     3     0       0.03      0.16    diag
   5     -228.64325379      -0.00007825     0.23D-03     0.39D-03     4     0       0.04      0.20    diag
   6     -228.64326887      -0.00001508     0.68D-04     0.15D-03     5     0       0.04      0.24    diag
   7     -228.64327316      -0.00000429     0.30D-04     0.94D-04     6     0       0.03      0.27    diag
   8     -228.64327346      -0.00000029     0.75D-05     0.26D-04     7     0       0.04      0.31    fixocc
   9     -228.64327347      -0.00000002     0.22D-05     0.61D-05     8     0       0.04      0.35    diag
  10     -228.64327347      -0.00000000     0.42D-06     0.12D-05     9     0       0.03      0.38    diag/orth
  11     -228.64327347      -0.00000000     0.11D-06     0.26D-06     0     0       0.03      0.41    diag

 Final occupancy:  18

 !RHF STATE 1.1 Energy               -228.643273474548
  RHF One-electron energy            -628.918661665855
  RHF Two-electron energy             239.313687730324
  RHF Kinetic energy                  228.431799043469
  RHF Nuclear energy                  160.961700460983
  RHF Virial quotient                  -1.000925766167

 !RHF STATE 1.1 Dipole moment          -0.00000000    -0.00000000     0.29585319
 Dipole moment /Debye                  -0.00000000    -0.00000000     0.75198380

 Orbital energies:

           1.1          2.1          3.1          4.1          5.1          6.1          7.1          8.1          9.1         10.1
    -20.621778   -11.289847   -11.289802   -11.233561   -11.232627    -1.457072    -1.082400    -1.003408    -0.804221    -0.778523

          11.1         12.1         13.1         14.1         15.1         16.1         17.1         18.1         19.1         20.1
     -0.736142    -0.628106    -0.606158    -0.573758    -0.560885    -0.535999    -0.393891    -0.317467     0.161513     0.202474


 HOMO     18.1    -0.317467 =      -8.6387eV
 LUMO     19.1     0.161513 =       4.3950eV
 LUMO-HOMO         0.478980 =      13.0337eV

 Orbitals saved in record  2100.2


 **********************************************************************************************************************************
 DATASETS  * FILE   NREC   LENGTH (MB)   RECORD NAMES
              1      19       47.80       500      610      700      900      950      970     1000      129      960     1100   
                                          VAR    BASINP    GEOM    SYMINP    ZMAT    AOBASIS   BASIS     P2S    ABASIS      S 
                                         1400     1410     1200     1210     1080     1600     1650     1300     1700   
                                           T        V       H0       H01     AOSYM     SMH    MOLCAS    ERIS     OPER   

              2       4        0.64       700     1000      520     2100   
                                         GEOM     BASIS   MCVARS     RHF  

 PROGRAMS   *        TOTAL    HF-SCF       INT
 CPU TIMES  *         1.11      0.43      0.60
 REAL TIME  *         3.05 SEC
 DISK USED  *       103.56 MB
 **********************************************************************************************************************************

 Dump information in style XML to xml output                                                                      

 Orbitals will not be exported.

 **********************************************************************************************************************************

 HF/cc-pVDZ energy=   -228.643273474548

          HF-SCF
   -228.64327347
 **********************************************************************************************************************************
 Molpro calculation terminated
