
 Working directory              : /var/folders/2v/xbgp75_9785319ghcgb4zr4r0000gp/T//molpro.R4wBJlRhOj/
 Global scratch directory       : /var/folders/2v/xbgp75_9785319ghcgb4zr4r0000gp/T//molpro.R4wBJlRhOj/
 Wavefunction directory         : /Users/sacpjk/wfu/
 Main file repository           : /var/folders/2v/xbgp75_9785319ghcgb4zr4r0000gp/T//molpro.R4wBJlRhOj/

 id        : peterk

 Nodes                        nprocs
 Cardiff-University-G34YLXT77Y    1
 GA implementation: MPI file
 GA implementation (serial work in mppx): MPI file

 Using customized tuning parameters: mindgm=1; mindgv=20; mindgc=4; mindgr=1; noblas=0; minvec=7
 default implementation of scratch files=df  


 Variables initialized (1032), CPU time= 0.01 sec
 
 symmetry,nosym
 
 
 geometry={
           13
     O         -1.32405101      0.96468670      0.88212237
     P         -1.55403603     -0.15340022     -0.27983881
     O         -2.69238420      0.07911544     -1.16403264
     O         -0.08728201      0.00667959     -0.98546916
     P          1.28122647     -0.22022769     -0.14435231
     O          1.16222968     -1.35332236      0.79483311
     O          2.40489281     -0.41354468     -1.23510036
     O          1.61457791      1.21802300      0.45657383
     O         -1.50367569     -1.56347668      0.42587351
     H         -2.16110179      1.23977049      1.29161539
     H          2.57955161      0.37780562     -1.77306138
     H          0.85844259      1.56329860      0.97096654
     H         -0.57839033     -1.74540781      0.75986991
 }
 basis=cc-pVTZ
 
 
 
 hf; ccsd(t)
 
 
 
 {put,xml;noorbitals,nobasis}
 Commands initialized (841), CPU time= 0.00 sec, 704 directives.
 Default parameters read. Elapsed time= 1.29 sec

 Checking input...
 Passed
1


                                         ***  PROGRAM SYSTEM MOLPRO  ***
                                       Copyright, TTI GmbH Stuttgart, 2015
                                    Version 2023.1 linked Tue Jun  6 09:54:11 2023


 **********************************************************************************************************************************
 LABEL *                                                                                                                                                                 
  64 bit serial version                                                                  DATE: 13-Jun-23          TIME: 12:13:44  
 **********************************************************************************************************************************

 SHA1:             8ebb0dd001088a5c915591db1a321413035db0b1
 **********************************************************************************************************************************

 Memory per process:       393 MW
 Total memory per node:    524 MW
 Total GA space:           131 MW

 GA preallocation disabled
 GA check enabled

 Variable memory set to 393.2 MW

 ZSYMEL=NOSYM


 Geometry recognized as XYZ

 SETTING BASIS          =    CC-PVTZ


 Recomputing integrals since basis changed


 Using spherical harmonics

 Library entry O      S cc-pVTZ              selected for orbital group  1
 Library entry O      P cc-pVTZ              selected for orbital group  1
 Library entry O      D cc-pVTZ              selected for orbital group  1
 Library entry O      F cc-pVTZ              selected for orbital group  1
 Library entry P      S cc-pVTZ              selected for orbital group  2
 Library entry P      P cc-pVTZ              selected for orbital group  2
 Library entry P      D cc-pVTZ              selected for orbital group  2
 Library entry P      F cc-pVTZ              selected for orbital group  2
 Library entry H      S cc-pVTZ              selected for orbital group  6
 Library entry H      P cc-pVTZ              selected for orbital group  6
 Library entry H      D cc-pVTZ              selected for orbital group  6


 PROGRAM * SEWARD (Integral evaluation for generally contracted gaussian basis sets)     Author: Roland Lindh, 1990

 Geometry written to block  1 of record 700


 Point group  C1  



 ATOMIC COORDINATES

 NR  ATOM    CHARGE       X              Y              Z

   1  O       8.00   -2.502093784    1.822993659    1.666969688
   2  P      15.00   -2.936702485   -0.289884403   -0.528818710
   3  O       8.00   -5.087868760    0.149506514   -2.199702890
   4  O       8.00   -0.164939095    0.012622596   -1.862266817
   5  P      15.00    2.421167132   -0.416170019   -0.272786331
   6  O       8.00    2.196295789   -2.557408619    1.502016893
   7  O       8.00    4.544588770   -0.781486185   -2.334001417
   8  O       8.00    3.051110057    2.301729883    0.862799494
   9  O       8.00   -2.841535234   -2.954542727    0.804784298
  10  H       1.00   -4.083890511    2.342826683    2.440799345
  11  H       1.00    4.874646067    0.713949150   -3.350600410
  12  H       1.00    1.622221389    2.954206205    1.834860837
  13  H       1.00   -1.092999317   -3.298342737    1.435946020

 Bond lengths in Bohr (Angstrom)

  1- 2  3.078087899   1-10  1.836060891   2- 3  2.759064092   2- 4  3.090674138   2- 5  5.365469920
       ( 1.628853969)       ( 0.971601582)       ( 1.460033841)       ( 1.635514320)       ( 2.839284407)

 2-9  2.981267813  4-5  3.065657635  5-6  2.790232310  5-7  2.981775140  5-8  3.012202373
     ( 1.577618986)     ( 1.622276157)     ( 1.476527352)     ( 1.577887452)     ( 1.593988851)

  7-11  1.838134428   8-12  1.847255107   9-13  1.890487086
       ( 0.972698850)       ( 0.977525305)       ( 1.000402683)

 Bond angles

  1-2-3  115.64410623   1-2-4   96.54384756   1-2-5   80.85818137   1-2-9  106.85281724

  2- 1-10  111.92279149   2- 4- 5  121.27491563   2- 5- 4   29.49353091   2- 5- 6   88.16259366

  2- 5- 7  132.92354366   2- 5- 8  101.86384355   2- 9-13  109.96311404   3- 2- 4  114.98329299

  3-2-5  144.21477155   3-2-9  115.98463756   4-2-5   29.23155345   4-2-9  104.58707137

  4-5-6  111.66284576   4-5-7  105.03820062   4-5-8  104.22184810   5-2-9   85.74132551

  5- 7-11  114.23696303   5- 8-12  110.81302270   6- 5- 7  113.77053118   6- 5- 8  118.00075993

  7-5-8  102.83964979

 NUCLEAR CHARGE:                   90
 NUMBER OF PRIMITIVE AOS:         525
 NUMBER OF SYMMETRY AOS:          476
 NUMBER OF CONTRACTIONS:          334   (  334A   )
 NUMBER OF INNER CORE ORBITALS:     2   (    2A   )
 NUMBER OF OUTER CORE ORBITALS:    15   (   15A   )
 NUMBER OF VALENCE ORBITALS:       40   (   40A   )


 NUCLEAR REPULSION ENERGY  786.75466744


 Eigenvalues of metric

         1 0.122E-02 0.150E-02 0.165E-02 0.176E-02 0.191E-02 0.204E-02 0.213E-02 0.226E-02


 Contracted 2-electron integrals neglected if value below      1.0D-11
 AO integral compression algorithm  1   Integral accuracy      1.0D-11

 GLOBAL ERROR fehler on processor   0                                         
