
 Working directory              : /var/folders/2v/xbgp75_9785319ghcgb4zr4r0000gp/T//molpro.W2WGcTmnnk/
 Global scratch directory       : /var/folders/2v/xbgp75_9785319ghcgb4zr4r0000gp/T//molpro.W2WGcTmnnk/
 Wavefunction directory         : /Users/sacpjk/wfu/
 Main file repository           : /var/folders/2v/xbgp75_9785319ghcgb4zr4r0000gp/T//molpro.W2WGcTmnnk/

 id        : peterk

 Nodes                        nprocs
 Cardiff-University-G34YLXT77Y    1
 GA implementation: MPI file
 GA implementation (serial work in mppx): MPI file

 Using customized tuning parameters: mindgm=1; mindgv=20; mindgc=4; mindgr=1; noblas=0; minvec=7
 default implementation of scratch files=df  


 Variables initialized (1032), CPU time= 0.00 sec
 
 symmetry,nosym
 
 
 geometry={
 6
  o          0.267447400499    1.036193915363    0.243832776514
  h          1.211679700327    1.012397578101    0.039697146295
  c         -0.248483078221   -0.251811456479   -0.021506995726
  h         -1.306362694160   -0.236789065856    0.227189318595
  h         -0.153027911222   -0.533194532485   -1.072957150430
  h          0.228746582831   -1.026796438644    0.583744904647
 }
 basis=aug-cc-pVTZ
 
 
 
 hf; mp4; counterpoise
 
 
 
 {put,xml;noorbitals,nobasis}
 Commands initialized (841), CPU time= 0.01 sec, 704 directives.
 Default parameters read. Elapsed time= 0.06 sec

 Checking input...
 Passed
1


                                         ***  PROGRAM SYSTEM MOLPRO  ***
                                       Copyright, TTI GmbH Stuttgart, 2015
                                    Version 2023.1 linked Tue Jun  6 09:54:11 2023


 **********************************************************************************************************************************
 LABEL *                                                                                                                                                                 
  64 bit serial version                                                                  DATE: 07-Jun-23          TIME: 08:50:01  
 **********************************************************************************************************************************

 SHA1:             8ebb0dd001088a5c915591db1a321413035db0b1
 **********************************************************************************************************************************

 Memory per process:       805 MW
 Total memory per node:   1074 MW
 Total GA space:           268 MW

 GA preallocation disabled
 GA check enabled

 Variable memory set to 805.3 MW

 ZSYMEL=NOSYM


 Geometry recognized as XYZ

 SETTING BASIS          =    AUG-CC-PVTZ


 Recomputing integrals since basis changed


 Using spherical harmonics

 Library entry O      S aug-cc-pVTZ          selected for orbital group  1
 Library entry O      P aug-cc-pVTZ          selected for orbital group  1
 Library entry O      D aug-cc-pVTZ          selected for orbital group  1
 Library entry O      F aug-cc-pVTZ          selected for orbital group  1
 Library entry H      S aug-cc-pVTZ          selected for orbital group  2
 Library entry H      P aug-cc-pVTZ          selected for orbital group  2
 Library entry H      D aug-cc-pVTZ          selected for orbital group  2
 Library entry C      S aug-cc-pVTZ          selected for orbital group  3
 Library entry C      P aug-cc-pVTZ          selected for orbital group  3
 Library entry C      D aug-cc-pVTZ          selected for orbital group  3
 Library entry C      F aug-cc-pVTZ          selected for orbital group  3


 PROGRAM * SEWARD (Integral evaluation for generally contracted gaussian basis sets)     Author: Roland Lindh, 1990

 Geometry written to block  1 of record 700


 Point group  C1  



 ATOMIC COORDINATES

 NR  ATOM    CHARGE       X              Y              Z

   1  O       8.00    0.505402340    1.958122712    0.460777168
   2  H       1.00    2.289742784    1.913154152    0.075016734
   3  C       6.00   -0.469564964   -0.475854688   -0.040642332
   4  H       1.00   -2.468667711   -0.447466484    0.429325591
   5  H       1.00   -0.289180842   -1.007591638   -2.027595158
   6  H       1.00    0.432268393   -1.940364055    1.103117996

 Bond lengths in Bohr (Angstrom)

 1-2  1.826117221  1-3  2.669499717  3-4  2.053798318  3-5  2.064767335  3-6  2.065497223
     ( 0.966339618)     ( 1.412638415)     ( 1.086823266)     ( 1.092627820)     ( 1.093014060)

 Bond angles

  1-3-4  107.45243548   1-3-5  112.56023933   1-3-6  112.51984285   2-1-3  107.14181272

  4-3-5  107.98697641   4-3-6  107.94343214   5-3-6  108.18798931

 NUCLEAR CHARGE:                   18
 NUMBER OF PRIMITIVE AOS:         242
 NUMBER OF SYMMETRY AOS:          216
 NUMBER OF CONTRACTIONS:          184   (  184A   )
 NUMBER OF INNER CORE ORBITALS:     0   (    0A   )
 NUMBER OF OUTER CORE ORBITALS:     2   (    2A   )
 NUMBER OF VALENCE ORBITALS:       12   (   12A   )


 NUCLEAR REPULSION ENERGY   40.41731286

 Eigenvalues of metric

         1 0.613E-04 0.727E-04 0.889E-04 0.203E-03 0.397E-03 0.482E-03 0.755E-03 0.769E-03


 Contracted 2-electron integrals neglected if value below      1.0D-11
 AO integral compression algorithm  1   Integral accuracy      1.0D-11

     722.207 MB (compressed) written to integral file ( 53.1%)


 NUMBER OF SORTED TWO-ELECTRON INTEGRALS:  144848710.     BUFFER LENGTH:  32768
 NUMBER OF SEGMENTS:  10  SEGMENT LENGTH:   15999503      RECORD LENGTH: 524288

 Memory used in sort:      16.56 MW

 SORT1 READ   170053774. AND WROTE   143630694. INTEGRALS IN    414 RECORDS. CPU TIME:     1.05 SEC, REAL TIME:     1.75 SEC
 SORT2 READ   143630694. AND WROTE   144848710. INTEGRALS IN   2755 RECORDS. CPU TIME:     0.81 SEC, REAL TIME:     1.33 SEC

 FILE SIZES:   FILE 1:   753.5 MBYTE,  FILE 4:  1736.5 MBYTE,   TOTAL:   2490.1 MBYTE

 OPERATOR DM      FOR CENTER  0  COORDINATES:    0.000000    0.000000    0.000000


 **********************************************************************************************************************************
 DATASETS  * FILE   NREC   LENGTH (MB)   RECORD NAMES
              1      19      631.34       500      610      700      900      950      970     1000      129      960     1100   
                                          VAR    BASINP    GEOM    SYMINP    ZMAT    AOBASIS   BASIS     P2S    ABASIS      S 
                                         1400     1410     1200     1210     1080     1600     1650     1300     1700   
                                           T        V       H0       H01     AOSYM     SMH    MOLCAS    ERIS     OPER   

 PROGRAMS   *        TOTAL       INT
 CPU TIMES  *         5.03      4.93
 REAL TIME  *         7.71 SEC
 DISK USED  *         2.32 GB
 **********************************************************************************************************************************


 Program * Restricted Hartree-Fock

 Orbital guess generated from atomic densities. Full valence occupancy:   14

 Initial occupancy:   9

 NELEC=   18   SYM=1   MS2= 0   THRE=1.0D-08   THRD=3.2D-06   THRG=3.2D-06  HFMA2=F  DIIS_START=2   DIIS_MAX=10   DIIS_INCORE=F

 Level shifts:    0.00 (CLOSED)    0.00 (OPEN)    0.30 (GAP_MIN)

 ITER           ETOT              DE          GRAD        DDIFF     DIIS  NEXP   TIME(IT)  TIME(TOT)  DIAG
   1     -115.05592869    -115.05592869     0.00D+00     0.46D-01     0     0       0.67      1.28    start
   2     -115.08404371      -0.02811502     0.49D-02     0.53D-02     1     0       0.65      1.93    diag
   3     -115.09124932      -0.00720560     0.27D-02     0.17D-02     2     0       0.68      2.61    diag
   4     -115.09178247      -0.00053316     0.53D-03     0.45D-03     3     0       0.68      3.29    diag
   5     -115.09181590      -0.00003343     0.11D-03     0.10D-03     4     0       0.65      3.94    diag
   6     -115.09181747      -0.00000157     0.20D-04     0.28D-04     5     0       0.65      4.59    diag
   7     -115.09181754      -0.00000007     0.42D-05     0.65D-05     6     0       0.69      5.28    diag
   8     -115.09181755      -0.00000000     0.11D-05     0.17D-05     7     0       0.67      5.95    fixocc
   9     -115.09181755      -0.00000000     0.33D-06     0.38D-06     0     0       0.68      6.63    diag

 Final occupancy:   9

 !RHF STATE 1.1 Energy               -115.091817547314
  RHF One-electron energy            -237.056253590373
  RHF Two-electron energy              81.547123182259
  RHF Kinetic energy                  114.923435951807
  RHF Nuclear energy                   40.417312860801
  RHF Virial quotient                  -1.001465163255

 !RHF STATE 1.1 Dipole moment           0.36713107    -0.55895044    -0.23792869
 Dipole moment /Debye                   0.93315409    -1.42071031    -0.60475441

 Orbital energies:

           1.1          2.1          3.1          4.1          5.1          6.1          7.1          8.1          9.1         10.1
    -20.561067   -11.270268    -1.360240    -0.925143    -0.692414    -0.620835    -0.595549    -0.504271    -0.451175     0.028412

          11.1
      0.042870


 HOMO      9.1    -0.451175 =     -12.2771eV
 LUMO     10.1     0.028412 =       0.7731eV
 LUMO-HOMO         0.479587 =      13.0502eV

 Orbitals saved in record  2100.2


 **********************************************************************************************************************************
 DATASETS  * FILE   NREC   LENGTH (MB)   RECORD NAMES
              1      19      631.34       500      610      700      900      950      970     1000      129      960     1100   
                                          VAR    BASINP    GEOM    SYMINP    ZMAT    AOBASIS   BASIS     P2S    ABASIS      S 
                                         1400     1410     1200     1210     1080     1600     1650     1300     1700   
                                           T        V       H0       H01     AOSYM     SMH    MOLCAS    ERIS     OPER   

              2       4        1.00       700     1000      520     2100   
                                         GEOM     BASIS   MCVARS     RHF  

 PROGRAMS   *        TOTAL    HF-SCF       INT
 CPU TIMES  *        11.66      6.63      4.93
 REAL TIME  *        16.72 SEC
 DISK USED  *         2.32 GB
 **********************************************************************************************************************************


 PROGRAM * MP4 (Closed-shell)     Authors: C. Hampel, H.-J. Werner, 1991, M. Deegan, P.J. Knowles, 1992


 Convergence thresholds:  THRVAR = 1.00D-08  THRDEN = 1.00D-06

 MP4(T)     terms to be evaluated (factor= 0.000)


 Number of core orbitals:           2 (   2 )
 Number of closed-shell orbitals:   7 (   7 )
 Number of external orbitals:     175 ( 175 )

 Molecular orbitals read from record     2100.2  Type=RHF/CANONICAL  

 Number of N-1 electron functions:               7
 Number of N-2 electron functions:              28
 Number of singly external CSFs:              1225
 Number of doubly external CSFs:            750925
 Total number of CSFs:                      752151

 Length of J-op  integral file:               0.00 MB
 Length of K-op  integral file:               2.39 MB

 Memory could be reduced to 53.22 Mwords without degradation in triples

 Integral transformation finished. Total CPU:   2.70 sec, npass=  1  Memory used:  27.38 MW

 Reference energy:                   -115.09181755

                        CORR.ENERGY   TOTAL ENERGY   ENERGY CHANGE
 MP2:                   -0.43701881  -115.52883636    -0.43701881

 SCS-MP2 correlation energy:           -0.43766146   (PS=  1.200000  PT=  0.333333)
 SCS-MP2 total energy:               -115.52947901

 MP3(D):                -0.45121311  -115.54303066    -0.01419430
 MP4(DQ):               -0.45187059  -115.54368813    -0.00065748
 MP4(SDQ):              -0.45514361  -115.54696116    -0.00327302

 Norm of t1 vector:      0.04463320      S-energy:    -0.00327302      T1 diagnostic:  0.00843488


 Total CPU time for triples:     25.28 sec


 RESULTS
 =======

  Reference energy                   -115.091817547314
  MP4(SDQ) singlet pair energy         -0.311500526398
  MP4(SDQ) triplet pair energy         -0.140370061054
  MP4(SDQ) correlation energy          -0.455143609399

  Triples contribution                 -0.016629495155
  Total correlation energy             -0.471773104554

  MP4(SDQ) total energy              -115.546961156712
 !MP4(SDTQ) total energy             -115.563590651868

 Timing summary (sec):

 STEP                 CPU(USER)    SYS     CPU(TOT)    WALL
 Transformation          2.74      0.25      2.99      3.57
 CCSD iterations        14.13      0.11     14.24      2.94
 Triples                25.28      0.93     26.21     32.97

 Program statistics:

 Available memory in ccsd:               805306163
 Min. memory needed in ccsd:               2385617
 Max. memory used in ccsd:                 3007350
 Max. memory used in cckext:               2163954 ( 1 integral passes)



 **********************************************************************************************************************************
 DATASETS  * FILE   NREC   LENGTH (MB)   RECORD NAMES
              1      20      786.65       500      610      700      900      950      970     1000      129      960     1100   
                                          VAR    BASINP    GEOM    SYMINP    ZMAT    AOBASIS   BASIS     P2S    ABASIS      S 
                                         1400     1410     1200     1210     1080     1600     1650     1300     1700     1380   
                                           T        V       H0       H01     AOSYM     SMH    MOLCAS    ERIS     OPER     JKOP   

              2       4        1.00       700     1000      520     2100   
                                         GEOM     BASIS   MCVARS     RHF  

 PROGRAMS   *        TOTAL       MP4    HF-SCF       INT
 CPU TIMES  *        42.06     30.40      6.63      4.93
 REAL TIME  *        56.24 SEC
 DISK USED  *         2.32 GB
 **********************************************************************************************************************************

 Counterpoise: absolute minimum monomer separation=    -1.000 Bragg radius scale factor=     1.400 Number of monomers= 1
 Counterpoise skipped because only a single monomer


 **********************************************************************************************************************************
 DATASETS  * FILE   NREC   LENGTH (MB)   RECORD NAMES
              1      20      786.65       500      610      700      900      950      970     1000      129      960     1100   
                                          VAR    BASINP    GEOM    SYMINP    ZMAT    AOBASIS   BASIS     P2S    ABASIS      S 
                                         1400     1410     1200     1210     1080     1600     1650     1300     1700     1380   
                                           T        V       H0       H01     AOSYM     SMH    MOLCAS    ERIS     OPER     JKOP   

              2       4        1.00       700     1000      520     2100   
                                         GEOM     BASIS   MCVARS     RHF  

 PROGRAMS   *        TOTALCOUNTERPOI       MP4    HF-SCF       INT
 CPU TIMES  *        42.06      0.00     30.40      6.63      4.93
 REAL TIME  *        56.24 SEC
 DISK USED  *         2.32 GB
 **********************************************************************************************************************************

 Dump information in style XML to xml output                                                                      

 Orbitals will not be exported.

 **********************************************************************************************************************************

 MP4/aug-cc-pVTZ energy=   -115.563590651868

             MP4          HF-SCF
   -115.56359065   -115.09181755
 **********************************************************************************************************************************
 Molpro calculation terminated
