
 Working directory              : /var/folders/2v/xbgp75_9785319ghcgb4zr4r0000gp/T//molpro.14GuDL0cXY/
 Global scratch directory       : /var/folders/2v/xbgp75_9785319ghcgb4zr4r0000gp/T//molpro.14GuDL0cXY/
 Wavefunction directory         : /Users/sacpjk/wfu/
 Main file repository           : /var/folders/2v/xbgp75_9785319ghcgb4zr4r0000gp/T//molpro.14GuDL0cXY/

 id        : peterk

 Nodes                        nprocs
 Cardiff-University-G34YLXT77Y    1
 GA implementation: MPI file
 GA implementation (serial work in mppx): MPI file

 Using customized tuning parameters: mindgm=1; mindgv=20; mindgc=4; mindgr=1; noblas=0; minvec=7
 default implementation of scratch files=df  


 Variables initialized (1032), CPU time= 0.00 sec
 
 symmetry,nosym
 
 
 geometry={
 6
  o          0.146475898569    1.088670963253    0.004629207803
  h          1.119019705605    1.114550739076   -0.000417603189
  c         -0.223274576650   -0.271075216825   -0.000142616232
  h         -1.309527485474   -0.320355174063    0.004108527553
  h          0.129990145525   -0.801811079629   -0.889500394290
  h          0.137316312424   -0.809980231706    0.881322878408
 }
 basis=aug-cc-pVDZ
 
 
 
 hf; mp3; counterpoise
 
 
 
 {put,xml;noorbitals,nobasis}
 Commands initialized (841), CPU time= 0.01 sec, 704 directives.
 Default parameters read. Elapsed time= 0.06 sec

 Checking input...
 Passed
1


                                         ***  PROGRAM SYSTEM MOLPRO  ***
                                       Copyright, TTI GmbH Stuttgart, 2015
                                    Version 2023.1 linked Tue Jun  6 09:54:11 2023


 **********************************************************************************************************************************
 LABEL *                                                                                                                                                                 
  64 bit serial version                                                                  DATE: 07-Jun-23          TIME: 08:02:02  
 **********************************************************************************************************************************

 SHA1:             8ebb0dd001088a5c915591db1a321413035db0b1
 **********************************************************************************************************************************

 Memory per process:       805 MW
 Total memory per node:   1074 MW
 Total GA space:           268 MW

 GA preallocation disabled
 GA check enabled

 Variable memory set to 805.3 MW

 ZSYMEL=NOSYM


 Geometry recognized as XYZ

 SETTING BASIS          =    AUG-CC-PVDZ


 Recomputing integrals since basis changed


 Using spherical harmonics

 Library entry O      S aug-cc-pVDZ          selected for orbital group  1
 Library entry O      P aug-cc-pVDZ          selected for orbital group  1
 Library entry O      D aug-cc-pVDZ          selected for orbital group  1
 Library entry H      S aug-cc-pVDZ          selected for orbital group  2
 Library entry H      P aug-cc-pVDZ          selected for orbital group  2
 Library entry C      S aug-cc-pVDZ          selected for orbital group  3
 Library entry C      P aug-cc-pVDZ          selected for orbital group  3
 Library entry C      D aug-cc-pVDZ          selected for orbital group  3


 PROGRAM * SEWARD (Integral evaluation for generally contracted gaussian basis sets)     Author: Roland Lindh, 1990

 Geometry written to block  1 of record 700


 Point group  C1  



 ATOMIC COORDINATES

 NR  ATOM    CHARGE       X              Y              Z

   1  O       8.00    0.276799332    2.057289960    0.008747935
   2  H       1.00    2.114640772    2.106195649   -0.000789156
   3  C       6.00   -0.421927800   -0.512257919   -0.000269506
   4  H       1.00   -2.474648300   -0.605383542    0.007763992
   5  H       1.00    0.245645774   -1.515203344   -1.680912133
   6  H       1.00    0.259490223   -1.530640804    1.665458868

 Bond lengths in Bohr (Angstrom)

 1-2  1.838516761  1-3  2.662870110  3-4  2.054847529  3-5  2.067876603  3-6  2.067869734
     ( 0.972901172)     ( 1.409130178)     ( 1.087378484)     ( 1.094273173)     ( 1.094269538)

 Bond angles

  1-3-4  107.80889362   1-3-5  112.70939658   1-3-6  112.70742447   2-1-3  106.73530620

  4-3-5  107.67954829   4-3-6  107.68099729   5-3-6  108.02575012

 NUCLEAR CHARGE:                   18
 NUMBER OF PRIMITIVE AOS:         118
 NUMBER OF SYMMETRY AOS:          114
 NUMBER OF CONTRACTIONS:           82   (   82A   )
 NUMBER OF INNER CORE ORBITALS:     0   (    0A   )
 NUMBER OF OUTER CORE ORBITALS:     2   (    2A   )
 NUMBER OF VALENCE ORBITALS:       12   (   12A   )


 NUCLEAR REPULSION ENERGY   40.42467095

 Eigenvalues of metric

         1 0.645E-03 0.784E-03 0.810E-03 0.110E-02 0.241E-02 0.436E-02 0.496E-02 0.516E-02


 Contracted 2-electron integrals neglected if value below      1.0D-11
 AO integral compression algorithm  1   Integral accuracy      1.0D-11

     32.244 MB (compressed) written to integral file ( 55.5%)


 NUMBER OF SORTED TWO-ELECTRON INTEGRALS:    5791906.     BUFFER LENGTH:  32768
 NUMBER OF SEGMENTS:   1  SEGMENT LENGTH:    5791906      RECORD LENGTH: 524288

 Memory used in sort:       6.35 MW

 SORT1 READ     7210272. AND WROTE     5721179. INTEGRALS IN     17 RECORDS. CPU TIME:     0.04 SEC, REAL TIME:     0.09 SEC
 SORT2 READ     5721179. AND WROTE     5791906. INTEGRALS IN    123 RECORDS. CPU TIME:     0.08 SEC, REAL TIME:     0.10 SEC

 FILE SIZES:   FILE 1:    62.6 MBYTE,  FILE 4:    71.4 MBYTE,   TOTAL:    133.9 MBYTE

 OPERATOR DM      FOR CENTER  0  COORDINATES:    0.000000    0.000000    0.000000


 **********************************************************************************************************************************
 DATASETS  * FILE   NREC   LENGTH (MB)   RECORD NAMES
              1      19       54.07       500      610      700      900      950      970     1000      129      960     1100   
                                          VAR    BASINP    GEOM    SYMINP    ZMAT    AOBASIS   BASIS     P2S    ABASIS      S 
                                         1400     1410     1200     1210     1080     1600     1650     1300     1700   
                                           T        V       H0       H01     AOSYM     SMH    MOLCAS    ERIS     OPER   

 PROGRAMS   *        TOTAL       INT
 CPU TIMES  *         0.48      0.38
 REAL TIME  *         1.10 SEC
 DISK USED  *       128.15 MB
 **********************************************************************************************************************************


 Program * Restricted Hartree-Fock

 Orbital guess generated from atomic densities. Full valence occupancy:   14

 Initial occupancy:   9

 NELEC=   18   SYM=1   MS2= 0   THRE=1.0D-08   THRD=3.2D-06   THRG=3.2D-06  HFMA2=F  DIIS_START=2   DIIS_MAX=10   DIIS_INCORE=F

 Level shifts:    0.00 (CLOSED)    0.00 (OPEN)    0.30 (GAP_MIN)

 ITER           ETOT              DE          GRAD        DDIFF     DIIS  NEXP   TIME(IT)  TIME(TOT)  DIAG
   1     -115.02631599    -115.02631599     0.00D+00     0.96D-01     0     0       0.03      0.05    start
   2     -115.05368058      -0.02736459     0.71D-02     0.12D-01     1     0       0.02      0.07    diag
   3     -115.06021962      -0.00653904     0.37D-02     0.38D-02     2     0       0.03      0.10    diag
   4     -115.06075264      -0.00053302     0.79D-03     0.12D-02     3     0       0.02      0.12    diag
   5     -115.06078212      -0.00002948     0.15D-03     0.29D-03     4     0       0.03      0.15    diag
   6     -115.06078346      -0.00000134     0.27D-04     0.64D-04     5     0       0.02      0.17    diag
   7     -115.06078352      -0.00000006     0.56D-05     0.14D-04     6     0       0.03      0.20    diag
   8     -115.06078352      -0.00000000     0.13D-05     0.31D-05     7     0       0.02      0.22    fixocc
   9     -115.06078352      -0.00000000     0.31D-06     0.51D-06     0     0       0.03      0.25    diag

 Final occupancy:   9

 !RHF STATE 1.1 Energy               -115.060783521377
  RHF One-electron energy            -236.967206490795
  RHF Two-electron energy              81.481752020925
  RHF Kinetic energy                  114.881451301436
  RHF Nuclear energy                   40.424670948493
  RHF Virial quotient                  -1.001561019798

 !RHF STATE 1.1 Dipole moment           0.44497269    -0.55558525    -0.00517265
 Dipole moment /Debye                   1.13100776    -1.41215685    -0.01314758

 Orbital energies:

           1.1          2.1          3.1          4.1          5.1          6.1          7.1          8.1          9.1         10.1
    -20.571434   -11.278182    -1.364042    -0.925539    -0.692727    -0.620372    -0.596776    -0.503315    -0.449480     0.034354

          11.1
      0.051467


 HOMO      9.1    -0.449480 =     -12.2310eV
 LUMO     10.1     0.034354 =       0.9348eV
 LUMO-HOMO         0.483834 =      13.1658eV

 Orbitals saved in record  2100.2


 **********************************************************************************************************************************
 DATASETS  * FILE   NREC   LENGTH (MB)   RECORD NAMES
              1      19       54.07       500      610      700      900      950      970     1000      129      960     1100   
                                          VAR    BASINP    GEOM    SYMINP    ZMAT    AOBASIS   BASIS     P2S    ABASIS      S 
                                         1400     1410     1200     1210     1080     1600     1650     1300     1700   
                                           T        V       H0       H01     AOSYM     SMH    MOLCAS    ERIS     OPER   

              2       4        0.57       700     1000      520     2100   
                                         GEOM     BASIS   MCVARS     RHF  

 PROGRAMS   *        TOTAL    HF-SCF       INT
 CPU TIMES  *         0.73      0.25      0.38
 REAL TIME  *         1.46 SEC
 DISK USED  *       128.15 MB
 **********************************************************************************************************************************


 PROGRAM * MP3 (Closed-shell)     Authors: C. Hampel, H.-J. Werner, 1991, M. Deegan, P.J. Knowles, 1992


 Convergence thresholds:  THRVAR = 1.00D-08  THRDEN = 1.00D-06

 Number of core orbitals:           2 (   2 )
 Number of closed-shell orbitals:   7 (   7 )
 Number of external orbitals:      73 (  73 )

 Molecular orbitals read from record     2100.2  Type=RHF/CANONICAL  

 Number of N-1 electron functions:               7
 Number of N-2 electron functions:              28
 Number of singly external CSFs:               511
 Number of doubly external CSFs:            130816
 Total number of CSFs:                      131328

 Length of J-op  integral file:               0.00 MB
 Length of K-op  integral file:               0.52 MB

 Integral transformation finished. Total CPU:   0.06 sec, npass=  1  Memory used:   0.49 MW

 Reference energy:                   -115.06078352

                        CORR.ENERGY   TOTAL ENERGY   ENERGY CHANGE
 MP2:                   -0.36037040  -115.42115392    -0.36037040

 SCS-MP2 correlation energy:           -0.35782362   (PS=  1.200000  PT=  0.333333)
 SCS-MP2 total energy:               -115.41860714

 MP3(D):                -0.37826336  -115.43904688    -0.01789296



 RESULTS
 =======

  Reference energy                   -115.060783521377
  MP3 singlet pair energy              -0.257509450178
  MP3 triplet pair energy              -0.120753909583
  MP3 correlation energy               -0.378263359762

 !MP3 total energy                   -115.439046881139

 Timing summary (sec):

 STEP                 CPU(USER)    SYS     CPU(TOT)    WALL
 Transformation          0.06      0.01      0.07      0.15
 CCSD iterations         0.96      0.01      0.97      0.15

 Program statistics:

 Available memory in ccsd:               805306163
 Min. memory needed in ccsd:                438437
 Max. memory used in ccsd:                  541092
 Max. memory used in cckext:                448927 ( 1 integral passes)



 **********************************************************************************************************************************
 DATASETS  * FILE   NREC   LENGTH (MB)   RECORD NAMES
              1      20       56.34       500      610      700      900      950      970     1000      129      960     1100   
                                          VAR    BASINP    GEOM    SYMINP    ZMAT    AOBASIS   BASIS     P2S    ABASIS      S 
                                         1400     1410     1200     1210     1080     1600     1650     1300     1700     1380   
                                           T        V       H0       H01     AOSYM     SMH    MOLCAS    ERIS     OPER     JKOP   

              2       4        0.57       700     1000      520     2100   
                                         GEOM     BASIS   MCVARS     RHF  

 PROGRAMS   *        TOTAL       MP3    HF-SCF       INT
 CPU TIMES  *         0.93      0.20      0.25      0.38
 REAL TIME  *         1.80 SEC
 DISK USED  *       128.15 MB
 **********************************************************************************************************************************

 Counterpoise: absolute minimum monomer separation=    -1.000 Bragg radius scale factor=     1.400 Number of monomers= 1
 Counterpoise skipped because only a single monomer


 **********************************************************************************************************************************
 DATASETS  * FILE   NREC   LENGTH (MB)   RECORD NAMES
              1      20       56.34       500      610      700      900      950      970     1000      129      960     1100   
                                          VAR    BASINP    GEOM    SYMINP    ZMAT    AOBASIS   BASIS     P2S    ABASIS      S 
                                         1400     1410     1200     1210     1080     1600     1650     1300     1700     1380   
                                           T        V       H0       H01     AOSYM     SMH    MOLCAS    ERIS     OPER     JKOP   

              2       4        0.57       700     1000      520     2100   
                                         GEOM     BASIS   MCVARS     RHF  

 PROGRAMS   *        TOTALCOUNTERPOI       MP3    HF-SCF       INT
 CPU TIMES  *         0.93      0.00      0.20      0.25      0.38
 REAL TIME  *         1.80 SEC
 DISK USED  *       128.15 MB
 **********************************************************************************************************************************

 Dump information in style XML to xml output                                                                      

 Orbitals will not be exported.

 **********************************************************************************************************************************

 MP3/aug-cc-pVDZ energy=   -115.439046881139

             MP3          HF-SCF
   -115.43904688   -115.06078352
 **********************************************************************************************************************************
 Molpro calculation terminated
