
 Working directory              : /tmp/peterk/molpro.vFrNQr3nLk/
 Global scratch directory       : /tmp/peterk/molpro.vFrNQr3nLk/
 Wavefunction directory         : /home/peterk/wfu/
 Main file repository           : /tmp/peterk/molpro.vFrNQr3nLk/

 id        : peterk

 Nodes     nprocs
 marat        1
 GA implementation: MPI file
 GA implementation (serial work in mppx): MPI file

 Using customized tuning parameters: mindgm=1; mindgv=20; mindgc=4; mindgr=1; noblas=0; minvec=7
 default implementation of scratch files=df  


 Variables initialized (1032), CPU time= 0.00 sec
 
 core,small
 angstrom
 
 geometry={
 H;N,H,1.05238269;O,N,1.20847128,H,108.08480747
 }
 basis=cc-pCV5Z
 
 
 
 hf; ccsd(t)
 
 
 
 {put,xml;noorbitals,nobasis}
 Commands initialized (841), CPU time= 0.01 sec, 708 directives.
 Default parameters read. Elapsed time= 0.05 sec

 Checking input...
 Passed
1


                                         ***  PROGRAM SYSTEM MOLPRO  ***
                                       Copyright, TTI GmbH Stuttgart, 2015
                                    Version 2023.1 linked Sat Jun 10 08:01:27 2023


 **********************************************************************************************************************************
 LABEL *                                                                                                                                                                 
  (16 PROC) 64 bit serial version                                                        DATE: 12-Jun-23          TIME: 12:49:34  
 **********************************************************************************************************************************

 SHA1:             8376d659ba1296ca7ee514c57770fe2c96af278c
 **********************************************************************************************************************************

 Memory per process:      1074 MW
 Total memory per node:   1074 MW

 GA preallocation disabled
 GA check disabled

 Variable memory set to 1073.7 MW

 ZUNIT=ANG

 SETTING BASIS          =    CC-PCV5Z


 Recomputing integrals since basis changed


 Using spherical harmonics

 Library entry H      S cc-pV5Z              selected for orbital group  1
 Library entry H      P cc-pV5Z              selected for orbital group  1
 Library entry H      D cc-pV5Z              selected for orbital group  1
 Library entry H      F cc-pV5Z              selected for orbital group  1
 Library entry H      G cc-pV5Z              selected for orbital group  1
 Library entry N      S cc-pCV5Z             selected for orbital group  2
 Library entry N      P cc-pCV5Z             selected for orbital group  2
 Library entry N      D cc-pCV5Z             selected for orbital group  2
 Library entry N      F cc-pCV5Z             selected for orbital group  2
 Library entry N      G cc-pCV5Z             selected for orbital group  2
 Library entry N      H cc-pCV5Z             selected for orbital group  2
 Library entry O      S cc-pCV5Z             selected for orbital group  3
 Library entry O      P cc-pCV5Z             selected for orbital group  3
 Library entry O      D cc-pCV5Z             selected for orbital group  3
 Library entry O      F cc-pCV5Z             selected for orbital group  3
 Library entry O      G cc-pCV5Z             selected for orbital group  3
 Library entry O      H cc-pCV5Z             selected for orbital group  3


 PROGRAM * SEWARD (Integral evaluation for generally contracted gaussian basis sets)     Author: Roland Lindh, 1990

 Geometry written to block  1 of record 700

 Orientation using atomic masses  
 Molecule type: Asymmetric top
 Symmetry elements: X
 Rotational constants:      39.4752865     42.4383239    565.3877201 GHz  (calculated with average atomic masses)

 Point group  Cs  



 ATOMIC COORDINATES

 NR  ATOM    CHARGE       X              Y              Z

   1  H       1.00    0.000000000    1.668937369   -1.926645665
   2  N       7.00    0.000000000   -0.161179941   -1.148405194
   3  O       8.00    0.000000000    0.035964495    1.126749145

 Bond lengths in Bohr (Angstrom)

 1-2  1.988715062  2-3  2.283679749
     ( 1.052382690)     ( 1.208471280)

 Bond angles

  1-2-3  108.08480747

 NUCLEAR CHARGE:                   16
 NUMBER OF PRIMITIVE AOS:         497
 NUMBER OF SYMMETRY AOS:          382
 NUMBER OF CONTRACTIONS:          345   (  215A'  +  130A"  )
 NUMBER OF INNER CORE ORBITALS:     0   (    0A'  +    0A"  )
 NUMBER OF OUTER CORE ORBITALS:     2   (    2A'  +    0A"  )
 NUMBER OF VALENCE ORBITALS:        9   (    7A'  +    2A"  )


 NUCLEAR REPULSION ENERGY   30.35206907


 Eigenvalues of metric

         1 0.289E-05 0.341E-05 0.538E-04 0.769E-04 0.250E-03 0.289E-03 0.345E-03 0.436E-03
         2 0.428E-03 0.504E-03 0.168E-02 0.201E-02 0.871E-02 0.137E-01 0.303E-01 0.325E-01


 Contracted 2-electron integrals neglected if value below      1.0D-12
 AO integral compression algorithm  1   Integral accuracy      1.0D-12

     3310.879 MB (compressed) written to integral file ( 38.1%)


 NUMBER OF SORTED TWO-ELECTRON INTEGRALS:  899007580.     BUFFER LENGTH:  32768
 NUMBER OF SEGMENTS:  29  SEGMENT LENGTH:   31996000      RECORD LENGTH: 524288

 Memory used in sort:      32.55 MW

 SORT1 READ  1087137109. AND WROTE   684806625. INTEGRALS IN   1971 RECORDS. CPU TIME:    32.57 SEC, REAL TIME:   611.92 SEC
 SORT2 READ   684806625. AND WROTE   899007580. INTEGRALS IN  12630 RECORDS. CPU TIME:    17.55 SEC, REAL TIME:   212.85 SEC

 FILE SIZES:   FILE 1:  3344.0 MBYTE,  FILE 4:  8267.0 MBYTE,   TOTAL:  11611.1 MBYTE

 OPERATOR DM      FOR CENTER  0  COORDINATES:    0.000000    0.000000    0.000000


 **********************************************************************************************************************************
 DATASETS  * FILE   NREC   LENGTH (MB)   RECORD NAMES
              1      19     2686.34       500      610      700      900      950      970     1000      129      960     1100   
                                          VAR    BASINP    GEOM    SYMINP    ZMAT    AOBASIS   BASIS     P2S    ABASIS      S 
                                         1400     1410     1200     1210     1080     1600     1650     1300     1700   
                                           T        V       H0       H01     AOSYM     SMH    MOLCAS    ERIS     OPER   

 PROGRAMS   *        TOTAL       INT
 CPU TIMES  *       160.61    160.49
 REAL TIME  *       943.69 SEC
 DISK USED  *        10.81 GB
 **********************************************************************************************************************************


 Program * Restricted Hartree-Fock

 Orbital guess generated from atomic densities. Full valence occupancy:    9   2

 Initial occupancy:   7   1

 NELEC=   16   SYM=1   MS2= 0   THRE=1.0D-08   THRD=3.2D-06   THRG=3.2D-06  HFMA2=F  DIIS_START=2   DIIS_MAX=10   DIIS_INCORE=F

 Level shifts:    0.00 (CLOSED)    0.00 (OPEN)    0.30 (GAP_MIN)

 ITER           ETOT              DE          GRAD        DDIFF     DIIS  NEXP   TIME(IT)  TIME(TOT)  DIAG
   1     -129.79833849    -129.79833849     0.00D+00     0.30D-01     0     0       3.92      7.59    start
   2     -129.82545996      -0.02712147     0.63D-02     0.40D-02     1     0       3.95     11.54    diag
   3     -129.84850410      -0.02304414     0.48D-02     0.21D-02     2     0       3.93     15.47    diag
   4     -129.84930894      -0.00080484     0.75D-03     0.39D-03     3     0       4.00     19.47    diag
   5     -129.84943368      -0.00012474     0.24D-03     0.17D-03     4     0       4.04     23.51    diag
   6     -129.84945370      -0.00002002     0.71D-04     0.67D-04     5     0       4.06     27.57    diag
   7     -129.84945955      -0.00000585     0.35D-04     0.43D-04     6     0       3.97     31.54    diag
   8     -129.84946023      -0.00000068     0.12D-04     0.16D-04     7     0       3.95     35.49    fixocc
   9     -129.84946026      -0.00000003     0.24D-05     0.32D-05     8     0       3.98     39.47    diag
  10     -129.84946026      -0.00000000     0.54D-06     0.79D-06     9     0       4.04     43.51    diag/orth
  11     -129.84946026      -0.00000000     0.11D-06     0.13D-06     0     0       3.94     47.45    diag

 Final occupancy:   7   1

 !RHF STATE 1.1 Energy               -129.849460261807
  RHF One-electron energy            -237.754601443562
  RHF Two-electron energy              77.553072109685
  RHF Kinetic energy                  129.630415879811
  RHF Nuclear energy                   30.352069072069
  RHF Virial quotient                  -1.001689760698

 !RHF STATE 1.1 Dipole moment           0.00000000     0.57514961    -0.53212934
 Dipole moment /Debye                   0.00000000     1.46188450    -1.35253787

 Orbital energies:

           1.1          2.1          3.1          4.1          5.1          6.1          7.1          8.1          9.1
    -20.652330   -15.711669    -1.528436    -0.993912    -0.746573    -0.665494    -0.430445     0.095173     0.204018

           1.2          2.2          3.2
     -0.595370     0.074161     0.294343


 HOMO      7.1    -0.430445 =     -11.7130eV
 LUMO      2.2     0.074161 =       2.0180eV
 LUMO-HOMO         0.504606 =      13.7310eV

 Orbitals saved in record  2100.2


 **********************************************************************************************************************************
 DATASETS  * FILE   NREC   LENGTH (MB)   RECORD NAMES
              1      19     2686.34       500      610      700      900      950      970     1000      129      960     1100   
                                          VAR    BASINP    GEOM    SYMINP    ZMAT    AOBASIS   BASIS     P2S    ABASIS      S 
                                         1400     1410     1200     1210     1080     1600     1650     1300     1700   
                                           T        V       H0       H01     AOSYM     SMH    MOLCAS    ERIS     OPER   

              2       4        1.41       700     1000      520     2100   
                                         GEOM     BASIS   MCVARS     RHF  

 PROGRAMS   *        TOTAL    HF-SCF       INT
 CPU TIMES  *       208.06     47.45    160.49
 REAL TIME  *       996.11 SEC
 DISK USED  *        10.81 GB
 **********************************************************************************************************************************


 PROGRAM * CCSD (Closed-shell coupled cluster)     Authors: C. Hampel, H.-J. Werner, 1991, M. Deegan, P.J. Knowles, 1992


 CORETYPE=SMALL

 Convergence thresholds:  THRVAR = 1.00D-08  THRDEN = 1.00D-06

 CCSD(T)     terms to be evaluated (factor= 1.000)


 Number of closed-shell orbitals:   8 (   7   1 )
 Number of external orbitals:     337 ( 208 129 )

 Molecular orbitals read from record     2100.2  Type=RHF/CANONICAL  

 Number of N-1 electron functions:               8
 Number of N-2 electron functions:              36
 Number of singly external CSFs:              1585
 Number of doubly external CSFs:           1874621
 Total number of CSFs:                     1876207

 Length of J-op  integral file:               0.00 MB
 Length of K-op  integral file:               4.40 MB
 Length of 3-ext integral record:             0.00 MB

 Memory could be reduced to 208.05 Mwords without degradation in triples

 Integral transformation finished. Total CPU:  14.26 sec, npass=  1  Memory used:  55.41 MW

 Reference energy:                   -129.84946026

 MP2 singlet pair energy:              -0.40647464
 MP2 triplet pair energy:              -0.19192149
 MP2 correlation energy:               -0.59839613
 MP2 total energy:                   -130.44785639

 SCS-MP2 correlation energy:           -0.60718738   (PS=  1.200000  PT=  0.333333)
 SCS-MP2 total energy:               -130.45664765

 ITER.      SQ.NORM     CORR.ENERGY   TOTAL ENERGY   ENERGY CHANGE        DEN1      VAR(S)    VAR(P)  DIIS     TIME  TIME/IT
   1      1.12147148    -0.59812634  -130.44758660     0.00026979     0.01801318  0.33D-02  0.32D-02  1  1   234.26    11.77
   2      1.13232176    -0.59774377  -130.44720403     0.00038257    -0.01388598  0.82D-04  0.49D-03  2  2   245.73    12.00
   3      1.13721879    -0.59805892  -130.44751918    -0.00031515    -0.00209393  0.55D-04  0.69D-04  3  3   256.82    11.92
   4      1.14053554    -0.59803365  -130.44749391     0.00002527    -0.00136871  0.45D-05  0.99D-05  4  4   268.04    11.87
   5      1.14160919    -0.59805402  -130.44751429    -0.00002037    -0.00027738  0.14D-05  0.18D-05  5  5   279.26    11.85
   6      1.14200255    -0.59804935  -130.44750961     0.00000468    -0.00003736  0.14D-06  0.39D-06  6  6   290.24    11.80
   7      1.14208188    -0.59804921  -130.44750947     0.00000014     0.00000156  0.19D-07  0.87D-07  6  1   301.38    11.78
   8      1.14211135    -0.59804771  -130.44750797     0.00000150    -0.00000471  0.27D-08  0.13D-07  6  2   312.43    11.76
   9      1.14211571    -0.59804762  -130.44750788     0.00000009     0.00000130  0.14D-08  0.15D-08  6  3   323.58    11.76
  10      1.14211777    -0.59804789  -130.44750815    -0.00000027    -0.00000086  0.35D-09  0.21D-09  6  4   334.74    11.76

 Norm of t1 vector:      0.07626369      S-energy:     0.00000058      T1 diagnostic:  0.01348164
                                                                       D1 diagnostic:  0.04362864
                                                                       D2 diagnostic:  0.19965519 (external, symmetry=2)

 Doubles amplitudes (print threshold =  0.500E-01):

         I         J         SYM. A    SYM. B    A         B      T(IJ, AB)

         8         8         2         2         1         1     -0.12968659


 Total CPU time for triples:    162.50 sec


 RESULTS
 =======

  Reference energy                   -129.849460261808

  Correlated core orbitals:             1.1       2.1
  Orbital energies:                   -20.6523  -15.7117

  CCSD core-core energy                -0.082397493740
  CCSD core-valence energy             -0.037045815824
  CCSD valence correlation energy      -0.478604576431

  CCSD singlet pair energy             -0.430953565993
  CCSD triplet pair energy             -0.167094903056
  CCSD correlation energy              -0.598047885994

  Triples (T) contribution             -0.023965771550
  Total correlation energy             -0.622013657545

  CCSD total energy                  -130.447508147802
  CCSD[T] energy                     -130.472630438351
  CCSD-T energy                      -130.471068051237
 !CCSD(T) total energy               -130.471473919352

 Timing summary (sec):

 STEP                 CPU(USER)    SYS     CPU(TOT)    WALL
 Transformation         14.36      1.51     15.87     16.57
 CCSD iterations       320.46      5.50    325.96    117.74
 Triples               162.50      2.58    165.08    165.09

 Program statistics:

 Available memory in ccsd:              1073741561
 Min. memory needed in ccsd:               5531381
 Max. memory used in ccsd:                 7148084
 Max. memory used in cckext:              11005194 (10 integral passes)



 **********************************************************************************************************************************
 DATASETS  * FILE   NREC   LENGTH (MB)   RECORD NAMES
              1      20     3304.48       500      610      700      900      950      970     1000      129      960     1100   
                                          VAR    BASINP    GEOM    SYMINP    ZMAT    AOBASIS   BASIS     P2S    ABASIS      S 
                                         1400     1410     1200     1210     1080     1600     1650     1300     1700     1380   
                                           T        V       H0       H01     AOSYM     SMH    MOLCAS    ERIS     OPER     JKOP   

              2       4        1.41       700     1000      520     2100   
                                         GEOM     BASIS   MCVARS     RHF  

 PROGRAMS   *        TOTAL   CCSD(T)    HF-SCF       INT
 CPU TIMES  *       496.93    288.87     47.45    160.49
 REAL TIME  *      1295.66 SEC
 DISK USED  *        10.81 GB
 **********************************************************************************************************************************

 Dump information in style XML to xml output                                                                      

 Orbitals will not be exported.

 **********************************************************************************************************************************

 CCSD(T)/cc-pCV5Z energy=   -130.471473919352

         CCSD(T)          HF-SCF
   -130.47147392   -129.84946026
 **********************************************************************************************************************************
 Molpro calculation terminated
