
 Working directory              : /var/folders/2v/xbgp75_9785319ghcgb4zr4r0000gp/T//molpro.42Ev3P5pzo/
 Global scratch directory       : /var/folders/2v/xbgp75_9785319ghcgb4zr4r0000gp/T//molpro.42Ev3P5pzo/
 Wavefunction directory         : /Users/sacpjk/wfu/
 Main file repository           : /var/folders/2v/xbgp75_9785319ghcgb4zr4r0000gp/T//molpro.42Ev3P5pzo/

 id        : peterk

 Nodes                        nprocs
 Cardiff-University-G34YLXT77Y    1
 GA implementation: MPI file
 GA implementation (serial work in mppx): MPI file

 Using customized tuning parameters: mindgm=1; mindgv=20; mindgc=4; mindgr=1; noblas=0; minvec=7
 default implementation of scratch files=df  


 Variables initialized (1032), CPU time= 0.00 sec
 
 symmetry,nosym
 
 
 geometry={
           13
     C         -1.23057941      0.50086096      0.10676486
     C         -1.21313991     -0.87689747      0.07966200
     N          1.04747730     -1.33943784     -0.09695831
     N          1.41930914     -0.13949867      0.31481262
     C          0.94113040      1.02188963     -0.16660748
     H         -1.55687399      1.05985239     -0.76315460
     H         -1.33110873      1.02587973      1.04980549
     H         -1.46424394     -1.41746083     -0.82546542
     H         -1.24165957     -1.45884030      0.99008609
     H          0.85567977     -1.25245686     -1.09541302
     H          1.69857786     -0.13681876      1.28956068
     H          1.24615647      1.92097778      0.35709063
     H          0.82927461      1.09195023     -1.24018353
 }
 basis=cc-pVTZ
 
 
 
 hf; ccsd
 
 
 
 {put,xml;noorbitals,nobasis}
 Commands initialized (841), CPU time= 0.01 sec, 704 directives.
 Default parameters read. Elapsed time= 0.05 sec

 Checking input...
 Passed
1


                                         ***  PROGRAM SYSTEM MOLPRO  ***
                                       Copyright, TTI GmbH Stuttgart, 2015
                                    Version 2023.1 linked Tue Jun  6 09:54:11 2023


 **********************************************************************************************************************************
 LABEL *                                                                                                                                                                 
  64 bit serial version                                                                  DATE: 11-Jun-23          TIME: 07:27:58  
 **********************************************************************************************************************************

 SHA1:             8ebb0dd001088a5c915591db1a321413035db0b1
 **********************************************************************************************************************************

 Memory per process:       393 MW
 Total memory per node:    524 MW
 Total GA space:           131 MW

 GA preallocation disabled
 GA check enabled

 Variable memory set to 393.2 MW

 ZSYMEL=NOSYM


 Geometry recognized as XYZ

 SETTING BASIS          =    CC-PVTZ


 Recomputing integrals since basis changed


 Using spherical harmonics

 Library entry C      S cc-pVTZ              selected for orbital group  1
 Library entry C      P cc-pVTZ              selected for orbital group  1
 Library entry C      D cc-pVTZ              selected for orbital group  1
 Library entry C      F cc-pVTZ              selected for orbital group  1
 Library entry N      S cc-pVTZ              selected for orbital group  2
 Library entry N      P cc-pVTZ              selected for orbital group  2
 Library entry N      D cc-pVTZ              selected for orbital group  2
 Library entry N      F cc-pVTZ              selected for orbital group  2
 Library entry H      S cc-pVTZ              selected for orbital group  4
 Library entry H      P cc-pVTZ              selected for orbital group  4
 Library entry H      D cc-pVTZ              selected for orbital group  4


 PROGRAM * SEWARD (Integral evaluation for generally contracted gaussian basis sets)     Author: Roland Lindh, 1990

 Geometry written to block  1 of record 700


 Point group  C1  



 ATOMIC COORDINATES

 NR  ATOM    CHARGE       X              Y              Z

   1  C       6.00   -2.325458060    0.946490041    0.201756345
   2  C       6.00   -2.292502181   -1.657096058    0.150539363
   3  N       7.00    1.979445219   -2.531170679   -0.183224651
   4  N       7.00    2.682105561   -0.263614281    0.594909632
   5  C       6.00    1.778478704    1.931091530   -0.314842508
   6  H       1.00   -2.942065452    2.002830750   -1.442153185
   7  H       1.00   -2.515430942    1.938631727    1.983844860
   8  H       1.00   -2.767020026   -2.678612761   -1.559903569
   9  H       1.00   -2.346396527   -2.756808627    1.870991550
  10  H       1.00    1.617000416   -2.366800448   -2.070030601
  11  H       1.00    3.209846957   -0.258549985    2.436916506
  12  H       1.00    2.354894437    3.630121896    0.674803492
  13  H       1.00    1.567101895    2.063486876   -2.343607216

 Bond lengths in Bohr (Angstrom)

 1-2  2.604298340  1-6  2.049023892  1-7  2.048480973  2-8  2.047993795  2-9  2.042603257
     ( 1.378135332)     ( 1.084296748)     ( 1.084009448)     ( 1.083751644)     ( 1.080899094)

  3- 4  2.498206664   3-10  1.928320642   4- 5  2.541834781   4-11  1.916122635   5-12  2.048989625
       ( 1.321994035)       ( 1.020423339)       ( 1.345081040)       ( 1.013968432)       ( 1.084278615)

  5-13  2.044038876
       ( 1.081658791)

 Bond angles

  1-2-8  120.80684342   1-2-9  121.42231228   2-1-6  120.22669767   2-1-7  120.16423616

  3- 4- 5  124.90687034   3- 4-11  112.29001037   4- 3-10  106.27617561   4- 5-12  116.30091049

  4- 5-13  116.61068639   5- 4-11  116.08463603   6- 1- 7  114.85732672   8- 2- 9  115.39163996

 12- 5-13  117.04985701

 NUCLEAR CHARGE:                   40
 NUMBER OF PRIMITIVE AOS:         371
 NUMBER OF SYMMETRY AOS:          338
 NUMBER OF CONTRACTIONS:          262   (  262A   )
 NUMBER OF INNER CORE ORBITALS:     0   (    0A   )
 NUMBER OF OUTER CORE ORBITALS:     5   (    5A   )
 NUMBER OF VALENCE ORBITALS:       28   (   28A   )


 NUCLEAR REPULSION ENERGY  179.06021503


 Eigenvalues of metric

         1 0.352E-03 0.774E-03 0.835E-03 0.114E-02 0.125E-02 0.135E-02 0.141E-02 0.151E-02


 Contracted 2-electron integrals neglected if value below      1.0D-11
 AO integral compression algorithm  1   Integral accuracy      1.0D-11

     2137.260 MB (compressed) written to integral file ( 42.3%)


 NUMBER OF SORTED TWO-ELECTRON INTEGRALS:  593521831.     BUFFER LENGTH:  32768
 NUMBER OF SEGMENTS:  38  SEGMENT LENGTH:   15999762      RECORD LENGTH: 262144

 Memory used in sort:      16.29 MW

 SORT1 READ   631383783. AND WROTE   539223738. INTEGRALS IN   3104 RECORDS. CPU TIME:     5.18 SEC, REAL TIME:     9.02 SEC
 SORT2 READ   539223738. AND WROTE   593521831. INTEGRALS IN   8153 RECORDS. CPU TIME:     3.59 SEC, REAL TIME:     5.95 SEC

 FILE SIZES:   FILE 1:  2170.0 MBYTE,  FILE 4:  6509.6 MBYTE,   TOTAL:   8679.6 MBYTE

 OPERATOR DM      FOR CENTER  0  COORDINATES:    0.000000    0.000000    0.000000


 **********************************************************************************************************************************
 DATASETS  * FILE   NREC   LENGTH (MB)   RECORD NAMES
              1      19     1922.44       500      610      700      900      950      970     1000      129      960     1100   
                                          VAR    BASINP    GEOM    SYMINP    ZMAT    AOBASIS   BASIS     P2S    ABASIS      S 
                                         1400     1410     1200     1210     1080     1600     1650     1300     1700   
                                           T        V       H0       H01     AOSYM     SMH    MOLCAS    ERIS     OPER   

 PROGRAMS   *        TOTAL       INT
 CPU TIMES  *        21.26     21.17
 REAL TIME  *        32.14 SEC
 DISK USED  *         8.08 GB
 **********************************************************************************************************************************


 Program * Restricted Hartree-Fock

 Orbital guess generated from atomic densities. Full valence occupancy:   33

 Initial occupancy:  20

 NELEC=   40   SYM=1   MS2= 0   THRE=1.0D-08   THRD=3.2D-06   THRG=3.2D-06  HFMA2=F  DIIS_START=2   DIIS_MAX=10   DIIS_INCORE=F

 Level shifts:    0.00 (CLOSED)    0.00 (OPEN)    0.30 (GAP_MIN)

 ITER           ETOT              DE          GRAD        DDIFF     DIIS  NEXP   TIME(IT)  TIME(TOT)  DIAG
   1     -226.97675978    -226.97675978     0.00D+00     0.46D-01     0     0       2.99      5.60    start
   2     -227.03569806      -0.05893828     0.36D-02     0.51D-02     1     0       2.91      8.51    diag
   3     -227.05777758      -0.02207952     0.23D-02     0.21D-02     2     0       2.80     11.31    diag
   4     -227.05945377      -0.00167619     0.47D-03     0.57D-03     3     0       2.99     14.30    diag
   5     -227.05957371      -0.00011993     0.11D-03     0.16D-03     4     0       3.03     17.33    diag
   6     -227.05960360      -0.00002989     0.51D-04     0.76D-04     5     0       2.97     20.30    diag
   7     -227.05961543      -0.00001183     0.22D-04     0.53D-04     6     0       3.05     23.35    diag
   8     -227.05961993      -0.00000450     0.17D-04     0.36D-04     7     0       2.94     26.29    fixocc
   9     -227.05962113      -0.00000120     0.59D-05     0.24D-04     8     0       2.94     29.23    diag
  10     -227.05962123      -0.00000010     0.24D-05     0.65D-05     9     0       3.06     32.29    diag/orth
  11     -227.05962124      -0.00000001     0.70D-06     0.18D-05     9     0       3.00     35.29    diag
  12     -227.05962124      -0.00000000     0.26D-06     0.38D-06     0     0       3.02     38.31    diag

 Final occupancy:  20

 !RHF STATE 1.1 Energy               -227.059621237168
  RHF One-electron energy            -661.704336366242
  RHF Two-electron energy             255.584500097957
  RHF Kinetic energy                  226.634284078734
  RHF Nuclear energy                  179.060215031118
  RHF Virial quotient                  -1.001876755585

 !RHF STATE 1.1 Dipole moment           0.26685040     0.94635966     0.00993588
 Dipole moment /Debye                   0.67826607     2.40540633     0.02525448

 Orbital energies:

           1.1          2.1          3.1          4.1          5.1          6.1          7.1          8.1          9.1         10.1
    -15.653368   -15.562481   -11.278568   -11.220230   -11.212597    -1.338306    -1.052401    -1.010938    -0.880693    -0.783622

          11.1         12.1         13.1         14.1         15.1         16.1         17.1         18.1         19.1         20.1
     -0.706084    -0.668582    -0.625979    -0.586131    -0.564144    -0.561769    -0.492005    -0.444412    -0.330405    -0.294987

          21.1         22.1
      0.114174     0.137030


 HOMO     20.1    -0.294987 =      -8.0270eV
 LUMO     21.1     0.114174 =       3.1068eV
 LUMO-HOMO         0.409161 =      11.1338eV

 Orbitals saved in record  2100.2


 **********************************************************************************************************************************
 DATASETS  * FILE   NREC   LENGTH (MB)   RECORD NAMES
              1      19     1922.44       500      610      700      900      950      970     1000      129      960     1100   
                                          VAR    BASINP    GEOM    SYMINP    ZMAT    AOBASIS   BASIS     P2S    ABASIS      S 
                                         1400     1410     1200     1210     1080     1600     1650     1300     1700   
                                           T        V       H0       H01     AOSYM     SMH    MOLCAS    ERIS     OPER   

              2       4        1.67       700     1000      520     2100   
                                         GEOM     BASIS   MCVARS     RHF  

 PROGRAMS   *        TOTAL    HF-SCF       INT
 CPU TIMES  *        59.57     38.31     21.17
 REAL TIME  *        90.14 SEC
 DISK USED  *         8.08 GB
 **********************************************************************************************************************************


 PROGRAM * CCSD (Closed-shell coupled cluster)     Authors: C. Hampel, H.-J. Werner, 1991, M. Deegan, P.J. Knowles, 1992


 Convergence thresholds:  THRVAR = 1.00D-08  THRDEN = 1.00D-06

 Number of core orbitals:           5 (   5 )
 Number of closed-shell orbitals:  15 (  15 )
 Number of external orbitals:     242 ( 242 )

 Molecular orbitals read from record     2100.2  Type=RHF/CANONICAL  

 Number of N-1 electron functions:              15
 Number of N-2 electron functions:             120
 Number of singly external CSFs:              3630
 Number of doubly external CSFs:           6590265
 Total number of CSFs:                     6593896

 Length of J-op  integral file:               0.00 MB
 Length of K-op  integral file:               4.78 MB
 Length of 3-ext integral record:             0.00 MB

 Integral transformation finished. Total CPU:  21.39 sec, npass=  1  Memory used: 159.45 MW

 Reference energy:                   -227.05962124

 MP2 singlet pair energy:              -0.62361200
 MP2 triplet pair energy:              -0.35923751
 MP2 correlation energy:               -0.98284951
 MP2 total energy:                   -228.04247075

 SCS-MP2 correlation energy:           -0.97185996   (PS=  1.200000  PT=  0.333333)
 SCS-MP2 total energy:               -228.03148120

 ITER.      SQ.NORM     CORR.ENERGY   TOTAL ENERGY   ENERGY CHANGE        DEN1      VAR(S)    VAR(P)  DIIS     TIME  TIME/IT
   1      1.32120363    -0.99843950  -228.05806073    -0.01558999     0.01461951  0.50D-02  0.86D-02  1  1   114.44    47.11
   2      1.34616586    -1.00075260  -228.06037383    -0.00231310    -0.02570548  0.94D-04  0.10D-02  2  2   149.34    49.09
   3      1.35645691    -1.00087767  -228.06049891    -0.00012508    -0.00521288  0.97D-04  0.81D-04  3  3   182.72    49.51
   4      1.36032867    -1.00090900  -228.06053024    -0.00003133    -0.00124979  0.11D-04  0.17D-04  4  4   208.58    46.45
   5      1.36229032    -1.00096000  -228.06058124    -0.00005100    -0.00043075  0.55D-05  0.16D-05  5  5   236.34    44.99
   6      1.36298262    -1.00093647  -228.06055771     0.00002353    -0.00009562  0.87D-06  0.28D-06  6  6   265.57    44.98
   7      1.36317703    -1.00093317  -228.06055440     0.00000330    -0.00000294  0.28D-06  0.54D-07  6  2   298.51    46.46
   8      1.36325948    -1.00092946  -228.06055070     0.00000370    -0.00000643  0.37D-07  0.17D-07  6  1   334.04    48.39
   9      1.36327700    -1.00092926  -228.06055050     0.00000020     0.00000559  0.47D-08  0.30D-08  6  4   369.86    49.79
  10      1.36328515    -1.00092911  -228.06055034     0.00000016    -0.00000147  0.80D-09  0.36D-09  6  3   406.88    51.32

 Norm of t1 vector:      0.09752690      S-energy:     0.00000013      T1 diagnostic:  0.01259067
                                                                       D1 diagnostic:  0.04891747
                                                                       D2 diagnostic:  0.20955269 (external, symmetry=1)

 Doubles amplitudes (print threshold =  0.500E-01):

         I         J         SYM. A    SYM. B    A         B      T(IJ, AB)

        15        15         1         1         1         1     -0.08311114


 RESULTS
 =======

  Reference energy                   -227.059621237169
  CCSD singlet pair energy             -0.686287048609
  CCSD triplet pair energy             -0.314642192537
  CCSD correlation energy              -1.000929107068

 !CCSD total energy                  -228.060550344237

 Timing summary (sec):

 STEP                 CPU(USER)    SYS     CPU(TOT)    WALL
 Transformation         21.81      1.59     23.40     32.07
 CCSD iterations       385.38     14.82    400.20    513.84

 Program statistics:

 Available memory in ccsd:               393215080
 Min. memory needed in ccsd:              16343270
 Max. memory used in ccsd:                22344920
 Max. memory used in cckext:              17144463 (10 integral passes)



 **********************************************************************************************************************************
 DATASETS  * FILE   NREC   LENGTH (MB)   RECORD NAMES
              1      20     2832.19       500      610      700      900      950      970     1000      129      960     1100   
                                          VAR    BASINP    GEOM    SYMINP    ZMAT    AOBASIS   BASIS     P2S    ABASIS      S 
                                         1400     1410     1200     1210     1080     1600     1650     1300     1700     1380   
                                           T        V       H0       H01     AOSYM     SMH    MOLCAS    ERIS     OPER     JKOP   

              2       4        1.67       700     1000      520     2100   
                                         GEOM     BASIS   MCVARS     RHF  

 PROGRAMS   *        TOTAL      CCSD    HF-SCF       INT
 CPU TIMES  *       407.12    347.55     38.31     21.17
 REAL TIME  *       636.26 SEC
 DISK USED  *         8.08 GB
 **********************************************************************************************************************************

 Dump information in style XML to xml output                                                                      

 Orbitals will not be exported.

 **********************************************************************************************************************************

 CCSD/cc-pVTZ energy=   -228.060550344237

            CCSD          HF-SCF
   -228.06055034   -227.05962124
 **********************************************************************************************************************************
 Molpro calculation terminated
