
 Working directory              : /var/folders/2v/xbgp75_9785319ghcgb4zr4r0000gp/T//molpro.iarhH5NseY/
 Global scratch directory       : /var/folders/2v/xbgp75_9785319ghcgb4zr4r0000gp/T//molpro.iarhH5NseY/
 Wavefunction directory         : /Users/sacpjk/wfu/
 Main file repository           : /var/folders/2v/xbgp75_9785319ghcgb4zr4r0000gp/T//molpro.iarhH5NseY/

 id        : peterk

 Nodes                        nprocs
 Cardiff-University-G34YLXT77Y    1
 GA implementation: MPI file
 GA implementation (serial work in mppx): MPI file

 Using customized tuning parameters: mindgm=1; mindgv=20; mindgc=4; mindgr=1; noblas=0; minvec=7
 default implementation of scratch files=df  


 Variables initialized (1032), CPU time= 0.00 sec
 
 symmetry,nosym
 
 
 geometry={
 14
  n         -1.453934135634    0.199944332888   -0.757715097449
  h         -0.625338396930   -0.384909200688   -0.808057179042
  h         -2.115761700754   -0.189715236660   -1.415952054177
  c         -2.013951575915    0.120426538372    0.589663024499
  h         -2.908030526802    0.738272676333    0.650883920854
  h         -2.278038267596   -0.886815706602    0.927168615906
  h         -1.295568295023    0.527702873085    1.298803730494
  n          1.583600719117   -0.726493189723   -0.605239056236
  h          1.879869389195   -0.451955454822   -1.533224299529
  h          2.207150386084   -1.474183505751   -0.330044193261
  c          1.743830695067    0.408717403161    0.308436247873
  h          1.473640390979    0.094021622922    1.314089356636
  h          2.751241006206    0.830493962319    0.345407981528
  h          1.051290312165    1.194492885167    0.015779001903
 }
 basis=aug-cc-pVDZ
 
 
 
 hf; mp2
 
 
 
 {put,xml;noorbitals,nobasis}
 Commands initialized (841), CPU time= 0.00 sec, 704 directives.
 Default parameters read. Elapsed time= 0.07 sec

 Checking input...
 Passed
1


                                         ***  PROGRAM SYSTEM MOLPRO  ***
                                       Copyright, TTI GmbH Stuttgart, 2015
                                    Version 2023.1 linked Tue Jun  6 09:54:11 2023


 **********************************************************************************************************************************
 LABEL *                                                                                                                                                                 
  64 bit serial version                                                                  DATE: 08-Jun-23          TIME: 21:49:33  
 **********************************************************************************************************************************

 SHA1:             8ebb0dd001088a5c915591db1a321413035db0b1
 **********************************************************************************************************************************

 Memory per process:       805 MW
 Total memory per node:   1074 MW
 Total GA space:           268 MW

 GA preallocation disabled
 GA check enabled

 Variable memory set to 805.3 MW

 ZSYMEL=NOSYM


 Geometry recognized as XYZ

 SETTING BASIS          =    AUG-CC-PVDZ


 Recomputing integrals since basis changed


 Using spherical harmonics

 Library entry N      S aug-cc-pVDZ          selected for orbital group  1
 Library entry N      P aug-cc-pVDZ          selected for orbital group  1
 Library entry N      D aug-cc-pVDZ          selected for orbital group  1
 Library entry H      S aug-cc-pVDZ          selected for orbital group  2
 Library entry H      P aug-cc-pVDZ          selected for orbital group  2
 Library entry C      S aug-cc-pVDZ          selected for orbital group  3
 Library entry C      P aug-cc-pVDZ          selected for orbital group  3
 Library entry C      D aug-cc-pVDZ          selected for orbital group  3


 PROGRAM * SEWARD (Integral evaluation for generally contracted gaussian basis sets)     Author: Roland Lindh, 1990

 Geometry written to block  1 of record 700


 Point group  C1  



 ATOMIC COORDINATES

 NR  ATOM    CHARGE       X              Y              Z

   1  N       7.00   -2.747537320    0.377840029   -1.431874015
   2  H       1.00   -1.181718305   -0.727372972   -1.527006761
   3  H       1.00   -3.998210159   -0.358509839   -2.675761588
   4  C       6.00   -3.805816907    0.227573176    1.114301622
   5  H       1.00   -5.495381258    1.395133164    1.229992349
   6  H       1.00   -4.304868427   -1.675838808    1.752094755
   7  H       1.00   -2.448269253    0.997213905    2.454383340
   8  N       7.00    2.992571650   -1.372873160   -1.143736056
   9  H       1.00    3.552438296   -0.854072030   -2.897374014
  10  H       1.00    4.170909746   -2.785803083   -0.623693134
  11  C       6.00    3.295362421    0.772363954    0.582860035
  12  H       1.00    2.784776745    0.177675117    2.483268987
  13  H       1.00    5.199092005    1.569406137    0.652726486
  14  H       1.00    1.986650767    2.257264411    0.029817992

 Bond lengths in Bohr (Angstrom)

 1-2  1.918941167  1-3  1.911452321  1-4  2.761439151  4-5  2.056990123  4-6  2.068528386
     ( 1.015459935)     ( 1.011497008)     ( 1.461290668)     ( 1.088512296)     ( 1.094618082)

  4- 7  2.056964145   8- 9  1.912551008   8-10  1.911882914   8-11  2.770353514  11-12  2.055701031
       ( 1.088498549)       ( 1.012078408)       ( 1.011724868)       ( 1.466007946)       ( 1.087830138)

 11-13  2.065028786  11-14  2.055118259
       ( 1.092766173)       ( 1.087521749)

 Bond angles

  1-4-5  109.61825692   1-4-6  115.26640672   1-4-7  109.11184884   2-1-3  106.24620118

  2-1-4  109.09178005   3-1-4  109.16631861   5-4-6  107.86599269   5-4-7  107.04188173

  6- 4- 7  107.61673372   8-11-12  108.96566473   8-11-13  114.88035324   8-11-14  108.79498984

  9- 8-10  105.63187802   9- 8-11  109.23286160  10- 8-11  109.59570301  12-11-13  108.02032202

 12-11-14  107.43539387  13-11-14  108.49916730

 NUCLEAR CHARGE:                   36
 NUMBER OF PRIMITIVE AOS:         258
 NUMBER OF SYMMETRY AOS:          250
 NUMBER OF CONTRACTIONS:          182   (  182A   )
 NUMBER OF INNER CORE ORBITALS:     0   (    0A   )
 NUMBER OF OUTER CORE ORBITALS:     4   (    4A   )
 NUMBER OF VALENCE ORBITALS:       26   (   26A   )


 NUCLEAR REPULSION ENERGY  131.71717807


 Eigenvalues of metric

         1 0.204E-03 0.326E-03 0.374E-03 0.447E-03 0.494E-03 0.549E-03 0.634E-03 0.710E-03


 Contracted 2-electron integrals neglected if value below      1.0D-11
 AO integral compression algorithm  1   Integral accuracy      1.0D-11

     612.368 MB (compressed) written to integral file ( 49.6%)


 NUMBER OF SORTED TWO-ELECTRON INTEGRALS:  138669531.     BUFFER LENGTH:  32768
 NUMBER OF SEGMENTS:   9  SEGMENT LENGTH:   15999503      RECORD LENGTH: 524288

 Memory used in sort:      16.56 MW

 SORT1 READ   154345298. AND WROTE   134467543. INTEGRALS IN    389 RECORDS. CPU TIME:     1.11 SEC, REAL TIME:     1.57 SEC
 SORT2 READ   134467543. AND WROTE   138669531. INTEGRALS IN   2336 RECORDS. CPU TIME:     0.85 SEC, REAL TIME:     1.26 SEC

 FILE SIZES:   FILE 1:   643.8 MBYTE,  FILE 4:  1631.6 MBYTE,   TOTAL:   2275.5 MBYTE

 OPERATOR DM      FOR CENTER  0  COORDINATES:    0.000000    0.000000    0.000000


 **********************************************************************************************************************************
 DATASETS  * FILE   NREC   LENGTH (MB)   RECORD NAMES
              1      19      562.80       500      610      700      900      950      970     1000      129      960     1100   
                                          VAR    BASINP    GEOM    SYMINP    ZMAT    AOBASIS   BASIS     P2S    ABASIS      S 
                                         1400     1410     1200     1210     1080     1600     1650     1300     1700   
                                           T        V       H0       H01     AOSYM     SMH    MOLCAS    ERIS     OPER   

 PROGRAMS   *        TOTAL       INT
 CPU TIMES  *         5.27      5.18
 REAL TIME  *         6.95 SEC
 DISK USED  *         2.12 GB
 **********************************************************************************************************************************


 Program * Restricted Hartree-Fock

 Orbital guess generated from atomic densities. Full valence occupancy:   30

 Initial occupancy:  18

 NELEC=   36   SYM=1   MS2= 0   THRE=1.0D-08   THRD=3.2D-06   THRG=3.2D-06  HFMA2=F  DIIS_START=2   DIIS_MAX=10   DIIS_INCORE=F

 Level shifts:    0.00 (CLOSED)    0.00 (OPEN)    0.30 (GAP_MIN)

 ITER           ETOT              DE          GRAD        DDIFF     DIIS  NEXP   TIME(IT)  TIME(TOT)  DIAG
   1     -190.40688022    -190.40688022     0.00D+00     0.62D-01     0     0       0.62      1.16    start
   2     -190.45587537      -0.04899515     0.38D-02     0.67D-02     1     0       0.57      1.73    diag
   3     -190.46238278      -0.00650741     0.15D-02     0.19D-02     2     0       0.63      2.36    diag
   4     -190.46336582      -0.00098304     0.48D-03     0.79D-03     3     0       0.59      2.95    diag
   5     -190.46340601      -0.00004019     0.85D-04     0.16D-03     4     0       0.67      3.62    diag
   6     -190.46340886      -0.00000284     0.21D-04     0.45D-04     5     0       0.64      4.26    diag
   7     -190.46340906      -0.00000020     0.56D-05     0.11D-04     6     0       0.65      4.91    diag
   8     -190.46340908      -0.00000002     0.15D-05     0.42D-05     7     0       0.59      5.50    fixocc
   9     -190.46340908      -0.00000000     0.40D-06     0.10D-05     8     0       0.55      6.05    diag
  10     -190.46340908      -0.00000000     0.10D-06     0.18D-06     0     0       0.55      6.60    diag/orth

 Final occupancy:  18

 !RHF STATE 1.1 Energy               -190.463409084472
  RHF One-electron energy            -518.166452718128
  RHF Two-electron energy             195.985865562282
  RHF Kinetic energy                  190.199751427168
  RHF Nuclear energy                  131.717178071374
  RHF Virial quotient                  -1.001386214521

 !RHF STATE 1.1 Dipole moment           0.58324083    -0.40525757     0.06930144
 Dipole moment /Debye                   1.48245031    -1.03006200     0.17614669

 Orbital energies:

           1.1          2.1          3.1          4.1          5.1          6.1          7.1          8.1          9.1         10.1
    -15.555983   -15.527307   -11.248333   -11.235300    -1.180484    -1.155172    -0.900787    -0.882943    -0.670001    -0.649327

          11.1         12.1         13.1         14.1         15.1         16.1         17.1         18.1         19.1         20.1
     -0.606028    -0.589404    -0.558650    -0.538833    -0.519267    -0.502807    -0.402376    -0.374360     0.034020     0.046511


 HOMO     18.1    -0.374360 =     -10.1869eV
 LUMO     19.1     0.034020 =       0.9257eV
 LUMO-HOMO         0.408380 =      11.1126eV

 Orbitals saved in record  2100.2


 **********************************************************************************************************************************
 DATASETS  * FILE   NREC   LENGTH (MB)   RECORD NAMES
              1      19      562.80       500      610      700      900      950      970     1000      129      960     1100   
                                          VAR    BASINP    GEOM    SYMINP    ZMAT    AOBASIS   BASIS     P2S    ABASIS      S 
                                         1400     1410     1200     1210     1080     1600     1650     1300     1700   
                                           T        V       H0       H01     AOSYM     SMH    MOLCAS    ERIS     OPER   

              2       4        1.12       700     1000      520     2100   
                                         GEOM     BASIS   MCVARS     RHF  

 PROGRAMS   *        TOTAL    HF-SCF       INT
 CPU TIMES  *        11.87      6.60      5.18
 REAL TIME  *        15.46 SEC
 DISK USED  *         2.12 GB
 **********************************************************************************************************************************


 PROGRAM * MP2 (Closed-shell)     Authors: C. Hampel, H.-J. Werner, 1991, M. Deegan, P.J. Knowles, 1992


 Convergence thresholds:  THRVAR = 1.00D-08  THRDEN = 1.00D-06

 Number of core orbitals:           4 (   4 )
 Number of closed-shell orbitals:  14 (  14 )
 Number of external orbitals:     164 ( 164 )

 Molecular orbitals read from record     2100.2  Type=RHF/CANONICAL  

 Number of N-1 electron functions:              14
 Number of N-2 electron functions:             105
 Number of singly external CSFs:              2296
 Number of doubly external CSFs:           2636956
 Total number of CSFs:                     2639253

 Length of J-op  integral file:               0.00 MB
 Length of K-op  integral file:               2.34 MB

 Integral transformation finished. Total CPU:   1.31 sec, npass=  1  Memory used:   6.46 MW

 Memory needed for MP2:                      0.16 MW

 SCS-MP2 correlation energy:           -0.691663179012   (PS=  1.200000  PT=  0.333333)
 SCS-MP2 total energy:               -191.155072263484


  Reference energy                   -190.463409084472
  MP2 singlet pair energy              -0.452873291665
  MP2 triplet pair energy              -0.238203046630
  MP2 correlation energy               -0.691076338294

 !MP2 total energy                   -191.154485422767


 **********************************************************************************************************************************
 DATASETS  * FILE   NREC   LENGTH (MB)   RECORD NAMES
              1      20      603.19       500      610      700      900      950      970     1000      129      960     1100   
                                          VAR    BASINP    GEOM    SYMINP    ZMAT    AOBASIS   BASIS     P2S    ABASIS      S 
                                         1400     1410     1200     1210     1080     1600     1650     1300     1700     1380   
                                           T        V       H0       H01     AOSYM     SMH    MOLCAS    ERIS     OPER     JKOP   

              2       4        1.12       700     1000      520     2100   
                                         GEOM     BASIS   MCVARS     RHF  

 PROGRAMS   *        TOTAL       MP2    HF-SCF       INT
 CPU TIMES  *        13.41      1.54      6.60      5.18
 REAL TIME  *        17.39 SEC
 DISK USED  *         2.12 GB
 **********************************************************************************************************************************

 Dump information in style XML to xml output                                                                      

 Orbitals will not be exported.

 **********************************************************************************************************************************

 MP2/aug-cc-pVDZ energy=   -191.154485422767

             MP2          HF-SCF
   -191.15448542   -190.46340908
 **********************************************************************************************************************************
 Molpro calculation terminated
