
 Working directory              : /tmp/peterk/molpro.BeOjvh1BWM/
 Global scratch directory       : /tmp/peterk/molpro.BeOjvh1BWM/
 Wavefunction directory         : /home/peterk/wfu/
 Main file repository           : /tmp/peterk/molpro.BeOjvh1BWM/

 id        : peterk

 Nodes     nprocs
 marat        1
 GA implementation: MPI file
 GA implementation (serial work in mppx): MPI file

 Using customized tuning parameters: mindgm=1; mindgv=20; mindgc=4; mindgr=1; noblas=0; minvec=7
 default implementation of scratch files=df  


 Variables initialized (1032), CPU time= 0.00 sec
 
 core,small
 angstrom
 
 geometry={
 H1;O1,H1,0.9619;O2,O1,1.4497,H1,99.99;H2,O2,0.9619,O1,99.99,H1,112.7
 }
 basis=cc-pCV5Z
 
 
 
 hf; hf; papt; mp3
 
 
 
 {put,xml;noorbitals,nobasis}
 Commands initialized (841), CPU time= 0.01 sec, 708 directives.
 Default parameters read. Elapsed time= 0.05 sec

 Checking input...
 Passed
1


                                         ***  PROGRAM SYSTEM MOLPRO  ***
                                       Copyright, TTI GmbH Stuttgart, 2015
                                    Version 2023.1 linked Sat Jun 10 08:01:27 2023


 **********************************************************************************************************************************
 LABEL *                                                                                                                                                                 
  (16 PROC) 64 bit serial version                                                        DATE: 12-Jun-23          TIME: 12:11:26  
 **********************************************************************************************************************************

 SHA1:             8376d659ba1296ca7ee514c57770fe2c96af278c
 **********************************************************************************************************************************

 Memory per process:      1074 MW
 Total memory per node:   1074 MW

 GA preallocation disabled
 GA check disabled

 Variable memory set to 1073.7 MW

 ZUNIT=ANG

 SETTING BASIS          =    CC-PCV5Z


 Recomputing integrals since basis changed


 Using spherical harmonics

 Library entry H      S cc-pV5Z              selected for orbital group  1
 Library entry H      P cc-pV5Z              selected for orbital group  1
 Library entry H      D cc-pV5Z              selected for orbital group  1
 Library entry H      F cc-pV5Z              selected for orbital group  1
 Library entry H      G cc-pV5Z              selected for orbital group  1
 Library entry O      S cc-pCV5Z             selected for orbital group  2
 Library entry O      P cc-pCV5Z             selected for orbital group  2
 Library entry O      D cc-pCV5Z             selected for orbital group  2
 Library entry O      F cc-pCV5Z             selected for orbital group  2
 Library entry O      G cc-pCV5Z             selected for orbital group  2
 Library entry O      H cc-pCV5Z             selected for orbital group  2


 PROGRAM * SEWARD (Integral evaluation for generally contracted gaussian basis sets)     Author: Roland Lindh, 1990

 Geometry written to block  1 of record 700

 Orientation using atomic masses  
 Molecule type: Asymmetric top,     Order of principal axis = 2
 Symmetry elements: XY
 Rotational constants:      26.5232282    304.4736754     25.6942510 GHz  (calculated with average atomic masses)

 Point group  C2  



 ATOMIC COORDINATES

 NR  ATOM    CHARGE       X              Y              Z

   1  H1      1.00    1.347424735   -1.801309636   -0.933175495
   2  H2      1.00   -1.347424735    1.801309636   -0.933175495
   3  O1      8.00   -0.112004019   -1.365181095    0.058788761
   4  O2      8.00    0.112004019    1.365181095    0.058788761

 Bond lengths in Bohr (Angstrom)

 1-3  1.817727559  2-4  1.817727559  3-4  2.739535963
     ( 0.961900000)     ( 0.961900000)     ( 1.449700000)

 Bond angles

  1-3-4   99.99000000   2-4-3   99.99000000

 NUCLEAR CHARGE:                   18
 NUMBER OF PRIMITIVE AOS:         570
 NUMBER OF SYMMETRY AOS:          440
 NUMBER OF CONTRACTIONS:          400   (  200A   +  200B   )
 NUMBER OF INNER CORE ORBITALS:     0   (    0A   +    0B   )
 NUMBER OF OUTER CORE ORBITALS:     2   (    1A   +    1B   )
 NUMBER OF VALENCE ORBITALS:       10   (    5A   +    5B   )


 NUCLEAR REPULSION ENERGY   36.90490578


 Eigenvalues of metric

         1 0.337E-05 0.534E-04 0.306E-03 0.404E-03 0.429E-03 0.442E-03 0.493E-03 0.607E-03
         2 0.334E-05 0.575E-04 0.242E-03 0.304E-03 0.361E-03 0.443E-03 0.488E-03 0.494E-03


 Contracted 2-electron integrals neglected if value below      1.0D-12
 AO integral compression algorithm  1   Integral accuracy      1.0D-12

     8516.010 MB (compressed) written to integral file ( 44.9%)


 NUMBER OF SORTED TWO-ELECTRON INTEGRALS: 1616060100.     BUFFER LENGTH:  32768
 NUMBER OF SEGMENTS:  51  SEGMENT LENGTH:   31997532      RECORD LENGTH: 524288

 Memory used in sort:      32.55 MW

 SORT1 READ  2368290768. AND WROTE  1386381602. INTEGRALS IN   3989 RECORDS. CPU TIME:    49.42 SEC, REAL TIME:   329.16 SEC
 SORT2 READ  1386381602. AND WROTE  1616060100. INTEGRALS IN  32486 RECORDS. CPU TIME:    18.73 SEC, REAL TIME:    37.59 SEC

 FILE SIZES:   FILE 1:  8550.0 MBYTE,  FILE 4: 16731.1 MBYTE,   TOTAL:  25281.2 MBYTE

 OPERATOR DM      FOR CENTER  0  COORDINATES:    0.000000    0.000000    0.000000


 **********************************************************************************************************************************
 DATASETS  * FILE   NREC   LENGTH (MB)   RECORD NAMES
              1      19     5980.09       500      610      700      900      950      970     1000      129      960     1100   
                                          VAR    BASINP    GEOM    SYMINP    ZMAT    AOBASIS   BASIS     P2S    ABASIS      S 
                                         1400     1410     1200     1210     1080     1600     1650     1300     1700   
                                           T        V       H0       H01     AOSYM     SMH    MOLCAS    ERIS     OPER   

 PROGRAMS   *        TOTAL       INT
 CPU TIMES  *       231.29    231.16
 REAL TIME  *       556.98 SEC
 DISK USED  *        23.55 GB
 **********************************************************************************************************************************


 Program * Restricted Hartree-Fock

 Orbital guess generated from atomic densities. Full valence occupancy:    6   6

 Initial occupancy:   5   4

 NELEC=   18   SYM=1   MS2= 0   THRE=1.0D-08   THRD=3.2D-06   THRG=3.2D-06  HFMA2=F  DIIS_START=2   DIIS_MAX=10   DIIS_INCORE=F

 Level shifts:    0.00 (CLOSED)    0.00 (OPEN)    0.30 (GAP_MIN)

 ITER           ETOT              DE          GRAD        DDIFF     DIIS  NEXP   TIME(IT)  TIME(TOT)  DIAG
   1     -150.82369511    -150.82369511     0.00D+00     0.29D-01     0     0       6.08     11.74    start
   2     -150.85056563      -0.02687052     0.47D-02     0.22D-02     1     0       6.10     17.84    diag
   3     -150.85174519      -0.00117956     0.10D-02     0.38D-03     2     0       6.06     23.90    diag
   4     -150.85187757      -0.00013238     0.25D-03     0.17D-03     3     0       5.97     29.87    diag
   5     -150.85189411      -0.00001654     0.95D-04     0.50D-04     4     0       6.06     35.93    diag
   6     -150.85189575      -0.00000163     0.23D-04     0.17D-04     5     0       6.00     41.93    diag
   7     -150.85189584      -0.00000009     0.47D-05     0.43D-05     6     0       5.95     47.88    diag
   8     -150.85189585      -0.00000001     0.11D-05     0.13D-05     7     0       6.00     53.88    fixocc
   9     -150.85189585      -0.00000000     0.31D-06     0.18D-06     0     0       6.01     59.89    diag

 Final occupancy:   5   4

 !RHF STATE 1.1 Energy               -150.851895847510
  RHF One-electron energy            -281.516178707478
  RHF Two-electron energy              93.759377076377
  RHF Kinetic energy                  150.666391998483
  RHF Nuclear energy                   36.904905783591
  RHF Virial quotient                  -1.001231222481

 !RHF STATE 1.1 Dipole moment           0.00000000     0.00000000    -0.74017268
 Dipole moment /Debye                   0.00000000     0.00000000    -1.88133131

 Orbital energies:

           1.1          2.1          3.1          4.1          5.1          6.1          7.1
    -20.629406    -1.477178    -0.715698    -0.610702    -0.519951     0.096167     0.305843

           1.2          2.2          3.2          4.2          5.2          6.2
    -20.629113    -1.215729    -0.712677    -0.488260     0.108337     0.215670


 HOMO      4.2    -0.488260 =     -13.2862eV
 LUMO      6.1     0.096167 =       2.6168eV
 LUMO-HOMO         0.584427 =      15.9031eV

 Orbitals saved in record  2100.2


 **********************************************************************************************************************************
 DATASETS  * FILE   NREC   LENGTH (MB)   RECORD NAMES
              1      19     5980.09       500      610      700      900      950      970     1000      129      960     1100   
                                          VAR    BASINP    GEOM    SYMINP    ZMAT    AOBASIS   BASIS     P2S    ABASIS      S 
                                         1400     1410     1200     1210     1080     1600     1650     1300     1700   
                                           T        V       H0       H01     AOSYM     SMH    MOLCAS    ERIS     OPER   

              2       4        1.70       700     1000      520     2100   
                                         GEOM     BASIS   MCVARS     RHF  

 PROGRAMS   *        TOTAL    HF-SCF       INT
 CPU TIMES  *       291.19     59.90    231.16
 REAL TIME  *       625.67 SEC
 DISK USED  *        23.55 GB
 **********************************************************************************************************************************


 Program * Restricted Hartree-Fock

 Molecular orbitals read from record     2100.2  Type=RHF/CANONICAL  

 Initial occupancy:   5   4

 NELEC=   18   SYM=1   MS2= 0   THRE=1.0D-08   THRD=3.2D-06   THRG=3.2D-06  HFMA2=F  DIIS_START=2   DIIS_MAX=10   DIIS_INCORE=F

 Level shifts:    0.00 (CLOSED)    0.00 (OPEN)    0.30 (GAP_MIN)

 ITER           ETOT              DE          GRAD        DDIFF     DIIS  NEXP   TIME(IT)  TIME(TOT)  DIAG
   1     -150.85189585    -150.85189585     0.00D+00     0.30D-01     0     0       6.00      6.00    start
   2     -150.85189585      -0.00000000     0.13D-06     0.75D-07     1     0       6.10     12.10    diag

 Final occupancy:   5   4

 !RHF STATE 1.1 Energy               -150.851895847579
  RHF One-electron energy            -281.516178472250
  RHF Two-electron energy              93.759376841080
  RHF Kinetic energy                  150.666391148895
  RHF Nuclear energy                   36.904905783591
  RHF Virial quotient                  -1.001231228128

 !RHF STATE 1.1 Dipole moment           0.00000000     0.00000000    -0.74017024
 Dipole moment /Debye                   0.00000000     0.00000000    -1.88132509

 Orbital energies:

           1.1          2.1          3.1          4.1          5.1          6.1          7.1
    -20.629406    -1.477178    -0.715697    -0.610702    -0.519952     0.096168     0.305843

           1.2          2.2          3.2          4.2          5.2          6.2
    -20.629113    -1.215729    -0.712677    -0.488260     0.108338     0.215671


 HOMO      4.2    -0.488260 =     -13.2862eV
 LUMO      6.1     0.096168 =       2.6169eV
 LUMO-HOMO         0.584427 =      15.9031eV

 Orbitals saved in record  2101.2


 **********************************************************************************************************************************
 DATASETS  * FILE   NREC   LENGTH (MB)   RECORD NAMES
              1      19     5980.09       500      610      700      900      950      970     1000      129      960     1100   
                                          VAR    BASINP    GEOM    SYMINP    ZMAT    AOBASIS   BASIS     P2S    ABASIS      S 
                                         1400     1410     1200     1210     1080     1600     1650     1300     1700   
                                           T        V       H0       H01     AOSYM     SMH    MOLCAS    ERIS     OPER   

              2       5        3.95       700     1000      520     2100     2101   
                                         GEOM     BASIS   MCVARS     RHF      RHF  

 PROGRAMS   *        TOTAL    HF-SCF    HF-SCF       INT
 CPU TIMES  *       303.30     12.11     59.90    231.16
 REAL TIME  *       639.28 SEC
 DISK USED  *        23.55 GB
 **********************************************************************************************************************************


 PROGRAM * PAPT (Closed-shell)     Authors: C. Hampel, H.-J. Werner, 1991, P.J. Knowles, 2021


 CORETYPE=SMALL

 Convergence thresholds:  THRVAR = 1.00D-08  THRDEN = 1.00D-06

 Number of closed-shell orbitals:   9 (   5   4 )
 Number of external orbitals:     391 ( 195 196 )

 Molecular orbitals read from record     2101.2  Type=RHF/CANONICAL  

 Number of N-1 electron functions:               9
 Number of N-2 electron functions:              45
 Number of singly external CSFs:              1759
 Number of doubly external CSFs:           3097600
 Total number of CSFs:                     3099360

 Length of J-op  integral file:               0.00 MB
 Length of K-op  integral file:               5.56 MB

 Integral transformation finished. Total CPU:  11.20 sec, npass=  1  Memory used:   5.20 MW

 Reference energy:                   -150.85189585

                        CORR.ENERGY   TOTAL ENERGY   ENERGY CHANGE
 MP2:                   -0.67320812  -151.52510396    -0.67320812

 SCS-MP2 correlation energy:           -0.68120631   (PS=  1.200000  PT=  0.333333)
 SCS-MP2 total energy:               -151.53310215
 Iteration:   1     0.3915D+00
 Iteration:   2     0.5219D+00
 Iteration:   3     0.1360D+00
 Iteration:   4     0.1064D+00
 Iteration:   5     0.1570D+01
 Iteration:   6     0.2308D-01
 Iteration:   7     0.4599D-01
 Iteration:   8     0.8124D-02
 Iteration:   9     0.9790D-02
 Iteration:  10     0.7095D-02
 Iteration:  11     0.1140D-02
 Iteration:  12     0.1412D-02
 Iteration:  13     0.1296D-02
 Iteration:  14     0.2938D-03
 Iteration:  15     0.4211D-03
 Iteration:  16     0.1795D-03
 Iteration:  17     0.5800D-04
 PAPT operator written to  7000.1
 PAPT orbitals and eigenvalues written to  7000.2

 MP3(D):                -0.67077320  -151.52266905     0.00243492



 RESULTS
 =======

  Reference energy                   -150.851895847579

  Correlated core orbitals:             1.1       1.2
  Orbital energies:                   -20.6294  -20.6291

  MP3 core-core energy                 -0.082003342653
  MP3 core-valence energy              -0.040322833474
  MP3 valence correlation energy       -0.548447022727

  MP3 singlet pair energy              -0.471995942784
  MP3 triplet pair energy              -0.198777256071
  MP3 correlation energy               -0.670773198855

 !MP3 total energy                   -151.522669046434

 Timing summary (sec):

 STEP                 CPU(USER)    SYS     CPU(TOT)    WALL
 Transformation         11.31      0.80     12.11     12.11
 CCSD iterations       323.71      0.93    324.64     20.91

 Program statistics:

 Available memory in ccsd:              1073741495
 Min. memory needed in ccsd:               8635210
 Max. memory used in ccsd:                11356794
 Max. memory used in cckext:              15893205 ( 1 integral passes)



 **********************************************************************************************************************************
 DATASETS  * FILE   NREC   LENGTH (MB)   RECORD NAMES
              1      21     6022.87       500      610      700      900      950      970     1000      129      960     1100   
                                          VAR    BASINP    GEOM    SYMINP    ZMAT    AOBASIS   BASIS     P2S    ABASIS      S 
                                         1400     1410     1200     1210     1080     1600     1650     1300     1700     1380   
                                           T        V       H0       H01     AOSYM     SMH    MOLCAS    ERIS     OPER     JKOP   
                                         7000   
                                        PAPT AO    

              2       6        5.89       700     1000      520     2100     2101     7000   
                                         GEOM     BASIS   MCVARS     RHF      RHF     PAPT   

 PROGRAMS   *        TOTAL      PAPT    HF-SCF    HF-SCF       INT
 CPU TIMES  *       334.61     31.31     12.11     59.90    231.16
 REAL TIME  *       672.35 SEC
 DISK USED  *        23.55 GB
 **********************************************************************************************************************************


 PROGRAM * MP3 (Closed-shell)     Authors: C. Hampel, H.-J. Werner, 1991, M. Deegan, P.J. Knowles, 1992


 CORETYPE=SMALL

 Convergence thresholds:  THRVAR = 1.00D-08  THRDEN = 1.00D-06

 Number of closed-shell orbitals:   9 (   5   4 )
 Number of external orbitals:     391 ( 195 196 )

 Molecular orbitals read from record     7000.2  Type=PAPT/CANONICAL (state 1.1)

 Number of N-1 electron functions:               9
 Number of N-2 electron functions:              45
 Number of singly external CSFs:              1759
 Number of doubly external CSFs:           3097600
 Total number of CSFs:                     3099360

 Length of J-op  integral file:               0.00 MB
 Length of K-op  integral file:               5.56 MB

 Integral transformation finished. Total CPU:  11.02 sec, npass=  1  Memory used:   5.20 MW
 Orbital energies read from record       7000.2  Type=PAPT/CANONICAL (state 1.1)

 Reference energy:                   -150.85189585

                        CORR.ENERGY   TOTAL ENERGY   ENERGY CHANGE
 MP2:                   -0.67498110  -151.52687695    -0.67498110

 SCS-MP2 correlation energy:           -0.68508310   (PS=  1.200000  PT=  0.333333)
 SCS-MP2 total energy:               -151.53697894

 MP3(D):                -0.67515784  -151.52705369    -0.00017674



 RESULTS
 =======

  Reference energy                   -150.851895847579

  Correlated core orbitals:             1.1       1.2
  Orbital energies:                   -19.0361  -19.0527

  MP3 core-core energy                 -0.082464100370
  MP3 core-valence energy              -0.039966984350
  MP3 valence correlation energy       -0.552726753559

  MP3 singlet pair energy              -0.474954938419
  MP3 triplet pair energy              -0.200202899860
  MP3 correlation energy               -0.675157838279

 !MP3 total energy                   -151.527053685858

 Timing summary (sec):

 STEP                 CPU(USER)    SYS     CPU(TOT)    WALL
 Transformation         16.82      2.03     18.85     18.85
 CCSD iterations       351.08      0.82    351.90     16.86

 Program statistics:

 Available memory in ccsd:              1073741495
 Min. memory needed in ccsd:               8635210
 Max. memory used in ccsd:                11356794
 Max. memory used in cckext:              15893205 ( 1 integral passes)



 **********************************************************************************************************************************
 DATASETS  * FILE   NREC   LENGTH (MB)   RECORD NAMES
              1      21     6022.87       500      610      700      900      950      970     1000      129      960     1100   
                                          VAR    BASINP    GEOM    SYMINP    ZMAT    AOBASIS   BASIS     P2S    ABASIS      S 
                                         1400     1410     1200     1210     1080     1600     1650     1300     1700     1380   
                                           T        V       H0       H01     AOSYM     SMH    MOLCAS    ERIS     OPER     JKOP   
                                         7000   
                                        PAPT AO    

              2       6        5.89       700     1000      520     2100     2101     7000   
                                         GEOM     BASIS   MCVARS     RHF      RHF     PAPT   

 PROGRAMS   *        TOTAL       MP3      PAPT    HF-SCF    HF-SCF       INT
 CPU TIMES  *       367.48     32.87     31.31     12.11     59.90    231.16
 REAL TIME  *       708.09 SEC
 DISK USED  *        23.55 GB
 **********************************************************************************************************************************

 Dump information in style XML to xml output                                                                      

 Orbitals will not be exported.

 **********************************************************************************************************************************

 MP3/cc-pCV5Z energy=   -151.527053685858

             MP3            PAPT          HF-SCF          HF-SCF
   -151.52705369   -151.52266905   -150.85189585   -150.85189585
 **********************************************************************************************************************************
 Molpro calculation terminated
