
 Working directory              : /var/folders/2v/xbgp75_9785319ghcgb4zr4r0000gp/T//molpro.DbCXYNVHD0/
 Global scratch directory       : /var/folders/2v/xbgp75_9785319ghcgb4zr4r0000gp/T//molpro.DbCXYNVHD0/
 Wavefunction directory         : /Users/sacpjk/wfu/
 Main file repository           : /var/folders/2v/xbgp75_9785319ghcgb4zr4r0000gp/T//molpro.DbCXYNVHD0/

 id        : peterk

 Nodes                        nprocs
 Cardiff-University-G34YLXT77Y    1
 GA implementation: MPI file
 GA implementation (serial work in mppx): MPI file

 Using customized tuning parameters: mindgm=1; mindgv=20; mindgc=4; mindgr=1; noblas=0; minvec=7
 default implementation of scratch files=df  


 Variables initialized (1032), CPU time= 0.00 sec
 
 symmetry,nosym
 
 
 geometry={
 7
  n          0.359011992707    0.182100579047   -0.826971520423
  h          1.187607731412   -0.402752954475   -0.877313602017
  h         -0.302815572360   -0.207558990448   -1.485208477152
  c         -0.201005447520    0.102582784531    0.520406601472
  h         -1.095084398408    0.720428922492    0.581627497827
  h         -0.465092139202   -0.904659460390    0.857912192878
  h          0.517377833318    0.509859119244    1.229547307467
 }
 basis=aug-cc-pVTZ
 
 
 
 hf; ccsd; counterpoise
 
 
 
 {put,xml;noorbitals,nobasis}
 Commands initialized (841), CPU time= 0.01 sec, 704 directives.
 Default parameters read. Elapsed time= 1.04 sec

 Checking input...
 Passed
1


                                         ***  PROGRAM SYSTEM MOLPRO  ***
                                       Copyright, TTI GmbH Stuttgart, 2015
                                    Version 2023.1 linked Tue Jun  6 09:54:11 2023


 **********************************************************************************************************************************
 LABEL *                                                                                                                                                                 
  64 bit serial version                                                                  DATE: 08-Jun-23          TIME: 14:54:33  
 **********************************************************************************************************************************

 SHA1:             8ebb0dd001088a5c915591db1a321413035db0b1
 **********************************************************************************************************************************

 Memory per process:       805 MW
 Total memory per node:   1074 MW
 Total GA space:           268 MW

 GA preallocation disabled
 GA check enabled

 Variable memory set to 805.3 MW

 ZSYMEL=NOSYM


 Geometry recognized as XYZ

 SETTING BASIS          =    AUG-CC-PVTZ


 Recomputing integrals since basis changed


 Using spherical harmonics

 Library entry N      S aug-cc-pVTZ          selected for orbital group  1
 Library entry N      P aug-cc-pVTZ          selected for orbital group  1
 Library entry N      D aug-cc-pVTZ          selected for orbital group  1
 Library entry N      F aug-cc-pVTZ          selected for orbital group  1
 Library entry H      S aug-cc-pVTZ          selected for orbital group  2
 Library entry H      P aug-cc-pVTZ          selected for orbital group  2
 Library entry H      D aug-cc-pVTZ          selected for orbital group  2
 Library entry C      S aug-cc-pVTZ          selected for orbital group  3
 Library entry C      P aug-cc-pVTZ          selected for orbital group  3
 Library entry C      D aug-cc-pVTZ          selected for orbital group  3
 Library entry C      F aug-cc-pVTZ          selected for orbital group  3


 PROGRAM * SEWARD (Integral evaluation for generally contracted gaussian basis sets)     Author: Roland Lindh, 1990

 Geometry written to block  1 of record 700


 Point group  C1  



 ATOMIC COORDINATES

 NR  ATOM    CHARGE       X              Y              Z

   1  N       7.00    0.678434342    0.344120222   -1.562749686
   2  H       1.00    2.244253356   -0.761092780   -1.657882433
   3  H       1.00   -0.572238498   -0.392229647   -2.806637260
   4  C       6.00   -0.379845245    0.193853368    0.983425950
   5  H       1.00   -2.069409596    1.361413356    1.099116677
   6  H       1.00   -0.878896766   -1.709558616    1.621219084
   7  H       1.00    0.977702408    0.963494098    2.323507668

 Bond lengths in Bohr (Angstrom)

 1-2  1.918941167  1-3  1.911452321  1-4  2.761439151  4-5  2.056990123  4-6  2.068528386
     ( 1.015459935)     ( 1.011497008)     ( 1.461290668)     ( 1.088512296)     ( 1.094618082)

 4-7  2.056964145
     ( 1.088498549)

 Bond angles

  1-4-5  109.61825692   1-4-6  115.26640672   1-4-7  109.11184885   2-1-3  106.24620119

  2-1-4  109.09178005   3-1-4  109.16631861   5-4-6  107.86599269   5-4-7  107.04188173

  6-4-7  107.61673372

 NUCLEAR CHARGE:                   18
 NUMBER OF PRIMITIVE AOS:         269
 NUMBER OF SYMMETRY AOS:          241
 NUMBER OF CONTRACTIONS:          207   (  207A   )
 NUMBER OF INNER CORE ORBITALS:     0   (    0A   )
 NUMBER OF OUTER CORE ORBITALS:     2   (    2A   )
 NUMBER OF VALENCE ORBITALS:       13   (   13A   )


 NUCLEAR REPULSION ENERGY   42.09217567

 Eigenvalues of metric

         1 0.394E-04 0.619E-04 0.643E-04 0.136E-03 0.157E-03 0.246E-03 0.392E-03 0.649E-03


 Contracted 2-electron integrals neglected if value below      1.0D-12
 AO integral compression algorithm  1   Integral accuracy      1.0D-12

     1337.721 MB (compressed) written to integral file ( 62.5%)


 NUMBER OF SORTED TWO-ELECTRON INTEGRALS:  231738156.     BUFFER LENGTH:  32768
 NUMBER OF SEGMENTS:  15  SEGMENT LENGTH:   15999503      RECORD LENGTH: 524288

 Memory used in sort:      16.56 MW

 SORT1 READ   267401021. AND WROTE   230480978. INTEGRALS IN    665 RECORDS. CPU TIME:     1.85 SEC, REAL TIME:     3.28 SEC
 SORT2 READ   230480978. AND WROTE   231738156. INTEGRALS IN   5103 RECORDS. CPU TIME:     1.49 SEC, REAL TIME:     4.25 SEC

 FILE SIZES:   FILE 1:  1369.4 MBYTE,  FILE 4:  2789.3 MBYTE,   TOTAL:   4158.7 MBYTE

 OPERATOR DM      FOR CENTER  0  COORDINATES:    0.000000    0.000000    0.000000


 **********************************************************************************************************************************
 DATASETS  * FILE   NREC   LENGTH (MB)   RECORD NAMES
              1      19     1162.24       500      610      700      900      950      970     1000      129      960     1100   
                                          VAR    BASINP    GEOM    SYMINP    ZMAT    AOBASIS   BASIS     P2S    ABASIS      S 
                                         1400     1410     1200     1210     1080     1600     1650     1300     1700   
                                           T        V       H0       H01     AOSYM     SMH    MOLCAS    ERIS     OPER   

 PROGRAMS   *        TOTAL       INT
 CPU TIMES  *         8.15      8.05
 REAL TIME  *        18.22 SEC
 DISK USED  *         3.87 GB
 **********************************************************************************************************************************


 Program * Restricted Hartree-Fock

 Orbital guess generated from atomic densities. Full valence occupancy:   15

 Initial occupancy:   9

 NELEC=   18   SYM=1   MS2= 0   THRE=1.0D-08   THRD=3.2D-06   THRG=3.2D-06  HFMA2=F  DIIS_START=2   DIIS_MAX=10   DIIS_INCORE=F

 Level shifts:    0.00 (CLOSED)    0.00 (OPEN)    0.30 (GAP_MIN)

 ITER           ETOT              DE          GRAD        DDIFF     DIIS  NEXP   TIME(IT)  TIME(TOT)  DIAG
   1      -95.22533912     -95.22533912     0.00D+00     0.41D-01     0     0       1.10      2.09    start
   2      -95.25101317      -0.02567405     0.37D-02     0.43D-02     1     0       1.15      3.24    diag
   3      -95.25477979      -0.00376663     0.16D-02     0.12D-02     2     0       1.17      4.41    diag
   4      -95.25530175      -0.00052195     0.46D-03     0.42D-03     3     0       1.14      5.55    diag
   5      -95.25532817      -0.00002643     0.90D-04     0.79D-04     4     0       1.07      6.62    diag
   6      -95.25532989      -0.00000171     0.21D-04     0.24D-04     5     0       1.11      7.73    diag
   7      -95.25533001      -0.00000012     0.60D-05     0.65D-05     6     0       1.09      8.82    diag
   8      -95.25533003      -0.00000001     0.16D-05     0.27D-05     7     0       1.10      9.92    fixocc
   9      -95.25533003      -0.00000000     0.41D-06     0.77D-06     8     0       1.09     11.01    diag
  10      -95.25533003      -0.00000000     0.88D-07     0.90D-07     0     0       1.19     12.20    diag/orth

 Final occupancy:   9

 !RHF STATE 1.1 Energy                -95.255330026680
  RHF One-electron energy            -211.533928878981
  RHF Two-electron energy              74.186423183844
  RHF Kinetic energy                   95.122289352631
  RHF Nuclear energy                   42.092175668458
  RHF Virial quotient                  -1.001398627755

 !RHF STATE 1.1 Dipole moment          -0.11657166    -0.54458879     0.11439913
 Dipole moment /Debye                  -0.29629560    -1.38420664     0.29077359

 Orbital energies:

           1.1          2.1          3.1          4.1          5.1          6.1          7.1          8.1          9.1         10.1
    -15.540735   -11.240247    -1.171599    -0.895580    -0.662798    -0.604120    -0.555536    -0.516177    -0.393749     0.029443

          11.1
      0.042829


 HOMO      9.1    -0.393749 =     -10.7145eV
 LUMO     10.1     0.029443 =       0.8012eV
 LUMO-HOMO         0.423192 =      11.5156eV

 Orbitals saved in record  2100.2


 **********************************************************************************************************************************
 DATASETS  * FILE   NREC   LENGTH (MB)   RECORD NAMES
              1      19     1162.24       500      610      700      900      950      970     1000      129      960     1100   
                                          VAR    BASINP    GEOM    SYMINP    ZMAT    AOBASIS   BASIS     P2S    ABASIS      S 
                                         1400     1410     1200     1210     1080     1600     1650     1300     1700   
                                           T        V       H0       H01     AOSYM     SMH    MOLCAS    ERIS     OPER   

              2       4        1.16       700     1000      520     2100   
                                         GEOM     BASIS   MCVARS     RHF  

 PROGRAMS   *        TOTAL    HF-SCF       INT
 CPU TIMES  *        20.35     12.20      8.05
 REAL TIME  *        35.28 SEC
 DISK USED  *         3.87 GB
 **********************************************************************************************************************************


 PROGRAM * CCSD (Closed-shell coupled cluster)     Authors: C. Hampel, H.-J. Werner, 1991, M. Deegan, P.J. Knowles, 1992


 Convergence thresholds:  THRVAR = 1.00D-08  THRDEN = 1.00D-06

 Number of core orbitals:           2 (   2 )
 Number of closed-shell orbitals:   7 (   7 )
 Number of external orbitals:     198 ( 198 )

 Molecular orbitals read from record     2100.2  Type=RHF/CANONICAL  

 Number of N-1 electron functions:               7
 Number of N-2 electron functions:              28
 Number of singly external CSFs:              1386
 Number of doubly external CSFs:            961191
 Total number of CSFs:                      962578

 Length of J-op  integral file:               0.00 MB
 Length of K-op  integral file:               3.00 MB
 Length of 3-ext integral record:             0.00 MB

 Integral transformation finished. Total CPU:   3.51 sec, npass=  1  Memory used:  38.60 MW

 Reference energy:                    -95.25533003

 MP2 singlet pair energy:              -0.27690143
 MP2 triplet pair energy:              -0.13485793
 MP2 correlation energy:               -0.41175936
 MP2 total energy:                    -95.66708939

 SCS-MP2 correlation energy:           -0.41619331   (PS=  1.200000  PT=  0.333333)
 SCS-MP2 total energy:                -95.67152334

 ITER.      SQ.NORM     CORR.ENERGY   TOTAL ENERGY   ENERGY CHANGE        DEN1      VAR(S)    VAR(P)  DIIS     TIME  TIME/IT
   1      1.12870442    -0.43334880   -95.68867883    -0.02158944    -0.01170077  0.11D-02  0.19D-02  1  1    26.70     3.51
   2      1.13736400    -0.43495756   -95.69028759    -0.00160876    -0.00942708  0.23D-04  0.20D-03  2  2    29.64     3.99
   3      1.14010498    -0.43503356   -95.69036359    -0.00007600    -0.00179548  0.73D-05  0.11D-04  3  3    32.62     4.07
   4      1.14083375    -0.43505451   -95.69038454    -0.00002095    -0.00031441  0.97D-06  0.84D-06  4  4    35.57     4.15
   5      1.14097534    -0.43505341   -95.69038344     0.00000110    -0.00004442  0.22D-06  0.94D-07  5  5    38.45     4.14
   6      1.14101595    -0.43505113   -95.69038115     0.00000229    -0.00000827  0.45D-07  0.11D-07  6  6    41.48     4.15
   7      1.14102610    -0.43505070   -95.69038073     0.00000043    -0.00000050  0.79D-08  0.21D-08  6  2    44.49     4.16
   8      1.14103079    -0.43505050   -95.69038053     0.00000020    -0.00000052  0.13D-08  0.34D-09  6  1    47.63     4.22

 Norm of t1 vector:      0.04556013      S-energy:    -0.00000012      T1 diagnostic:  0.00861006
                                                                       D1 diagnostic:  0.02011543
                                                                       D2 diagnostic:  0.13989405 (internal)


 RESULTS
 =======

  Reference energy                    -95.255330026680
  CCSD singlet pair energy             -0.310661948152
  CCSD triplet pair energy             -0.124388437927
  CCSD correlation energy              -0.435050501598

 !CCSD total energy                   -95.690380528278

 Timing summary (sec):

 STEP                 CPU(USER)    SYS     CPU(TOT)    WALL
 Transformation          3.54      0.45      3.99      4.78
 CCSD iterations        44.12      2.47     46.59     34.10

 Program statistics:

 Available memory in ccsd:               805306163
 Min. memory needed in ccsd:               3040312
 Max. memory used in ccsd:                 3839467
 Max. memory used in cckext:               2736135 ( 8 integral passes)



 **********************************************************************************************************************************
 DATASETS  * FILE   NREC   LENGTH (MB)   RECORD NAMES
              1      20     1384.97       500      610      700      900      950      970     1000      129      960     1100   
                                          VAR    BASINP    GEOM    SYMINP    ZMAT    AOBASIS   BASIS     P2S    ABASIS      S 
                                         1400     1410     1200     1210     1080     1600     1650     1300     1700     1380   
                                           T        V       H0       H01     AOSYM     SMH    MOLCAS    ERIS     OPER     JKOP   

              2       4        1.16       700     1000      520     2100   
                                         GEOM     BASIS   MCVARS     RHF  

 PROGRAMS   *        TOTAL      CCSD    HF-SCF       INT
 CPU TIMES  *        47.56     27.20     12.20      8.05
 REAL TIME  *        75.01 SEC
 DISK USED  *         3.87 GB
 **********************************************************************************************************************************

 Counterpoise: absolute minimum monomer separation=    -1.000 Bragg radius scale factor=     1.400 Number of monomers= 1
 Counterpoise skipped because only a single monomer


 **********************************************************************************************************************************
 DATASETS  * FILE   NREC   LENGTH (MB)   RECORD NAMES
              1      20     1384.97       500      610      700      900      950      970     1000      129      960     1100   
                                          VAR    BASINP    GEOM    SYMINP    ZMAT    AOBASIS   BASIS     P2S    ABASIS      S 
                                         1400     1410     1200     1210     1080     1600     1650     1300     1700     1380   
                                           T        V       H0       H01     AOSYM     SMH    MOLCAS    ERIS     OPER     JKOP   

              2       4        1.16       700     1000      520     2100   
                                         GEOM     BASIS   MCVARS     RHF  

 PROGRAMS   *        TOTALCOUNTERPOI      CCSD    HF-SCF       INT
 CPU TIMES  *        47.56      0.00     27.20     12.20      8.05
 REAL TIME  *        75.03 SEC
 DISK USED  *         3.87 GB
 **********************************************************************************************************************************

 Dump information in style XML to xml output                                                                      

 Orbitals will not be exported.

 **********************************************************************************************************************************

 CCSD/aug-cc-pVTZ energy=    -95.690380528278

            CCSD          HF-SCF
    -95.69038053    -95.25533003
 **********************************************************************************************************************************
 Molpro calculation terminated
