
 Working directory              : /tmp/peterk/molpro.kYlsYem9bl/
 Global scratch directory       : /tmp/peterk/molpro.kYlsYem9bl/
 Wavefunction directory         : /home/peterk/wfu/
 Main file repository           : /tmp/peterk/molpro.kYlsYem9bl/

 id        : peterk

 Nodes     nprocs
 marat        1
 GA implementation: MPI file
 GA implementation (serial work in mppx): MPI file

 Using customized tuning parameters: mindgm=1; mindgv=20; mindgc=4; mindgr=1; noblas=0; minvec=7
 default implementation of scratch files=df  


 Variables initialized (1032), CPU time= 0.00 sec
 
 symmetry,nosym
 
 
 geometry={
            6
     F          0.00000000      0.00000000     -1.88993626
     C          0.00000000      0.00000000     -0.48156276
     H         -0.51236000      0.88743354     -0.12780248
     H         -0.51236000     -0.88743354     -0.12780248
     H          1.02471999      0.00000000     -0.12780248
     CL         0.00000000      0.00000000      2.75490646
 }
 basis=cc-pVQZ
 
 charge=-1
 
 hf; hf; papt; mp3
 
 
 
 {put,xml;noorbitals,nobasis}
 Commands initialized (841), CPU time= 0.00 sec, 708 directives.
 Default parameters read. Elapsed time= 0.05 sec

 Checking input...
 Passed
1


                                         ***  PROGRAM SYSTEM MOLPRO  ***
                                       Copyright, TTI GmbH Stuttgart, 2015
                                    Version 2023.1 linked Sat Jun 10 08:01:27 2023


 **********************************************************************************************************************************
 LABEL *                                                                                                                                                                 
  (16 PROC) 64 bit serial version                                                        DATE: 11-Jun-23          TIME: 16:00:14  
 **********************************************************************************************************************************

 SHA1:             8376d659ba1296ca7ee514c57770fe2c96af278c
 **********************************************************************************************************************************

 Memory per process:      1074 MW
 Total memory per node:   1074 MW

 GA preallocation disabled
 GA check disabled

 Variable memory set to 1073.7 MW

 ZSYMEL=NOSYM


 Geometry recognized as XYZ

 SETTING BASIS          =    CC-PVQZ
 SETTING CHARGE         =        -1.00000000                                  


 Recomputing integrals since basis changed


 Using spherical harmonics

 Library entry F      S cc-pVQZ              selected for orbital group  1
 Library entry F      P cc-pVQZ              selected for orbital group  1
 Library entry F      D cc-pVQZ              selected for orbital group  1
 Library entry F      F cc-pVQZ              selected for orbital group  1
 Library entry F      G cc-pVQZ              selected for orbital group  1
 Library entry C      S cc-pVQZ              selected for orbital group  2
 Library entry C      P cc-pVQZ              selected for orbital group  2
 Library entry C      D cc-pVQZ              selected for orbital group  2
 Library entry C      F cc-pVQZ              selected for orbital group  2
 Library entry C      G cc-pVQZ              selected for orbital group  2
 Library entry H      S cc-pVQZ              selected for orbital group  3
 Library entry H      P cc-pVQZ              selected for orbital group  3
 Library entry H      D cc-pVQZ              selected for orbital group  3
 Library entry H      F cc-pVQZ              selected for orbital group  3
 Library entry CL     S cc-pVQZ              selected for orbital group  4
 Library entry CL     P cc-pVQZ              selected for orbital group  4
 Library entry CL     D cc-pVQZ              selected for orbital group  4
 Library entry CL     F cc-pVQZ              selected for orbital group  4
 Library entry CL     G cc-pVQZ              selected for orbital group  4


 PROGRAM * SEWARD (Integral evaluation for generally contracted gaussian basis sets)     Author: Roland Lindh, 1990

 Geometry written to block  1 of record 700


 Point group  C1  



 ATOMIC COORDINATES

 NR  ATOM    CHARGE       X              Y              Z

   1  F       9.00    0.000000000    0.000000000   -3.571461924
   2  C       6.00    0.000000000    0.000000000   -0.910021728
   3  H       1.00   -0.968220077    1.677006344   -0.241511685
   4  H       1.00   -0.968220077   -1.677006344   -0.241511685
   5  H       1.00    1.936440136    0.000000000   -0.241511685
   6  CL     17.00    0.000000000    0.000000000    5.206018708

 Bond lengths in Bohr (Angstrom)

 1-2  2.661440196  2-3  2.048586360  2-4  2.048586360  2-5  2.048586360
     ( 1.408373500)     ( 1.084065216)     ( 1.084065216)     ( 1.084065216)

 Bond angles

  1-2-3  109.04601992   1-2-4  109.04601992   1-2-5  109.04601992   3-2-4  109.89305339

  3-2-5  109.89305420   4-2-5  109.89305420

 NUCLEAR CHARGE:                   35
 NUMBER OF PRIMITIVE AOS:         379
 NUMBER OF SYMMETRY AOS:          319
 NUMBER OF CONTRACTIONS:          259   (  259A   )
 NUMBER OF INNER CORE ORBITALS:     1   (    1A   )
 NUMBER OF OUTER CORE ORBITALS:     6   (    6A   )
 NUMBER OF VALENCE ORBITALS:       15   (   15A   )


 NUCLEAR REPULSION ENERGY   79.90971378


 Eigenvalues of metric

         1 0.129E-03 0.232E-03 0.280E-03 0.280E-03 0.398E-03 0.416E-03 0.416E-03 0.432E-03


 Contracted 2-electron integrals neglected if value below      1.0D-11
 AO integral compression algorithm  1   Integral accuracy      1.0D-11

     1435.501 MB (compressed) written to integral file ( 28.4%)


 NUMBER OF SORTED TWO-ELECTRON INTEGRALS:  566851285.     BUFFER LENGTH:  32768
 NUMBER OF SEGMENTS:  36  SEGMENT LENGTH:   15999762      RECORD LENGTH: 262144

 Memory used in sort:      16.29 MW

 SORT1 READ   632171288. AND WROTE   352582843. INTEGRALS IN   2037 RECORDS. CPU TIME:     6.33 SEC, REAL TIME:    14.31 SEC
 SORT2 READ   352582843. AND WROTE   566851285. INTEGRALS IN   5476 RECORDS. CPU TIME:     6.64 SEC, REAL TIME:    13.66 SEC

 FILE SIZES:   FILE 1:  1468.1 MBYTE,  FILE 4:  4272.0 MBYTE,   TOTAL:   5740.0 MBYTE

 OPERATOR DM      FOR CENTER  0  COORDINATES:    0.000000    0.000000    0.000000


 **********************************************************************************************************************************
 DATASETS  * FILE   NREC   LENGTH (MB)   RECORD NAMES
              1      19     1217.84       500      610      700      900      950      970     1000      129      960     1100   
                                          VAR    BASINP    GEOM    SYMINP    ZMAT    AOBASIS   BASIS     P2S    ABASIS      S 
                                         1400     1410     1200     1210     1080     1600     1650     1300     1700   
                                           T        V       H0       H01     AOSYM     SMH    MOLCAS    ERIS     OPER   

 PROGRAMS   *        TOTAL       INT
 CPU TIMES  *        28.97     28.85
 REAL TIME  *        46.36 SEC
 DISK USED  *         5.35 GB
 **********************************************************************************************************************************


 Program * Restricted Hartree-Fock

 Orbital guess generated from atomic densities. Full valence occupancy:   22

 Initial occupancy:  18

 NELEC=   36   SYM=1   MS2= 0   THRE=1.0D-08   THRD=3.2D-06   THRG=3.2D-06  HFMA2=F  DIIS_START=2   DIIS_MAX=10   DIIS_INCORE=F

 Level shifts:    0.00 (CLOSED)    0.00 (OPEN)    0.30 (GAP_MIN)

 ITER           ETOT              DE          GRAD        DDIFF     DIIS  NEXP   TIME(IT)  TIME(TOT)  DIAG
   1     -598.62598318    -598.62598318     0.00D+00     0.46D-01     0     0       3.17      6.14    start
   2     -598.68159189      -0.05560871     0.36D-02     0.68D-02     1     0       3.09      9.23    diag
   3     -598.69095257      -0.00936069     0.19D-02     0.23D-02     2     0       3.04     12.27    diag
   4     -598.69132804      -0.00037546     0.29D-03     0.35D-03     3     0       3.05     15.32    diag
   5     -598.69138148      -0.00005344     0.12D-03     0.15D-03     4     0       3.08     18.40    diag
   6     -598.69138502      -0.00000354     0.23D-04     0.35D-04     5     0       3.07     21.47    diag
   7     -598.69138515      -0.00000013     0.38D-05     0.86D-05     6     0       3.18     24.65    diag
   8     -598.69138515      -0.00000000     0.66D-06     0.12D-05     7     0       3.03     27.68    fixocc
   9     -598.69138515      -0.00000000     0.23D-06     0.29D-06     0     0       3.13     30.81    diag

 Final occupancy:  18

 !RHF STATE 1.1 Energy               -598.691385149807
  RHF One-electron energy            -995.286902905162
  RHF Two-electron energy             316.685803980302
  RHF Kinetic energy                  598.672401684721
  RHF Nuclear energy                   79.909713775053
  RHF Virial quotient                  -1.000031709270

 !RHF STATE 1.1 Dipole moment          -0.00000000     0.00000000    -3.91424998
 Dipole moment /Debye                  -0.00000000     0.00000000    -9.94903109

 Orbital energies:

           1.1          2.1          3.1          4.1          5.1          6.1          7.1          8.1          9.1         10.1
   -104.509225   -26.129866   -11.144655   -10.234264    -7.700670    -7.700647    -7.700647    -1.436556    -0.799653    -0.743006

          11.1         12.1         13.1         14.1         15.1         16.1         17.1         18.1         19.1         20.1
     -0.544969    -0.544969    -0.521760    -0.381295    -0.381295    -0.162504    -0.160844    -0.160844     0.262240     0.340323


 HOMO     18.1    -0.160844 =      -4.3768eV
 LUMO     19.1     0.262240 =       7.1359eV
 LUMO-HOMO         0.423084 =      11.5127eV

 Orbitals saved in record  2100.2


 **********************************************************************************************************************************
 DATASETS  * FILE   NREC   LENGTH (MB)   RECORD NAMES
              1      19     1217.84       500      610      700      900      950      970     1000      129      960     1100   
                                          VAR    BASINP    GEOM    SYMINP    ZMAT    AOBASIS   BASIS     P2S    ABASIS      S 
                                         1400     1410     1200     1210     1080     1600     1650     1300     1700   
                                           T        V       H0       H01     AOSYM     SMH    MOLCAS    ERIS     OPER   

              2       4        1.53       700     1000      520     2100   
                                         GEOM     BASIS   MCVARS     RHF  

 PROGRAMS   *        TOTAL    HF-SCF       INT
 CPU TIMES  *        59.79     30.81     28.85
 REAL TIME  *        79.62 SEC
 DISK USED  *         5.35 GB
 **********************************************************************************************************************************


 Program * Restricted Hartree-Fock

 Molecular orbitals read from record     2100.2  Type=RHF/CANONICAL  

 Initial occupancy:  18

 NELEC=   36   SYM=1   MS2= 0   THRE=1.0D-08   THRD=3.2D-06   THRG=3.2D-06  HFMA2=F  DIIS_START=2   DIIS_MAX=10   DIIS_INCORE=F

 Level shifts:    0.00 (CLOSED)    0.00 (OPEN)    0.30 (GAP_MIN)

 ITER           ETOT              DE          GRAD        DDIFF     DIIS  NEXP   TIME(IT)  TIME(TOT)  DIAG
   1     -598.69138515    -598.69138515     0.00D+00     0.45D-01     0     0       3.15      3.15    start
   2     -598.69138515      -0.00000000     0.10D-06     0.12D-06     1     0       3.12      6.27    diag

 Final occupancy:  18

 !RHF STATE 1.1 Energy               -598.691385149893
  RHF One-electron energy            -995.286892059295
  RHF Two-electron energy             316.685793134349
  RHF Kinetic energy                  598.672398657823
  RHF Nuclear energy                   79.909713775053
  RHF Virial quotient                  -1.000031714327

 !RHF STATE 1.1 Dipole moment          -0.00000000     0.00000000    -3.91423673
 Dipole moment /Debye                  -0.00000000     0.00000000    -9.94899741

 Orbital energies:

           1.1          2.1          3.1          4.1          5.1          6.1          7.1          8.1          9.1         10.1
   -104.509224   -26.129867   -11.144647   -10.234263    -7.700670    -7.700646    -7.700646    -1.436555    -0.799651    -0.743006

          11.1         12.1         13.1         14.1         15.1         16.1         17.1         18.1         19.1         20.1
     -0.544967    -0.544967    -0.521760    -0.381293    -0.381293    -0.162504    -0.160844    -0.160844     0.262240     0.340324


 HOMO     18.1    -0.160844 =      -4.3768eV
 LUMO     19.1     0.262240 =       7.1359eV
 LUMO-HOMO         0.423084 =      11.5127eV

 Orbitals saved in record  2101.2


 **********************************************************************************************************************************
 DATASETS  * FILE   NREC   LENGTH (MB)   RECORD NAMES
              1      19     1217.84       500      610      700      900      950      970     1000      129      960     1100   
                                          VAR    BASINP    GEOM    SYMINP    ZMAT    AOBASIS   BASIS     P2S    ABASIS      S 
                                         1400     1410     1200     1210     1080     1600     1650     1300     1700   
                                           T        V       H0       H01     AOSYM     SMH    MOLCAS    ERIS     OPER   

              2       5        3.43       700     1000      520     2100     2101   
                                         GEOM     BASIS   MCVARS     RHF      RHF  

 PROGRAMS   *        TOTAL    HF-SCF    HF-SCF       INT
 CPU TIMES  *        66.08      6.29     30.81     28.85
 REAL TIME  *        86.35 SEC
 DISK USED  *         5.35 GB
 **********************************************************************************************************************************


 PROGRAM * PAPT (Closed-shell)     Authors: C. Hampel, H.-J. Werner, 1991, P.J. Knowles, 2021


 Convergence thresholds:  THRVAR = 1.00D-08  THRDEN = 1.00D-06

 Number of core orbitals:           7 (   7 )
 Number of closed-shell orbitals:  11 (  11 )
 Number of external orbitals:     241 ( 241 )

 Molecular orbitals read from record     2101.2  Type=RHF/CANONICAL  

 Number of N-1 electron functions:              11
 Number of N-2 electron functions:              66
 Number of singly external CSFs:              2651
 Number of doubly external CSFs:           3515226
 Total number of CSFs:                     3517878

 Length of J-op  integral file:               0.00 MB
 Length of K-op  integral file:               4.67 MB

 Integral transformation finished. Total CPU:   6.82 sec, npass=  1  Memory used:   8.84 MW

 Reference energy:                   -598.69138515

                        CORR.ENERGY   TOTAL ENERGY   ENERGY CHANGE
 MP2:                   -0.69463928  -599.38602443    -0.69463928

 SCS-MP2 correlation energy:           -0.69389665   (PS=  1.200000  PT=  0.333333)
 SCS-MP2 total energy:               -599.38528180
 Iteration:   1     0.3055D+00
 Iteration:   2     0.3178D+00
 Iteration:   3     0.3083D+00
 Iteration:   4     0.2186D+00
 Iteration:   5     0.2403D+01
 Iteration:   6     0.3537D+00
 Iteration:   7     0.3970D+00
 Iteration:   8     0.2835D+00
 Iteration:   9     0.2096D+00
 Iteration:  10     0.3145D+00
 Iteration:  11     0.9228D-01
 Iteration:  12     0.2278D+00
 Iteration:  13     0.4639D-01
 Iteration:  14     0.2124D-01
 Iteration:  15     0.1154D+00
 Iteration:  16     0.5272D-02
 Iteration:  17     0.4106D-02
 Iteration:  18     0.6665D-02
 Iteration:  19     0.1664D-02
 Iteration:  20     0.1015D-01
 Iteration:  21     0.5407D-03
 Iteration:  22     0.3220D-03
 Iteration:  23     0.1028D-02
 Iteration:  24     0.6593D-04
 PAPT operator written to  7000.1
 PAPT orbitals and eigenvalues written to  7000.2

 MP3(D):                -0.72075348  -599.41213863    -0.02611420



 RESULTS
 =======

  Reference energy                   -598.691385149893
  MP3 singlet pair energy              -0.490676374509
  MP3 triplet pair energy              -0.230077106622
  MP3 correlation energy               -0.720753481131

 !MP3 total energy                   -599.412138631023

 Timing summary (sec):

 STEP                 CPU(USER)    SYS     CPU(TOT)    WALL
 Transformation          7.02      0.29      7.31      7.31
 CCSD iterations        96.59      0.42     97.01     30.97

 Program statistics:

 Available memory in ccsd:              1073741322
 Min. memory needed in ccsd:               9362003
 Max. memory used in ccsd:                12460109
 Max. memory used in cckext:               9425799 ( 1 integral passes)



 **********************************************************************************************************************************
 DATASETS  * FILE   NREC   LENGTH (MB)   RECORD NAMES
              1      21     1269.86       500      610      700      900      950      970     1000      129      960     1100   
                                          VAR    BASINP    GEOM    SYMINP    ZMAT    AOBASIS   BASIS     P2S    ABASIS      S 
                                         1400     1410     1200     1210     1080     1600     1650     1300     1700     1380   
                                           T        V       H0       H01     AOSYM     SMH    MOLCAS    ERIS     OPER     JKOP   
                                         7000   
                                        PAPT AO    

              2       6        5.07       700     1000      520     2100     2101     7000   
                                         GEOM     BASIS   MCVARS     RHF      RHF     PAPT   

 PROGRAMS   *        TOTAL      PAPT    HF-SCF    HF-SCF       INT
 CPU TIMES  *       103.26     37.18      6.29     30.81     28.85
 REAL TIME  *       124.74 SEC
 DISK USED  *         5.35 GB
 **********************************************************************************************************************************


 PROGRAM * MP3 (Closed-shell)     Authors: C. Hampel, H.-J. Werner, 1991, M. Deegan, P.J. Knowles, 1992


 Convergence thresholds:  THRVAR = 1.00D-08  THRDEN = 1.00D-06

 Number of core orbitals:           7 (   7 )
 Number of closed-shell orbitals:  11 (  11 )
 Number of external orbitals:     241 ( 241 )

 Molecular orbitals read from record     7000.2  Type=PAPT/CANONICAL (state 1.1)

 Number of N-1 electron functions:              11
 Number of N-2 electron functions:              66
 Number of singly external CSFs:              2651
 Number of doubly external CSFs:           3515226
 Total number of CSFs:                     3517878

 Length of J-op  integral file:               0.00 MB
 Length of K-op  integral file:               4.67 MB

 Integral transformation finished. Total CPU:   7.10 sec, npass=  1  Memory used:   8.84 MW
 Orbital energies read from record       7000.2  Type=PAPT/CANONICAL (state 1.1)

 Reference energy:                   -598.69138515

                        CORR.ENERGY   TOTAL ENERGY   ENERGY CHANGE
 MP2:                   -0.72784129  -599.41922644    -0.72784129

 SCS-MP2 correlation energy:           -0.72926949   (PS=  1.200000  PT=  0.333333)
 SCS-MP2 total energy:               -599.42065464

 MP3(D):                -0.72775082  -599.41913597     0.00009048



 RESULTS
 =======

  Reference energy                   -598.691385149892
  MP3 singlet pair energy              -0.497602517086
  MP3 triplet pair energy              -0.230148298302
  MP3 correlation energy               -0.727750815388

 !MP3 total energy                   -599.419135965281

 Timing summary (sec):

 STEP                 CPU(USER)    SYS     CPU(TOT)    WALL
 Transformation         10.54      0.46     11.00     11.19
 CCSD iterations       119.80      0.22    120.02     16.66

 Program statistics:

 Available memory in ccsd:              1073741322
 Min. memory needed in ccsd:               9362003
 Max. memory used in ccsd:                12460109
 Max. memory used in cckext:               9425799 ( 1 integral passes)



 **********************************************************************************************************************************
 DATASETS  * FILE   NREC   LENGTH (MB)   RECORD NAMES
              1      21     1269.86       500      610      700      900      950      970     1000      129      960     1100   
                                          VAR    BASINP    GEOM    SYMINP    ZMAT    AOBASIS   BASIS     P2S    ABASIS      S 
                                         1400     1410     1200     1210     1080     1600     1650     1300     1700     1380   
                                           T        V       H0       H01     AOSYM     SMH    MOLCAS    ERIS     OPER     JKOP   
                                         7000   
                                        PAPT AO    

              2       6        5.07       700     1000      520     2100     2101     7000   
                                         GEOM     BASIS   MCVARS     RHF      RHF     PAPT   

 PROGRAMS   *        TOTAL       MP3      PAPT    HF-SCF    HF-SCF       INT
 CPU TIMES  *       129.99     26.73     37.18      6.29     30.81     28.85
 REAL TIME  *       152.71 SEC
 DISK USED  *         5.35 GB
 **********************************************************************************************************************************

 Dump information in style XML to xml output                                                                      

 Orbitals will not be exported.

 **********************************************************************************************************************************

 MP3/cc-pVQZ energy=   -599.419135965281

             MP3            PAPT          HF-SCF          HF-SCF
   -599.41913597   -599.41213863   -598.69138515   -598.69138515
 **********************************************************************************************************************************
 Molpro calculation terminated
