
 Working directory              : /var/folders/2v/xbgp75_9785319ghcgb4zr4r0000gp/T//molpro.U2OsA89JXr/
 Global scratch directory       : /var/folders/2v/xbgp75_9785319ghcgb4zr4r0000gp/T//molpro.U2OsA89JXr/
 Wavefunction directory         : /Users/sacpjk/wfu/
 Main file repository           : /var/folders/2v/xbgp75_9785319ghcgb4zr4r0000gp/T//molpro.U2OsA89JXr/

 id        : peterk

 Nodes                        nprocs
 Cardiff-University-G34YLXT77Y    1
 GA implementation: MPI file
 GA implementation (serial work in mppx): MPI file

 Using customized tuning parameters: mindgm=1; mindgv=20; mindgc=4; mindgr=1; noblas=0; minvec=7
 default implementation of scratch files=df  


 Variables initialized (1032), CPU time= 0.00 sec
 
 symmetry,nosym
 
 
 geometry={
            2
     S          0.00000000      0.00000000      0.67010165
     H          0.00000000      0.00000000     -0.67010165
 }
 basis=cc-pVDZ
 
 
 spin=1
 uhf
 
 
 
 {put,xml;noorbitals,nobasis}
 Commands initialized (841), CPU time= 0.00 sec, 704 directives.
 Default parameters read. Elapsed time= 0.12 sec

 Checking input...
 Passed
1


                                         ***  PROGRAM SYSTEM MOLPRO  ***
                                       Copyright, TTI GmbH Stuttgart, 2015
                                    Version 2023.1 linked Tue Jun  6 09:54:11 2023


 **********************************************************************************************************************************
 LABEL *                                                                                                                                                                 
  64 bit serial version                                                                  DATE: 09-Jun-23          TIME: 09:27:59  
 **********************************************************************************************************************************

 SHA1:             8ebb0dd001088a5c915591db1a321413035db0b1
 **********************************************************************************************************************************

 Memory per process:       805 MW
 Total memory per node:   1074 MW
 Total GA space:           268 MW

 GA preallocation disabled
 GA check enabled

 Variable memory set to 805.3 MW

 ZSYMEL=NOSYM


 Geometry recognized as XYZ

 SETTING BASIS          =    CC-PVDZ
 SETTING SPIN           =         1.00000000                                  


 Recomputing integrals since basis changed


 Using spherical harmonics

 Library entry S      S cc-pVDZ              selected for orbital group  1
 Library entry S      P cc-pVDZ              selected for orbital group  1
 Library entry S      D cc-pVDZ              selected for orbital group  1
 Library entry H      S cc-pVDZ              selected for orbital group  2
 Library entry H      P cc-pVDZ              selected for orbital group  2


 PROGRAM * SEWARD (Integral evaluation for generally contracted gaussian basis sets)     Author: Roland Lindh, 1990

 Geometry written to block  1 of record 700


 Point group  C1  



 ATOMIC COORDINATES

 NR  ATOM    CHARGE       X              Y              Z

   1  S      16.00    0.000000000    0.000000000    1.266308594
   2  H       1.00    0.000000000    0.000000000   -1.266308594

 Bond lengths in Bohr (Angstrom)

 1-2  2.532617188
     ( 1.340203300)

 NUCLEAR CHARGE:                   17
 NUMBER OF PRIMITIVE AOS:          49
 NUMBER OF SYMMETRY AOS:           48
 NUMBER OF CONTRACTIONS:           23   (   23A   )
 NUMBER OF INNER CORE ORBITALS:     1   (    1A   )
 NUMBER OF OUTER CORE ORBITALS:     4   (    4A   )
 NUMBER OF VALENCE ORBITALS:        5   (    5A   )


 NUCLEAR REPULSION ENERGY    6.31757538

 EXTRA SYMMETRY OF AOS IN SYMMETRY 1:   1 1 1 1 2 3 1 2 3 1   2 3 1 1 4 2 5 3 1 1   2 3 1

 Eigenvalues of metric

         1 0.206E-01 0.619E-01 0.937E-01 0.103E+00 0.103E+00 0.146E+00 0.648E+00 0.648E+00


 Contracted 2-electron integrals neglected if value below      1.0D-11
 AO integral compression algorithm  1   Integral accuracy      1.0D-11

     0.262 MB (compressed) written to integral file ( 41.9%)


 NUMBER OF SORTED TWO-ELECTRON INTEGRALS:      38226.     BUFFER LENGTH:  32768
 NUMBER OF SEGMENTS:   1  SEGMENT LENGTH:      38226      RECORD LENGTH: 524288

 Memory used in sort:       0.60 MW

 SORT1 READ       52420. AND WROTE        8381. INTEGRALS IN      1 RECORDS. CPU TIME:     0.01 SEC, REAL TIME:     0.00 SEC
 SORT2 READ        8381. AND WROTE       38226. INTEGRALS IN      1 RECORDS. CPU TIME:     0.00 SEC, REAL TIME:     0.00 SEC

 FILE SIZES:   FILE 1:    30.3 MBYTE,  FILE 4:     4.3 MBYTE,   TOTAL:     34.5 MBYTE

 OPERATOR DM      FOR CENTER  0  COORDINATES:    0.000000    0.000000    0.000000


 **********************************************************************************************************************************
 DATASETS  * FILE   NREC   LENGTH (MB)   RECORD NAMES
              1      19       28.69       500      610      700      900      950      970     1000      129      960     1100   
                                          VAR    BASINP    GEOM    SYMINP    ZMAT    AOBASIS   BASIS     P2S    ABASIS      S 
                                         1400     1410     1200     1210     1080     1600     1650     1300     1700   
                                           T        V       H0       H01     AOSYM     SMH    MOLCAS    ERIS     OPER   

 PROGRAMS   *        TOTAL       INT
 CPU TIMES  *         0.16      0.08
 REAL TIME  *         0.56 SEC
 DISK USED  *        33.27 MB
 **********************************************************************************************************************************


 Program * Unrestricted Hartree-Fock

 Orbital guess generated from atomic densities. Full valence occupancy:   10

 Initial alpha occupancy:   9
 Initial beta  occupancy:   8

 Elapsed time for starting guess:      0.00 sec

 NELEC=   17   SYM=1   MS2=1   THRE=1.0D-08   THRD=3.2D-06   THRG=3.2D-06  HFMA2=F  DIIS_START=2   DIIS_MAX=10   DIIS_INCORE=F

 Initial level shifts:    0.20 (ALPHA)    0.20 (BETA)

 ITER         ETOT            DE          GRAD         DDIFF    DIIS  NEXP   TIME(IT)  TIME(TOT)  DIAG
   1   -398.07521292  -398.07521292     0.00D+00     0.00D+00     0     0       0.00      0.00    start
   2   -398.08715777    -0.01194485     0.80D-02     0.33D+00     1     0       0.00      0.00    diag
   3   -398.08863577    -0.00147801     0.25D-02     0.17D-01     2     0       0.00      0.00    diag
   4   -398.08892272    -0.00028694     0.98D-03     0.45D-02     3     0       0.00      0.00    diag
   5   -398.08895011    -0.00002739     0.30D-03     0.22D-02     4     0       0.00      0.00    diag
   6   -398.08895262    -0.00000251     0.80D-04     0.71D-03     5     0       0.00      0.00    diag
   7   -398.08895283    -0.00000020     0.22D-04     0.22D-03     6     0       0.00      0.00    diag
   8   -398.08895284    -0.00000002     0.64D-05     0.59D-04     6     0       0.01      0.01    diag
   9   -398.08895284    -0.00000000     0.14D-05     0.14D-04     6     0       0.00      0.01    diag
  10   -398.08895284    -0.00000000     0.39D-06     0.33D-05     6     0       0.00      0.01    diag/ort

 Final alpha occupancy:   9
 Final beta  occupancy:   8

 !UHF STATE 1.1 Energy               -398.088952843258
  UHF One-electron energy            -562.732895538950
  UHF Two-electron energy             158.326367314070
  UHF Kinetic energy                  398.082292249371
  UHF Nuclear energy                    6.317575381622
  UHF Virial quotient                  -1.000016731701

 !UHF STATE 1.1 Dipole moment           0.00000000    -0.00000000    -0.40626210
 Dipole moment /Debye                   0.00000000    -0.00000000    -1.03261525

 EXPECTATION VALUE OF S**2:             0.75885290

 Orbital energies for positive spin:

           1.1          2.1          3.1          4.1          5.1          6.1          7.1          8.1          9.1         10.1
    -91.985456    -8.986786    -6.682451    -6.664700    -6.661272    -0.985414    -0.547195    -0.463774    -0.397656     0.159402

          11.1
      0.465402

 Orbital energies for negative spin:

           1.1          2.1          3.1          4.1          5.1          6.1          7.1          8.1          9.1         10.1
    -91.976502    -8.976971    -6.659704    -6.656215    -6.642534    -0.892427    -0.526975    -0.374124     0.015641     0.172008


 HOMO     -8.1    -0.374124 =     -10.1804eV
 LUMO     -9.1     0.015641 =       0.4256eV
 LUMO-HOMO         0.389765 =      10.6060eV

 Orbitals saved in record  2200.2

 Occupation number threshold for pseudo-canonical orbitals: 1.9990 (occupied), 0.0010 (virtual)

 Number of pseudo-canonical occupied orbitals per symmetry:    7
 Number of active natural orbitals per symmetry:               3

 Natural orbitals saved to record    2200.2 (Orbital set 3)

 Orbital spaces for UNO-CAS (Min. occupation: 0.020  Max. occupation: 1.980):

 Closed:        8
 Active:        1


 **********************************************************************************************************************************
 DATASETS  * FILE   NREC   LENGTH (MB)   RECORD NAMES
              1      19       28.69       500      610      700      900      950      970     1000      129      960     1100   
                                          VAR    BASINP    GEOM    SYMINP    ZMAT    AOBASIS   BASIS     P2S    ABASIS      S 
                                         1400     1410     1200     1210     1080     1600     1650     1300     1700   
                                           T        V       H0       H01     AOSYM     SMH    MOLCAS    ERIS     OPER   

              2       4        0.42       700     1000      520     2200   
                                         GEOM     BASIS   MCVARS     UHF  

              4       3        0.16      2900     3000     3100   

 PROGRAMS   *        TOTAL   UHF-SCF       INT
 CPU TIMES  *         0.17      0.01      0.08
 REAL TIME  *         0.74 SEC
 DISK USED  *        33.27 MB
 **********************************************************************************************************************************

 Dump information in style XML to xml output                                                                      

 Orbitals will not be exported.

 **********************************************************************************************************************************

 UHF/cc-pVDZ energy=   -398.088952843258

         UHF-SCF
   -398.08895284
 **********************************************************************************************************************************
 Molpro calculation terminated
