
 Working directory              : /var/folders/2v/xbgp75_9785319ghcgb4zr4r0000gp/T//molpro.HkXRzBzgHK/
 Global scratch directory       : /var/folders/2v/xbgp75_9785319ghcgb4zr4r0000gp/T//molpro.HkXRzBzgHK/
 Wavefunction directory         : /Users/sacpjk/wfu/
 Main file repository           : /var/folders/2v/xbgp75_9785319ghcgb4zr4r0000gp/T//molpro.HkXRzBzgHK/

 id        : peterk

 Nodes                        nprocs
 Cardiff-University-G34YLXT77Y    1
 GA implementation: MPI file
 GA implementation (serial work in mppx): MPI file

 Using customized tuning parameters: mindgm=1; mindgv=20; mindgc=4; mindgr=1; noblas=0; minvec=7
 default implementation of scratch files=df  


 Variables initialized (1032), CPU time= 0.00 sec
 
 symmetry,nosym
 
 
 geometry={
 7
  n          0.417200135251   -0.477271134948   -0.662731774095
  h          0.321512727175   -1.446102175141   -0.386878863336
  h         -0.171939531839   -0.363837067214   -1.477491632290
  c         -0.066245324842    0.390808478814    0.417645924696
  h          0.037904429088    1.427874118971    0.109793626562
  h         -1.104073161745    0.217404506673    0.708776063553
  h          0.565640726860    0.251123272951    1.290886655016
 }
 basis=aug-cc-pVTZ
 
 
 
 hf; ccsd(t)
 
 
 
 {put,xml;noorbitals,nobasis}
 Commands initialized (841), CPU time= 0.00 sec, 704 directives.
 Default parameters read. Elapsed time= 1.07 sec

 Checking input...
 Passed
1


                                         ***  PROGRAM SYSTEM MOLPRO  ***
                                       Copyright, TTI GmbH Stuttgart, 2015
                                    Version 2023.1 linked Tue Jun  6 09:54:11 2023


 **********************************************************************************************************************************
 LABEL *                                                                                                                                                                 
  64 bit serial version                                                                  DATE: 09-Jun-23          TIME: 02:28:06  
 **********************************************************************************************************************************

 SHA1:             8ebb0dd001088a5c915591db1a321413035db0b1
 **********************************************************************************************************************************

 Memory per process:       805 MW
 Total memory per node:   1074 MW
 Total GA space:           268 MW

 GA preallocation disabled
 GA check enabled

 Variable memory set to 805.3 MW

 ZSYMEL=NOSYM


 Geometry recognized as XYZ

 SETTING BASIS          =    AUG-CC-PVTZ


 Recomputing integrals since basis changed


 Using spherical harmonics

 Library entry N      S aug-cc-pVTZ          selected for orbital group  1
 Library entry N      P aug-cc-pVTZ          selected for orbital group  1
 Library entry N      D aug-cc-pVTZ          selected for orbital group  1
 Library entry N      F aug-cc-pVTZ          selected for orbital group  1
 Library entry H      S aug-cc-pVTZ          selected for orbital group  2
 Library entry H      P aug-cc-pVTZ          selected for orbital group  2
 Library entry H      D aug-cc-pVTZ          selected for orbital group  2
 Library entry C      S aug-cc-pVTZ          selected for orbital group  3
 Library entry C      P aug-cc-pVTZ          selected for orbital group  3
 Library entry C      D aug-cc-pVTZ          selected for orbital group  3
 Library entry C      F aug-cc-pVTZ          selected for orbital group  3


 PROGRAM * SEWARD (Integral evaluation for generally contracted gaussian basis sets)     Author: Roland Lindh, 1990

 Geometry written to block  1 of record 700


 Point group  C1  



 ATOMIC COORDINATES

 NR  ATOM    CHARGE       X              Y              Z

   1  N       7.00    0.788393995   -0.901911732   -1.252381547
   2  H       1.00    0.607571000   -2.732737059   -0.731095095
   3  H       1.00   -0.324918625   -0.687552411   -2.792054536
   4  C       6.00   -0.125185521    0.738520992    0.789236415
   5  H       1.00    0.071628990    2.698291025    0.207479884
   6  H       1.00   -2.086395897    0.410834976    1.339392644
   7  H       1.00    1.068906059    0.474554209    2.439422236

 Bond lengths in Bohr (Angstrom)

 1-2  1.912160532  1-3  1.912068990  1-4  2.773779183  4-5  2.053746624  4-6  2.063103522
     ( 1.011871777)     ( 1.011823335)     ( 1.467820732)     ( 1.086795910)     ( 1.091747367)

 4-7  2.053934373
     ( 1.086895263)

 Bond angles

  1-4-5  108.92232449   1-4-6  114.54691082   1-4-7  108.89704666   2-1-3  105.77144000

  2-1-4  109.53896727   3-1-4  109.54911814   5-4-6  108.55407821   5-4-7  107.12795867

  6-4-7  108.54184764

 NUCLEAR CHARGE:                   18
 NUMBER OF PRIMITIVE AOS:         269
 NUMBER OF SYMMETRY AOS:          241
 NUMBER OF CONTRACTIONS:          207   (  207A   )
 NUMBER OF INNER CORE ORBITALS:     0   (    0A   )
 NUMBER OF OUTER CORE ORBITALS:     2   (    2A   )
 NUMBER OF VALENCE ORBITALS:       13   (   13A   )


 NUCLEAR REPULSION ENERGY   42.04336543

 Eigenvalues of metric

         1 0.387E-04 0.623E-04 0.643E-04 0.137E-03 0.161E-03 0.251E-03 0.393E-03 0.659E-03


 Contracted 2-electron integrals neglected if value below      1.0D-12
 AO integral compression algorithm  1   Integral accuracy      1.0D-12

     1342.964 MB (compressed) written to integral file ( 62.8%)


 NUMBER OF SORTED TWO-ELECTRON INTEGRALS:  231738156.     BUFFER LENGTH:  32768
 NUMBER OF SEGMENTS:  15  SEGMENT LENGTH:   15999503      RECORD LENGTH: 524288

 Memory used in sort:      16.56 MW

 SORT1 READ   267401021. AND WROTE   230448915. INTEGRALS IN    665 RECORDS. CPU TIME:     1.91 SEC, REAL TIME:     2.77 SEC
 SORT2 READ   230448915. AND WROTE   231738156. INTEGRALS IN   5123 RECORDS. CPU TIME:     1.52 SEC, REAL TIME:     2.11 SEC

 FILE SIZES:   FILE 1:  1374.7 MBYTE,  FILE 4:  2789.3 MBYTE,   TOTAL:   4163.9 MBYTE

 OPERATOR DM      FOR CENTER  0  COORDINATES:    0.000000    0.000000    0.000000


 **********************************************************************************************************************************
 DATASETS  * FILE   NREC   LENGTH (MB)   RECORD NAMES
              1      19     1166.55       500      610      700      900      950      970     1000      129      960     1100   
                                          VAR    BASINP    GEOM    SYMINP    ZMAT    AOBASIS   BASIS     P2S    ABASIS      S 
                                         1400     1410     1200     1210     1080     1600     1650     1300     1700   
                                           T        V       H0       H01     AOSYM     SMH    MOLCAS    ERIS     OPER   

 PROGRAMS   *        TOTAL       INT
 CPU TIMES  *         8.47      8.38
 REAL TIME  *        19.94 SEC
 DISK USED  *         3.88 GB
 **********************************************************************************************************************************


 Program * Restricted Hartree-Fock

 Orbital guess generated from atomic densities. Full valence occupancy:   15

 Initial occupancy:   9

 NELEC=   18   SYM=1   MS2= 0   THRE=1.0D-08   THRD=3.2D-06   THRG=3.2D-06  HFMA2=F  DIIS_START=2   DIIS_MAX=10   DIIS_INCORE=F

 Level shifts:    0.00 (CLOSED)    0.00 (OPEN)    0.30 (GAP_MIN)

 ITER           ETOT              DE          GRAD        DDIFF     DIIS  NEXP   TIME(IT)  TIME(TOT)  DIAG
   1      -95.22551081     -95.22551081     0.00D+00     0.41D-01     0     0       1.16      2.25    start
   2      -95.25114326      -0.02563245     0.37D-02     0.43D-02     1     0       1.19      3.44    diag
   3      -95.25490970      -0.00376643     0.16D-02     0.12D-02     2     0       1.25      4.69    diag
   4      -95.25543023      -0.00052054     0.46D-03     0.42D-03     3     0       1.22      5.91    diag
   5      -95.25545666      -0.00002643     0.90D-04     0.79D-04     4     0       1.11      7.02    diag
   6      -95.25545839      -0.00000173     0.22D-04     0.24D-04     5     0       1.14      8.16    diag
   7      -95.25545852      -0.00000013     0.60D-05     0.64D-05     6     0       1.18      9.34    diag
   8      -95.25545853      -0.00000002     0.16D-05     0.27D-05     7     0       1.14     10.48    fixocc
   9      -95.25545853      -0.00000000     0.41D-06     0.78D-06     8     0       1.26     11.74    diag
  10      -95.25545853      -0.00000000     0.89D-07     0.90D-07     0     0       1.19     12.93    diag/orth

 Final occupancy:   9

 !RHF STATE 1.1 Energy                -95.255458532236
  RHF One-electron energy            -211.441016177667
  RHF Two-electron energy              74.142192211124
  RHF Kinetic energy                   95.124589078711
  RHF Nuclear energy                   42.043365434307
  RHF Virial quotient                  -1.001375768924

 !RHF STATE 1.1 Dipole moment          -0.54158328    -0.13229616     0.11396928
 Dipole moment /Debye                  -1.37656740    -0.33626329     0.28968102

 Orbital energies:

           1.1          2.1          3.1          4.1          5.1          6.1          7.1          8.1          9.1         10.1
    -15.539843   -11.240286    -1.169700    -0.896712    -0.661339    -0.603920    -0.555672    -0.517236    -0.393607     0.029471

          11.1
      0.042843


 HOMO      9.1    -0.393607 =     -10.7106eV
 LUMO     10.1     0.029471 =       0.8019eV
 LUMO-HOMO         0.423078 =      11.5125eV

 Orbitals saved in record  2100.2


 **********************************************************************************************************************************
 DATASETS  * FILE   NREC   LENGTH (MB)   RECORD NAMES
              1      19     1166.55       500      610      700      900      950      970     1000      129      960     1100   
                                          VAR    BASINP    GEOM    SYMINP    ZMAT    AOBASIS   BASIS     P2S    ABASIS      S 
                                         1400     1410     1200     1210     1080     1600     1650     1300     1700   
                                           T        V       H0       H01     AOSYM     SMH    MOLCAS    ERIS     OPER   

              2       4        1.16       700     1000      520     2100   
                                         GEOM     BASIS   MCVARS     RHF  

 PROGRAMS   *        TOTAL    HF-SCF       INT
 CPU TIMES  *        21.40     12.93      8.38
 REAL TIME  *        36.95 SEC
 DISK USED  *         3.88 GB
 **********************************************************************************************************************************


 PROGRAM * CCSD (Closed-shell coupled cluster)     Authors: C. Hampel, H.-J. Werner, 1991, M. Deegan, P.J. Knowles, 1992


 Convergence thresholds:  THRVAR = 1.00D-08  THRDEN = 1.00D-06

 CCSD(T)     terms to be evaluated (factor= 1.000)


 Number of core orbitals:           2 (   2 )
 Number of closed-shell orbitals:   7 (   7 )
 Number of external orbitals:     198 ( 198 )

 Molecular orbitals read from record     2100.2  Type=RHF/CANONICAL  

 Number of N-1 electron functions:               7
 Number of N-2 electron functions:              28
 Number of singly external CSFs:              1386
 Number of doubly external CSFs:            961191
 Total number of CSFs:                      962578

 Length of J-op  integral file:               0.00 MB
 Length of K-op  integral file:               3.00 MB
 Length of 3-ext integral record:             0.00 MB

 Memory could be reduced to 76.69 Mwords without degradation in triples

 Integral transformation finished. Total CPU:   4.36 sec, npass=  1  Memory used:  38.60 MW

 Reference energy:                    -95.25545853

 MP2 singlet pair energy:              -0.27689269
 MP2 triplet pair energy:              -0.13479536
 MP2 correlation energy:               -0.41168805
 MP2 total energy:                    -95.66714658

 SCS-MP2 correlation energy:           -0.41614389   (PS=  1.200000  PT=  0.333333)
 SCS-MP2 total energy:                -95.67160243

 ITER.      SQ.NORM     CORR.ENERGY   TOTAL ENERGY   ENERGY CHANGE        DEN1      VAR(S)    VAR(P)  DIIS     TIME  TIME/IT
   1      1.12866107    -0.43327942   -95.68873796    -0.02159138    -0.01170620  0.11D-02  0.19D-02  1  1    28.69     3.25
   2      1.13730995    -0.43488393   -95.69034246    -0.00160451    -0.00942215  0.23D-04  0.20D-03  2  2    32.04     3.59
   3      1.14004460    -0.43495919   -95.69041773    -0.00007526    -0.00179260  0.73D-05  0.11D-04  3  3    35.02     3.52
   4      1.14077216    -0.43498016   -95.69043869    -0.00002097    -0.00031365  0.98D-06  0.84D-06  4  4    37.99     3.50
   5      1.14091405    -0.43497901   -95.69043754     0.00000115    -0.00004444  0.23D-06  0.94D-07  5  5    41.07     3.51
   6      1.14095488    -0.43497671   -95.69043524     0.00000230    -0.00000829  0.46D-07  0.11D-07  6  6    44.21     3.52
   7      1.14096520    -0.43497628   -95.69043482     0.00000042    -0.00000050  0.80D-08  0.22D-08  6  2    47.13     3.51
   8      1.14096996    -0.43497608   -95.69043461     0.00000020    -0.00000052  0.13D-08  0.34D-09  6  1    50.16     3.52

 Norm of t1 vector:      0.04553509      S-energy:    -0.00000012      T1 diagnostic:  0.00860532
                                                                       D1 diagnostic:  0.02012316
                                                                       D2 diagnostic:  0.14028483 (internal)


 Total CPU time for triples:     34.97 sec


 RESULTS
 =======

  Reference energy                    -95.255458532236
  CCSD singlet pair energy             -0.310648321744
  CCSD triplet pair energy             -0.124327640614
  CCSD correlation energy              -0.434976080253

  Triples (T) contribution             -0.015642435872
  Total correlation energy             -0.450618516125

  CCSD total energy                   -95.690434612490
  CCSD[T] energy                      -95.706467316977
  CCSD-T energy                       -95.705885364726
 !CCSD(T) total energy                -95.706077048361

 Timing summary (sec):

 STEP                 CPU(USER)    SYS     CPU(TOT)    WALL
 Transformation          4.39      0.48      4.87      5.48
 CCSD iterations        45.79      2.06     47.85     28.94
 Triples                34.97      1.23     36.20     38.05

 Program statistics:

 Available memory in ccsd:               805306163
 Min. memory needed in ccsd:               3040312
 Max. memory used in ccsd:                 3839467
 Max. memory used in cckext:               2736135 ( 8 integral passes)



 **********************************************************************************************************************************
 DATASETS  * FILE   NREC   LENGTH (MB)   RECORD NAMES
              1      20     1389.29       500      610      700      900      950      970     1000      129      960     1100   
                                          VAR    BASINP    GEOM    SYMINP    ZMAT    AOBASIS   BASIS     P2S    ABASIS      S 
                                         1400     1410     1200     1210     1080     1600     1650     1300     1700     1380   
                                           T        V       H0       H01     AOSYM     SMH    MOLCAS    ERIS     OPER     JKOP   

              2       4        1.16       700     1000      520     2100   
                                         GEOM     BASIS   MCVARS     RHF  

 PROGRAMS   *        TOTAL   CCSD(T)    HF-SCF       INT
 CPU TIMES  *        85.04     63.63     12.93      8.38
 REAL TIME  *       110.30 SEC
 DISK USED  *         3.88 GB
 **********************************************************************************************************************************

 Dump information in style XML to xml output                                                                      

 Orbitals will not be exported.

 **********************************************************************************************************************************

 CCSD(T)/aug-cc-pVTZ energy=    -95.706077048361

         CCSD(T)          HF-SCF
    -95.70607705    -95.25545853
 **********************************************************************************************************************************
 Molpro calculation terminated
