
 Working directory              : /var/folders/2v/xbgp75_9785319ghcgb4zr4r0000gp/T//molpro.gAsus16lZu/
 Global scratch directory       : /var/folders/2v/xbgp75_9785319ghcgb4zr4r0000gp/T//molpro.gAsus16lZu/
 Wavefunction directory         : /Users/sacpjk/wfu/
 Main file repository           : /var/folders/2v/xbgp75_9785319ghcgb4zr4r0000gp/T//molpro.gAsus16lZu/

 id        : peterk

 Nodes                        nprocs
 Cardiff-University-G34YLXT77Y    1
 GA implementation: MPI file
 GA implementation (serial work in mppx): MPI file

 Using customized tuning parameters: mindgm=1; mindgv=20; mindgc=4; mindgr=1; noblas=0; minvec=7
 default implementation of scratch files=df  


 Variables initialized (1032), CPU time= 0.01 sec
 
 symmetry,nosym
 
 
 geometry={
 3
  o         -0.394082748698   -0.001796598617    0.000000000000
  h          0.200480755102   -0.755097156792    0.000000000000
  h          0.193601993543    0.756893755462    0.000000000000
 }
 basis=aug-cc-pVDZ
 
 
 
 hf; ccsd
 
 
 
 {put,xml;noorbitals,nobasis}
 Commands initialized (841), CPU time= 0.00 sec, 704 directives.
 Default parameters read. Elapsed time= 0.08 sec

 Checking input...
 Passed
1


                                         ***  PROGRAM SYSTEM MOLPRO  ***
                                       Copyright, TTI GmbH Stuttgart, 2015
                                    Version 2023.1 linked Tue Jun  6 09:54:11 2023


 **********************************************************************************************************************************
 LABEL *                                                                                                                                                                 
  64 bit serial version                                                                  DATE: 08-Jun-23          TIME: 21:52:42  
 **********************************************************************************************************************************

 SHA1:             8ebb0dd001088a5c915591db1a321413035db0b1
 **********************************************************************************************************************************

 Memory per process:       805 MW
 Total memory per node:   1074 MW
 Total GA space:           268 MW

 GA preallocation disabled
 GA check enabled

 Variable memory set to 805.3 MW

 ZSYMEL=NOSYM


 Geometry recognized as XYZ

 SETTING BASIS          =    AUG-CC-PVDZ


 Recomputing integrals since basis changed


 Using spherical harmonics

 Library entry O      S aug-cc-pVDZ          selected for orbital group  1
 Library entry O      P aug-cc-pVDZ          selected for orbital group  1
 Library entry O      D aug-cc-pVDZ          selected for orbital group  1
 Library entry H      S aug-cc-pVDZ          selected for orbital group  2
 Library entry H      P aug-cc-pVDZ          selected for orbital group  2


 PROGRAM * SEWARD (Integral evaluation for generally contracted gaussian basis sets)     Author: Roland Lindh, 1990

 Geometry written to block  1 of record 700


 Point group  C1  



 ATOMIC COORDINATES

 NR  ATOM    CHARGE       X              Y              Z

   1  O       8.00   -0.744708465   -0.003395079    0.000000000
   2  H       1.00    0.378853720   -1.426926824    0.000000000
   3  H       1.00    0.365854745    1.430321903    0.000000000

 Bond lengths in Bohr (Angstrom)

 1-2  1.813514437  1-3  1.813531094
     ( 0.959670512)     ( 0.959679326)

 Bond angles

  2-1-3  103.95523305

 NUCLEAR CHARGE:                   10
 NUMBER OF PRIMITIVE AOS:          59
 NUMBER OF SYMMETRY AOS:           57
 NUMBER OF CONTRACTIONS:           41   (   41A   )
 NUMBER OF INNER CORE ORBITALS:     0   (    0A   )
 NUMBER OF OUTER CORE ORBITALS:     1   (    1A   )
 NUMBER OF VALENCE ORBITALS:        6   (    6A   )


 NUCLEAR REPULSION ENERGY    9.17259116

 EXTRA SYMMETRY OF AOS IN SYMMETRY 1:   1 1 1 1 1 1 2 1 1 2   1 1 2 1 1 2 1 2 1 1   2 1 2 1 1 1 1 1 2 1   1 2 1 1 1 1 1 2 1 1
                                        2

 Eigenvalues of metric

         1 0.296E-02 0.296E-02 0.113E-01 0.163E-01 0.249E-01 0.352E-01 0.760E-01 0.909E-01


 Contracted 2-electron integrals neglected if value below      1.0D-11
 AO integral compression algorithm  1   Integral accuracy      1.0D-11

     1.573 MB (compressed) written to integral file ( 36.9%)


 NUMBER OF SORTED TWO-ELECTRON INTEGRALS:     371091.     BUFFER LENGTH:  32768
 NUMBER OF SEGMENTS:   1  SEGMENT LENGTH:     371091      RECORD LENGTH: 524288

 Memory used in sort:       0.93 MW

 SORT1 READ      525861. AND WROTE      180029. INTEGRALS IN      1 RECORDS. CPU TIME:     0.01 SEC, REAL TIME:     0.01 SEC
 SORT2 READ      180029. AND WROTE      371091. INTEGRALS IN      6 RECORDS. CPU TIME:     0.01 SEC, REAL TIME:     0.02 SEC

 FILE SIZES:   FILE 1:    31.6 MBYTE,  FILE 4:     4.3 MBYTE,   TOTAL:     35.9 MBYTE

 OPERATOR DM      FOR CENTER  0  COORDINATES:    0.000000    0.000000    0.000000


 **********************************************************************************************************************************
 DATASETS  * FILE   NREC   LENGTH (MB)   RECORD NAMES
              1      19       29.66       500      610      700      900      950      970     1000      129      960     1100   
                                          VAR    BASINP    GEOM    SYMINP    ZMAT    AOBASIS   BASIS     P2S    ABASIS      S 
                                         1400     1410     1200     1210     1080     1600     1650     1300     1700   
                                           T        V       H0       H01     AOSYM     SMH    MOLCAS    ERIS     OPER   

 PROGRAMS   *        TOTAL       INT
 CPU TIMES  *         0.23      0.12
 REAL TIME  *         0.57 SEC
 DISK USED  *        34.59 MB
 **********************************************************************************************************************************


 Program * Restricted Hartree-Fock

 Orbital guess generated from atomic densities. Full valence occupancy:    7

 Initial occupancy:   5

 NELEC=   10   SYM=1   MS2= 0   THRE=1.0D-08   THRD=3.2D-06   THRG=3.2D-06  HFMA2=F  DIIS_START=2   DIIS_MAX=10   DIIS_INCORE=F

 Level shifts:    0.00 (CLOSED)    0.00 (OPEN)    0.30 (GAP_MIN)

 ITER           ETOT              DE          GRAD        DDIFF     DIIS  NEXP   TIME(IT)  TIME(TOT)  DIAG
   1      -76.00427754     -76.00427754     0.00D+00     0.15D+00     0     0       0.00      0.01    start
   2      -76.03077874      -0.02650121     0.15D-01     0.26D-01     1     0       0.00      0.01    diag
   3      -76.04104433      -0.01026559     0.91D-02     0.92D-02     2     0       0.01      0.02    diag
   4      -76.04122879      -0.00018445     0.92D-03     0.14D-02     3     0       0.00      0.02    diag
   5      -76.04124414      -0.00001535     0.23D-03     0.40D-03     4     0       0.00      0.02    diag
   6      -76.04124487      -0.00000073     0.40D-04     0.78D-04     5     0       0.00      0.02    diag
   7      -76.04124490      -0.00000003     0.72D-05     0.18D-04     6     0       0.00      0.02    diag
   8      -76.04124490      -0.00000000     0.13D-05     0.30D-05     7     0       0.01      0.03    fixocc
   9      -76.04124490      -0.00000000     0.15D-06     0.22D-06     0     0       0.00      0.03    diag

 Final occupancy:   5

 !RHF STATE 1.1 Energy                -76.041244897490
  RHF One-electron energy            -122.935181941397
  RHF Two-electron energy              37.721345888429
  RHF Kinetic energy                   75.918454568434
  RHF Nuclear energy                    9.172591155478
  RHF Virial quotient                  -1.001617397637

 !RHF STATE 1.1 Dipole moment           0.79065214     0.00360289    -0.00000000
 Dipole moment /Debye                   2.00963729     0.00915763    -0.00000000

 Orbital energies:

           1.1          2.1          3.1          4.1          5.1          6.1          7.1
    -20.577922    -1.355781    -0.716862    -0.586278    -0.509399     0.035349     0.057965


 HOMO      5.1    -0.509399 =     -13.8615eV
 LUMO      6.1     0.035349 =       0.9619eV
 LUMO-HOMO         0.544749 =      14.8234eV

 Orbitals saved in record  2100.2


 **********************************************************************************************************************************
 DATASETS  * FILE   NREC   LENGTH (MB)   RECORD NAMES
              1      19       29.66       500      610      700      900      950      970     1000      129      960     1100   
                                          VAR    BASINP    GEOM    SYMINP    ZMAT    AOBASIS   BASIS     P2S    ABASIS      S 
                                         1400     1410     1200     1210     1080     1600     1650     1300     1700   
                                           T        V       H0       H01     AOSYM     SMH    MOLCAS    ERIS     OPER   

              2       4        0.44       700     1000      520     2100   
                                         GEOM     BASIS   MCVARS     RHF  

 PROGRAMS   *        TOTAL    HF-SCF       INT
 CPU TIMES  *         0.26      0.03      0.12
 REAL TIME  *         0.64 SEC
 DISK USED  *        34.59 MB
 **********************************************************************************************************************************


 PROGRAM * CCSD (Closed-shell coupled cluster)     Authors: C. Hampel, H.-J. Werner, 1991, M. Deegan, P.J. Knowles, 1992


 Convergence thresholds:  THRVAR = 1.00D-08  THRDEN = 1.00D-06

 Number of core orbitals:           1 (   1 )
 Number of closed-shell orbitals:   4 (   4 )
 Number of external orbitals:      36 (  36 )

 Molecular orbitals read from record     2100.2  Type=RHF/CANONICAL  

 Number of N-1 electron functions:               4
 Number of N-2 electron functions:              10
 Number of singly external CSFs:               144
 Number of doubly external CSFs:             10440
 Total number of CSFs:                       10585

 Length of J-op  integral file:               0.00 MB
 Length of K-op  integral file:               0.18 MB
 Length of 3-ext integral record:             0.00 MB

 Integral transformation finished. Total CPU:   0.00 sec, npass=  1  Memory used:   0.29 MW

 Reference energy:                    -76.04124490

 MP2 singlet pair energy:              -0.13577527
 MP2 triplet pair energy:              -0.08381561
 MP2 correlation energy:               -0.21959088
 MP2 total energy:                    -76.26083578

 SCS-MP2 correlation energy:           -0.21508226   (PS=  1.200000  PT=  0.333333)
 SCS-MP2 total energy:                -76.25632716

 ITER.      SQ.NORM     CORR.ENERGY   TOTAL ENERGY   ENERGY CHANGE        DEN1      VAR(S)    VAR(P)  DIIS     TIME  TIME/IT
   1      1.06074949    -0.22660228   -76.26784718    -0.00701140    -0.00221374  0.12D-02  0.87D-03  1  1     0.40     0.02
   2      1.06495008    -0.22724812   -76.26849301    -0.00064584    -0.00444707  0.89D-05  0.14D-03  2  2     0.41     0.01
   3      1.06643890    -0.22738698   -76.26863188    -0.00013886    -0.00084485  0.17D-04  0.53D-05  3  3     0.41     0.02
   4      1.06689963    -0.22735165   -76.26859654     0.00003533    -0.00020146  0.76D-06  0.46D-06  4  4     0.42     0.01
   5      1.06702217    -0.22734454   -76.26858944     0.00000710    -0.00004098  0.76D-07  0.31D-07  5  5     0.42     0.01
   6      1.06704366    -0.22734293   -76.26858783     0.00000161    -0.00000271  0.80D-08  0.20D-08  6  6     0.43     0.01
   7      1.06704902    -0.22734221   -76.26858710     0.00000073    -0.00000068  0.50D-09  0.33D-09  6  2     0.44     0.01
   8      1.06704977    -0.22734229   -76.26858719    -0.00000008     0.00000013  0.54D-10  0.19D-10  6  1     0.45     0.01

 Norm of t1 vector:      0.04919499      S-energy:    -0.00000013      T1 diagnostic:  0.01229875
                                                                       D1 diagnostic:  0.02658688
                                                                       D2 diagnostic:  0.12614750 (internal)


 RESULTS
 =======

  Reference energy                    -76.041244897490
  CCSD singlet pair energy             -0.153221448684
  CCSD triplet pair energy             -0.074120711237
  CCSD correlation energy              -0.227342288312

 !CCSD total energy                   -76.268587185802

 Timing summary (sec):

 STEP                 CPU(USER)    SYS     CPU(TOT)    WALL
 CCSD iterations         0.45      0.00      0.45      0.15

 Program statistics:

 Available memory in ccsd:               805306299
 Min. memory needed in ccsd:                 53614
 Max. memory used in ccsd:                   59994
 Max. memory used in cckext:                 75512 ( 8 integral passes)



 **********************************************************************************************************************************
 DATASETS  * FILE   NREC   LENGTH (MB)   RECORD NAMES
              1      20       30.62       500      610      700      900      950      970     1000      129      960     1100   
                                          VAR    BASINP    GEOM    SYMINP    ZMAT    AOBASIS   BASIS     P2S    ABASIS      S 
                                         1400     1410     1200     1210     1080     1600     1650     1300     1700     1380   
                                           T        V       H0       H01     AOSYM     SMH    MOLCAS    ERIS     OPER     JKOP   

              2       4        0.44       700     1000      520     2100   
                                         GEOM     BASIS   MCVARS     RHF  

 PROGRAMS   *        TOTAL      CCSD    HF-SCF       INT
 CPU TIMES  *         0.35      0.09      0.03      0.12
 REAL TIME  *         0.88 SEC
 DISK USED  *        34.59 MB
 **********************************************************************************************************************************

 Dump information in style XML to xml output                                                                      

 Orbitals will not be exported.

 **********************************************************************************************************************************

 CCSD/aug-cc-pVDZ energy=    -76.268587185802

            CCSD          HF-SCF
    -76.26858719    -76.04124490
 **********************************************************************************************************************************
 Molpro calculation terminated
