
 Working directory              : /var/folders/2v/xbgp75_9785319ghcgb4zr4r0000gp/T//molpro.bQYmWATtlt/
 Global scratch directory       : /var/folders/2v/xbgp75_9785319ghcgb4zr4r0000gp/T//molpro.bQYmWATtlt/
 Wavefunction directory         : /Users/sacpjk/wfu/
 Main file repository           : /var/folders/2v/xbgp75_9785319ghcgb4zr4r0000gp/T//molpro.bQYmWATtlt/

 id        : peterk

 Nodes                        nprocs
 Cardiff-University-G34YLXT77Y    1
 GA implementation: MPI file
 GA implementation (serial work in mppx): MPI file

 Using customized tuning parameters: mindgm=1; mindgv=20; mindgc=4; mindgr=1; noblas=0; minvec=7
 default implementation of scratch files=df  


 Variables initialized (1032), CPU time= 0.00 sec
 
 symmetry,nosym
 
 
 geometry={
            8
     O         -1.91840367      0.19998510      0.00000000
     S         -1.32245423     -0.36733302     -1.47185555
     O         -0.00713321      0.65483762     -1.66061440
     S          1.55660614      0.01258458     -1.47076583
     O          1.46436627     -0.80016345      0.00000000
     S          1.55660614      0.01258458      1.47076583
     O         -0.00713321      0.65483762      1.66061440
     S         -1.32245423     -0.36733302      1.47185555
 }
 basis=cc-pVTZ
 
 
 
 hf
 
 
 
 {put,xml;noorbitals,nobasis}
 Commands initialized (841), CPU time= 0.00 sec, 704 directives.
 Default parameters read. Elapsed time= 0.57 sec

 Checking input...
 Passed
1


                                         ***  PROGRAM SYSTEM MOLPRO  ***
                                       Copyright, TTI GmbH Stuttgart, 2015
                                    Version 2023.1 linked Tue Jun  6 09:54:11 2023


 **********************************************************************************************************************************
 LABEL *                                                                                                                                                                 
  64 bit serial version                                                                  DATE: 12-Jun-23          TIME: 23:29:44  
 **********************************************************************************************************************************

 SHA1:             8ebb0dd001088a5c915591db1a321413035db0b1
 **********************************************************************************************************************************

 Memory per process:       393 MW
 Total memory per node:    524 MW
 Total GA space:           131 MW

 GA preallocation disabled
 GA check enabled

 Variable memory set to 393.2 MW

 ZSYMEL=NOSYM


 Geometry recognized as XYZ

 SETTING BASIS          =    CC-PVTZ


 Recomputing integrals since basis changed


 Using spherical harmonics

 Library entry O      S cc-pVTZ              selected for orbital group  1
 Library entry O      P cc-pVTZ              selected for orbital group  1
 Library entry O      D cc-pVTZ              selected for orbital group  1
 Library entry O      F cc-pVTZ              selected for orbital group  1
 Library entry S      S cc-pVTZ              selected for orbital group  2
 Library entry S      P cc-pVTZ              selected for orbital group  2
 Library entry S      D cc-pVTZ              selected for orbital group  2
 Library entry S      F cc-pVTZ              selected for orbital group  2


 PROGRAM * SEWARD (Integral evaluation for generally contracted gaussian basis sets)     Author: Roland Lindh, 1990

 Geometry written to block  1 of record 700


 Point group  C1  



 ATOMIC COORDINATES

 NR  ATOM    CHARGE       X              Y              Z

   1  O       8.00   -3.625257533    0.377917068    0.000000000
   2  S      16.00   -2.499076307   -0.694158804   -2.781403885
   3  O       8.00   -0.013479813    1.237463758   -3.138106415
   4  S      16.00    2.941559289    0.023781410   -2.779344612
   5  O       8.00    2.767251196   -1.512089775    0.000000000
   6  S      16.00    2.941559289    0.023781410    2.779344612
   7  O       8.00   -0.013479813    1.237463758    3.138106415
   8  S      16.00   -2.499076307   -0.694158804    2.781403885

 Bond lengths in Bohr (Angstrom)

 1-2  3.186508810  1-8  3.186508810  2-3  3.168058135  2-4  5.487800841  3-4  3.214652542
     ( 1.686227845)     ( 1.686227845)     ( 1.676464168)     ( 2.904019143)     ( 1.701120866)

 4-5  3.180257864  5-6  3.180257864  6-7  3.214652542  6-8  5.487800841  7-8  3.168058135
     ( 1.682919986)     ( 1.682919986)     ( 1.701120866)     ( 2.904019143)     ( 1.676464168)

 Bond angles

  1-2-3   99.81294447   1-2-4  107.82084307   1-8-6  107.82084307   1-8-7   99.81294447

  2-1-8  121.58746966   2-3-4  118.58456359   2-4-3   30.45929611   2-4-5   83.26999558

  3-2-4   30.95614029   3-4-5  103.26659648   4-5-6  121.83880699   5-6-7  103.26659648

  5-6-8   83.26999558   6-7-8  118.58456359   6-8-7   30.95614029   7-6-8   30.45929611

 NUCLEAR CHARGE:                   96
 NUMBER OF PRIMITIVE AOS:         444
 NUMBER OF SYMMETRY AOS:          404
 NUMBER OF CONTRACTIONS:          256   (  256A   )
 NUMBER OF INNER CORE ORBITALS:     4   (    4A   )
 NUMBER OF OUTER CORE ORBITALS:    20   (   20A   )
 NUMBER OF VALENCE ORBITALS:       32   (   32A   )


 NUCLEAR REPULSION ENERGY  798.53403519


 Eigenvalues of metric

         1 0.224E-02 0.291E-02 0.299E-02 0.317E-02 0.322E-02 0.366E-02 0.389E-02 0.594E-02


 Contracted 2-electron integrals neglected if value below      1.0D-11
 AO integral compression algorithm  1   Integral accuracy      1.0D-11

     1686.110 MB (compressed) written to integral file ( 35.3%)


 NUMBER OF SORTED TWO-ELECTRON INTEGRALS:  541089856.     BUFFER LENGTH:  32768
 NUMBER OF SEGMENTS:  34  SEGMENT LENGTH:   15999762      RECORD LENGTH: 262144

 Memory used in sort:      16.29 MW

 SORT1 READ   597830731. AND WROTE   452357857. INTEGRALS IN   2607 RECORDS. CPU TIME:     4.77 SEC, REAL TIME:     6.51 SEC
 SORT2 READ   452357857. AND WROTE   541089856. INTEGRALS IN   6432 RECORDS. CPU TIME:     3.60 SEC, REAL TIME:    15.54 SEC

 FILE SIZES:   FILE 1:  1718.7 MBYTE,  FILE 4:  5467.3 MBYTE,   TOTAL:   7186.0 MBYTE

 OPERATOR DM      FOR CENTER  0  COORDINATES:    0.000000    0.000000    0.000000


 **********************************************************************************************************************************
 DATASETS  * FILE   NREC   LENGTH (MB)   RECORD NAMES
              1      19     1437.82       500      610      700      900      950      970     1000      129      960     1100   
                                          VAR    BASINP    GEOM    SYMINP    ZMAT    AOBASIS   BASIS     P2S    ABASIS      S 
                                         1400     1410     1200     1210     1080     1600     1650     1300     1700   
                                           T        V       H0       H01     AOSYM     SMH    MOLCAS    ERIS     OPER   

 PROGRAMS   *        TOTAL       INT
 CPU TIMES  *        23.42     23.34
 REAL TIME  *        40.66 SEC
 DISK USED  *         6.69 GB
 **********************************************************************************************************************************


 Program * Restricted Hartree-Fock

 Orbital guess generated from atomic densities. Full valence occupancy:   56

 Initial occupancy:  48

 NELEC=   96   SYM=1   MS2= 0   THRE=1.0D-08   THRD=3.2D-06   THRG=3.2D-06  HFMA2=F  DIIS_START=2   DIIS_MAX=10   DIIS_INCORE=F

 Level shifts:    0.00 (CLOSED)    0.00 (OPEN)    0.30 (GAP_MIN)

 ITER           ETOT              DE          GRAD        DDIFF     DIIS  NEXP   TIME(IT)  TIME(TOT)  DIAG
   1    -1889.40777770   -1889.40777770     0.00D+00     0.72D-01     0     0       2.50      4.90    start
   2    -1889.52349545      -0.11571774     0.34D-02     0.50D-02     1     0       2.46      7.36    diag
   3    -1889.53686734      -0.01337189     0.12D-02     0.13D-02     2     0       2.48      9.84    diag
   4    -1889.53883106      -0.00196372     0.40D-03     0.62D-03     3     0       2.50     12.34    diag
   5    -1889.53917679      -0.00034573     0.18D-03     0.23D-03     4     0       2.51     14.85    diag
   6    -1889.53921222      -0.00003543     0.45D-04     0.76D-04     5     0       2.53     17.38    diag
   7    -1889.53921711      -0.00000489     0.14D-04     0.33D-04     6     0       2.57     19.95    diag
   8    -1889.53921806      -0.00000095     0.68D-05     0.13D-04     7     0       2.71     22.66    fixocc
   9    -1889.53921835      -0.00000030     0.28D-05     0.89D-05     8     0       2.63     25.29    diag
  10    -1889.53921841      -0.00000006     0.10D-05     0.44D-05     9     0       2.65     27.94    diag/orth
  11    -1889.53921842      -0.00000001     0.50D-06     0.13D-05     9     0       2.64     30.58    diag
  12    -1889.53921842      -0.00000000     0.18D-06     0.39D-06     0     0       2.69     33.27    diag

 Final occupancy:  48

 !RHF STATE 1.1 Energy              -1889.539218417133
  RHF One-electron energy           -4203.118995447331
  RHF Two-electron energy            1515.045741845003
  RHF Kinetic energy                 1888.404680211732
  RHF Nuclear energy                  798.534035185194
  RHF Virial quotient                  -1.000600791884

 !RHF STATE 1.1 Dipole moment           0.41316257    -0.57369210    -0.00000000
 Dipole moment /Debye                   1.05015451    -1.45817988    -0.00000000

 Orbital energies:

           1.1          2.1          3.1          4.1          5.1          6.1          7.1          8.1          9.1         10.1
    -92.082270   -92.082270   -92.077500   -92.077500   -20.657562   -20.647933   -20.647931   -20.646284    -9.071997    -9.071987

          11.1         12.1         13.1         14.1         15.1         16.1         17.1         18.1         19.1         20.1
     -9.067245    -9.067236    -6.752538    -6.752534    -6.751114    -6.751113    -6.748989    -6.748987    -6.747797    -6.747794

          21.1         22.1         23.1         24.1         25.1         26.1         27.1         28.1         29.1         30.1
     -6.746532    -6.746532    -6.744462    -6.744461    -1.458830    -1.418547    -1.415445    -1.367260    -1.038663    -0.951044

          31.1         32.1         33.1         34.1         35.1         36.1         37.1         38.1         39.1         40.1
     -0.945854    -0.826740    -0.726944    -0.694019    -0.685030    -0.671939    -0.646736    -0.622004    -0.618930    -0.559106

          41.1         42.1         43.1         44.1         45.1         46.1         47.1         48.1         49.1         50.1
     -0.550258    -0.542736    -0.537638    -0.520672    -0.393492    -0.387170    -0.384596    -0.369476     0.079073     0.079977


 HOMO     48.1    -0.369476 =     -10.0540eV
 LUMO     49.1     0.079073 =       2.1517eV
 LUMO-HOMO         0.448549 =      12.2057eV

 Orbitals saved in record  2100.2


 **********************************************************************************************************************************
 DATASETS  * FILE   NREC   LENGTH (MB)   RECORD NAMES
              1      19     1437.82       500      610      700      900      950      970     1000      129      960     1100   
                                          VAR    BASINP    GEOM    SYMINP    ZMAT    AOBASIS   BASIS     P2S    ABASIS      S 
                                         1400     1410     1200     1210     1080     1600     1650     1300     1700   
                                           T        V       H0       H01     AOSYM     SMH    MOLCAS    ERIS     OPER   

              2       4        1.54       700     1000      520     2100   
                                         GEOM     BASIS   MCVARS     RHF  

 PROGRAMS   *        TOTAL    HF-SCF       INT
 CPU TIMES  *        56.69     33.27     23.34
 REAL TIME  *        80.34 SEC
 DISK USED  *         6.69 GB
 **********************************************************************************************************************************

 Dump information in style XML to xml output                                                                      

 Orbitals will not be exported.

 **********************************************************************************************************************************

 HF/cc-pVTZ energy=  -1889.539218417133

          HF-SCF
  -1889.53921842
 **********************************************************************************************************************************
 Molpro calculation terminated
