
 Working directory              : /var/folders/2v/xbgp75_9785319ghcgb4zr4r0000gp/T//molpro.mRbyIY5wmZ/
 Global scratch directory       : /var/folders/2v/xbgp75_9785319ghcgb4zr4r0000gp/T//molpro.mRbyIY5wmZ/
 Wavefunction directory         : /Users/sacpjk/wfu/
 Main file repository           : /var/folders/2v/xbgp75_9785319ghcgb4zr4r0000gp/T//molpro.mRbyIY5wmZ/

 id        : peterk

 Nodes                        nprocs
 Cardiff-University-G34YLXT77Y    1
 GA implementation: MPI file
 GA implementation (serial work in mppx): MPI file

 Using customized tuning parameters: mindgm=1; mindgv=20; mindgc=4; mindgr=1; noblas=0; minvec=7
 default implementation of scratch files=df  


 Variables initialized (1032), CPU time= 0.00 sec
 
 symmetry,nosym
 
 
 geometry={
            3
     N          0.00000000      0.00000000     -1.14542900
     N          0.00000000      0.00000000     -0.01934100
     O          0.00000000      0.00000000      1.16477000
 }
 basis=cc-pVTZ
 
 
 
 hf; hf; papt; mp4
 
 
 
 {put,xml;noorbitals,nobasis}
 Commands initialized (841), CPU time= 0.01 sec, 704 directives.
 Default parameters read. Elapsed time= 0.79 sec

 Checking input...
 Passed
1


                                         ***  PROGRAM SYSTEM MOLPRO  ***
                                       Copyright, TTI GmbH Stuttgart, 2015
                                    Version 2023.1 linked Tue Jun  6 09:54:11 2023


 **********************************************************************************************************************************
 LABEL *                                                                                                                                                                 
  64 bit serial version                                                                  DATE: 11-Jun-23          TIME: 15:07:04  
 **********************************************************************************************************************************

 SHA1:             8ebb0dd001088a5c915591db1a321413035db0b1
 **********************************************************************************************************************************

 Memory per process:       393 MW
 Total memory per node:    524 MW
 Total GA space:           131 MW

 GA preallocation disabled
 GA check enabled

 Variable memory set to 393.2 MW

 ZSYMEL=NOSYM


 Geometry recognized as XYZ

 SETTING BASIS          =    CC-PVTZ


 Recomputing integrals since basis changed


 Using spherical harmonics

 Library entry N      S cc-pVTZ              selected for orbital group  1
 Library entry N      P cc-pVTZ              selected for orbital group  1
 Library entry N      D cc-pVTZ              selected for orbital group  1
 Library entry N      F cc-pVTZ              selected for orbital group  1
 Library entry O      S cc-pVTZ              selected for orbital group  2
 Library entry O      P cc-pVTZ              selected for orbital group  2
 Library entry O      D cc-pVTZ              selected for orbital group  2
 Library entry O      F cc-pVTZ              selected for orbital group  2


 PROGRAM * SEWARD (Integral evaluation for generally contracted gaussian basis sets)     Author: Roland Lindh, 1990

 Geometry written to block  1 of record 700


 Point group  C1  



 ATOMIC COORDINATES

 NR  ATOM    CHARGE       X              Y              Z

   1  N       7.00    0.000000000    0.000000000   -2.164547105
   2  N       7.00    0.000000000    0.000000000   -0.036549193
   3  O       8.00    0.000000000    0.000000000    2.201096298

 Bond lengths in Bohr (Angstrom)

 1-2  2.127997912  2-3  2.237645491
     ( 1.126088000)     ( 1.184111000)

 Bond angles

  1-2-3  180.00000000

 NUCLEAR CHARGE:                   22
 NUMBER OF PRIMITIVE AOS:         141
 NUMBER OF SYMMETRY AOS:          126
 NUMBER OF CONTRACTIONS:           90   (   90A   )
 NUMBER OF INNER CORE ORBITALS:     0   (    0A   )
 NUMBER OF OUTER CORE ORBITALS:     3   (    3A   )
 NUMBER OF VALENCE ORBITALS:       12   (   12A   )


 NUCLEAR REPULSION ENERGY   60.88007743

 EXTRA SYMMETRY OF AOS IN SYMMETRY 1:   1 1 1 1 2 3 1 2 3 1   2 3 1 1 4 2 5 3 1 4   2 5 3 2 3 1 6 4 7 5   1 1 1 1 2 3 1 2 3 1
                                        2 3 1 1 4 2 5 3 1 4   2 5 3 2 3 1 6 4 7 5   1 1 1 1 2 3 1 2 3 1   2 3 1 1 4 2 5 3 1 4
                                        2 5 3 2 3 1 6 4 7 5

 Eigenvalues of metric

         1 0.710E-03 0.163E-02 0.247E-02 0.361E-02 0.107E-01 0.207E-01 0.207E-01 0.286E-01


 Contracted 2-electron integrals neglected if value below      1.0D-11
 AO integral compression algorithm  1   Integral accuracy      1.0D-11

     12.583 MB (compressed) written to integral file ( 14.5%)


 NUMBER OF SORTED TWO-ELECTRON INTEGRALS:    8386560.     BUFFER LENGTH:  32768
 NUMBER OF SEGMENTS:   1  SEGMENT LENGTH:    8386560      RECORD LENGTH: 524288

 Memory used in sort:       8.94 MW

 SORT1 READ    10601556. AND WROTE     1754098. INTEGRALS IN      6 RECORDS. CPU TIME:     0.04 SEC, REAL TIME:     0.06 SEC
 SORT2 READ     1754098. AND WROTE     8386560. INTEGRALS IN     48 RECORDS. CPU TIME:     0.09 SEC, REAL TIME:     0.09 SEC

 FILE SIZES:   FILE 1:    42.9 MBYTE,  FILE 4:    25.2 MBYTE,   TOTAL:     68.1 MBYTE

 OPERATOR DM      FOR CENTER  0  COORDINATES:    0.000000    0.000000    0.000000


 **********************************************************************************************************************************
 DATASETS  * FILE   NREC   LENGTH (MB)   RECORD NAMES
              1      19       37.60       500      610      700      900      950      970     1000      129      960     1100   
                                          VAR    BASINP    GEOM    SYMINP    ZMAT    AOBASIS   BASIS     P2S    ABASIS      S 
                                         1400     1410     1200     1210     1080     1600     1650     1300     1700   
                                           T        V       H0       H01     AOSYM     SMH    MOLCAS    ERIS     OPER   

 PROGRAMS   *        TOTAL       INT
 CPU TIMES  *         0.55      0.44
 REAL TIME  *         2.96 SEC
 DISK USED  *        65.35 MB
 **********************************************************************************************************************************


 Program * Restricted Hartree-Fock

 Orbital guess generated from atomic densities. Full valence occupancy:   15

 Initial occupancy:  11

 NELEC=   22   SYM=1   MS2= 0   THRE=1.0D-08   THRD=3.2D-06   THRG=3.2D-06  HFMA2=F  DIIS_START=2   DIIS_MAX=10   DIIS_INCORE=F

 Level shifts:    0.00 (CLOSED)    0.00 (OPEN)    0.30 (GAP_MIN)

 ITER           ETOT              DE          GRAD        DDIFF     DIIS  NEXP   TIME(IT)  TIME(TOT)  DIAG
   1     -183.65349266    -183.65349266     0.00D+00     0.93D-01     0     0       0.04      0.07    start
   2     -183.69771002      -0.04421736     0.12D-01     0.16D-01     1     0       0.03      0.10    diag
   3     -183.74875544      -0.05104542     0.95D-02     0.82D-02     2     0       0.04      0.14    diag
   4     -183.74948470      -0.00072926     0.93D-03     0.13D-02     3     0       0.04      0.18    diag
   5     -183.74970021      -0.00021551     0.53D-03     0.62D-03     4     0       0.03      0.21    diag
   6     -183.74975803      -0.00005782     0.20D-03     0.31D-03     5     0       0.04      0.25    diag
   7     -183.74976651      -0.00000849     0.75D-04     0.14D-03     6     0       0.04      0.29    diag
   8     -183.74976689      -0.00000037     0.17D-04     0.29D-04     7     0       0.03      0.32    fixocc
   9     -183.74976689      -0.00000001     0.27D-05     0.49D-05     8     0       0.04      0.36    diag
  10     -183.74976689      -0.00000000     0.16D-06     0.28D-06     9     0       0.04      0.40    diag/orth
  11     -183.74976689      -0.00000000     0.34D-07     0.53D-07     0     0       0.03      0.43    diag

 Final occupancy:  11

 !RHF STATE 1.1 Energy               -183.749766894202
  RHF One-electron energy            -370.741840474909
  RHF Two-electron energy             126.111996150463
  RHF Kinetic energy                  183.365706619623
  RHF Nuclear energy                   60.880077430243
  RHF Virial quotient                  -1.002094504374

 !RHF STATE 1.1 Dipole moment          -0.00000000    -0.00000000    -0.23785526
 Dipole moment /Debye                  -0.00000000    -0.00000000    -0.60456778

 Orbital energies:

           1.1          2.1          3.1          4.1          5.1          6.1          7.1          8.1          9.1         10.1
    -20.653722   -15.843451   -15.695786    -1.612382    -1.422907    -0.831141    -0.761768    -0.761768    -0.696766    -0.489616

          11.1         12.1         13.1
     -0.489616     0.155361     0.155361


 HOMO     11.1    -0.489616 =     -13.3231eV
 LUMO     12.1     0.155361 =       4.2276eV
 LUMO-HOMO         0.644978 =      17.5507eV

 Orbitals saved in record  2100.2


 **********************************************************************************************************************************
 DATASETS  * FILE   NREC   LENGTH (MB)   RECORD NAMES
              1      19       37.60       500      610      700      900      950      970     1000      129      960     1100   
                                          VAR    BASINP    GEOM    SYMINP    ZMAT    AOBASIS   BASIS     P2S    ABASIS      S 
                                         1400     1410     1200     1210     1080     1600     1650     1300     1700   
                                           T        V       H0       H01     AOSYM     SMH    MOLCAS    ERIS     OPER   

              2       4        0.54       700     1000      520     2100   
                                         GEOM     BASIS   MCVARS     RHF  

 PROGRAMS   *        TOTAL    HF-SCF       INT
 CPU TIMES  *         0.99      0.44      0.44
 REAL TIME  *         4.13 SEC
 DISK USED  *        65.35 MB
 **********************************************************************************************************************************


 Program * Restricted Hartree-Fock

 Molecular orbitals read from record     2100.2  Type=RHF/CANONICAL  

 Initial occupancy:  11

 NELEC=   22   SYM=1   MS2= 0   THRE=1.0D-08   THRD=3.2D-06   THRG=3.2D-06  HFMA2=F  DIIS_START=2   DIIS_MAX=10   DIIS_INCORE=F

 Level shifts:    0.00 (CLOSED)    0.00 (OPEN)    0.30 (GAP_MIN)

 ITER           ETOT              DE          GRAD        DDIFF     DIIS  NEXP   TIME(IT)  TIME(TOT)  DIAG
   1     -183.74976689    -183.74976689     0.00D+00     0.96D-01     0     0       0.04      0.04    start
   2     -183.74976689      -0.00000000     0.18D-07     0.34D-07     1     0       0.04      0.08    diag

 Final occupancy:  11

 !RHF STATE 1.1 Energy               -183.749766894203
  RHF One-electron energy            -370.741843192252
  RHF Two-electron energy             126.111998867807
  RHF Kinetic energy                  183.365707635904
  RHF Nuclear energy                   60.880077430243
  RHF Virial quotient                  -1.002094498820

 !RHF STATE 1.1 Dipole moment           0.00000000     0.00000000    -0.23785875
 Dipole moment /Debye                   0.00000000     0.00000000    -0.60457663

 Orbital energies:

           1.1          2.1          3.1          4.1          5.1          6.1          7.1          8.1          9.1         10.1
    -20.653722   -15.843452   -15.695785    -1.612383    -1.422908    -0.831141    -0.761768    -0.761768    -0.696766    -0.489617

          11.1         12.1         13.1
     -0.489617     0.155361     0.155361


 HOMO     11.1    -0.489617 =     -13.3231eV
 LUMO     12.1     0.155361 =       4.2276eV
 LUMO-HOMO         0.644978 =      17.5507eV

 Orbitals saved in record  2101.2


 **********************************************************************************************************************************
 DATASETS  * FILE   NREC   LENGTH (MB)   RECORD NAMES
              1      19       37.60       500      610      700      900      950      970     1000      129      960     1100   
                                          VAR    BASINP    GEOM    SYMINP    ZMAT    AOBASIS   BASIS     P2S    ABASIS      S 
                                         1400     1410     1200     1210     1080     1600     1650     1300     1700   
                                           T        V       H0       H01     AOSYM     SMH    MOLCAS    ERIS     OPER   

              2       5        0.86       700     1000      520     2100     2101   
                                         GEOM     BASIS   MCVARS     RHF      RHF  

 PROGRAMS   *        TOTAL    HF-SCF    HF-SCF       INT
 CPU TIMES  *         1.07      0.08      0.44      0.44
 REAL TIME  *         4.63 SEC
 DISK USED  *        65.35 MB
 **********************************************************************************************************************************


 PROGRAM * PAPT (Closed-shell)     Authors: C. Hampel, H.-J. Werner, 1991, P.J. Knowles, 2021


 Convergence thresholds:  THRVAR = 1.00D-08  THRDEN = 1.00D-06

 Number of core orbitals:           3 (   3 )
 Number of closed-shell orbitals:   8 (   8 )
 Number of external orbitals:      79 (  79 )

 Molecular orbitals read from record     2101.2  Type=RHF/CANONICAL  

 Number of N-1 electron functions:               8
 Number of N-2 electron functions:              36
 Number of singly external CSFs:               632
 Number of doubly external CSFs:            200028
 Total number of CSFs:                      200661

 Length of J-op  integral file:               0.00 MB
 Length of K-op  integral file:               0.62 MB

 Integral transformation finished. Total CPU:   0.07 sec, npass=  1  Memory used:   0.68 MW

 Reference energy:                   -183.74976689

                        CORR.ENERGY   TOTAL ENERGY   ENERGY CHANGE
 MP2:                   -0.64240709  -184.39217399    -0.64240709

 SCS-MP2 correlation energy:           -0.61994458   (PS=  1.200000  PT=  0.333333)
 SCS-MP2 total energy:               -184.36971148
 Iteration:   1     0.3843D+00
 Iteration:   2     0.5104D+00
 Iteration:   3     0.1882D+00
 Iteration:   4     0.8817D-01
 Iteration:   5     0.4537D-01
 Iteration:   6     0.1310D-01
 Iteration:   7     0.1781D+00
 Iteration:   8     0.5453D-02
 Iteration:   9     0.1032D-01
 Iteration:  10     0.3194D-02
 Iteration:  11     0.2592D-02
 Iteration:  12     0.1241D-02
 Iteration:  13     0.3929D-03
 Iteration:  14     0.4010D-02
 Iteration:  15     0.7313D-04
 PAPT operator written to  7000.1
 PAPT orbitals and eigenvalues written to  7000.2

 MP3(D):                -0.61147824  -184.36124513     0.03092885



 RESULTS
 =======

  Reference energy                   -183.749766894203
  MP3 singlet pair energy              -0.392281284869
  MP3 triplet pair energy              -0.219196953622
  MP3 correlation energy               -0.611478238491

 !MP3 total energy                   -184.361245132694

 Timing summary (sec):

 STEP                 CPU(USER)    SYS     CPU(TOT)    WALL
 Transformation          0.08      0.01      0.09      0.24
 CCSD iterations         1.77      0.04      1.81      2.05

 Program statistics:

 Available memory in ccsd:               393215733
 Min. memory needed in ccsd:                631352
 Max. memory used in ccsd:                  791860
 Max. memory used in cckext:                666470 ( 1 integral passes)



 **********************************************************************************************************************************
 DATASETS  * FILE   NREC   LENGTH (MB)   RECORD NAMES
              1      21       41.10       500      610      700      900      950      970     1000      129      960     1100   
                                          VAR    BASINP    GEOM    SYMINP    ZMAT    AOBASIS   BASIS     P2S    ABASIS      S 
                                         1400     1410     1200     1210     1080     1600     1650     1300     1700     1380   
                                           T        V       H0       H01     AOSYM     SMH    MOLCAS    ERIS     OPER     JKOP   
                                         7000   
                                        PAPT AO    

              2       6        1.14       700     1000      520     2100     2101     7000   
                                         GEOM     BASIS   MCVARS     RHF      RHF     PAPT   

 PROGRAMS   *        TOTAL      PAPT    HF-SCF    HF-SCF       INT
 CPU TIMES  *         1.75      0.68      0.08      0.44      0.44
 REAL TIME  *         7.26 SEC
 DISK USED  *        65.35 MB
 **********************************************************************************************************************************


 PROGRAM * MP4 (Closed-shell)     Authors: C. Hampel, H.-J. Werner, 1991, M. Deegan, P.J. Knowles, 1992


 Convergence thresholds:  THRVAR = 1.00D-08  THRDEN = 1.00D-06

 MP4(T)     terms to be evaluated (factor= 0.000)


 Number of core orbitals:           3 (   3 )
 Number of closed-shell orbitals:   8 (   8 )
 Number of external orbitals:      79 (  79 )

 Molecular orbitals read from record     7000.2  Type=PAPT/CANONICAL (state 1.1)

 Number of N-1 electron functions:               8
 Number of N-2 electron functions:              36
 Number of singly external CSFs:               632
 Number of doubly external CSFs:            200028
 Total number of CSFs:                      200661

 Length of J-op  integral file:               0.00 MB
 Length of K-op  integral file:               0.62 MB

 Memory could be reduced to 5.82 Mwords without degradation in triples

 Integral transformation finished. Total CPU:   0.21 sec, npass=  1  Memory used:   4.00 MW
 Orbital energies read from record       7000.2  Type=PAPT/CANONICAL (state 1.1)

 Reference energy:                   -183.74976689

                        CORR.ENERGY   TOTAL ENERGY   ENERGY CHANGE
 MP2:                   -0.62028523  -184.37005212    -0.62028523

 SCS-MP2 correlation energy:           -0.60160690   (PS=  1.200000  PT=  0.333333)
 SCS-MP2 total energy:               -184.35137380

 MP3(D):                -0.62037551  -184.37014241    -0.00009029
 MP4(DQ):               -0.61318567  -184.36295256     0.00718985
 MP4(SDQ):              -0.62210491  -184.37187181    -0.00891925

 Norm of t1 vector:      0.07764865      S-energy:    -0.00891925      T1 diagnostic:  0.01372647

 Largest off-diagonal element in interal  block of Fock matrix:  0.18D+00
 Largest off-diagonal element in external block of Fock matrix:  0.21D+00


 Total CPU time for triples:      2.04 sec


 RESULTS
 =======

  Reference energy                   -183.749766894203
  MP4(SDQ) singlet pair energy         -0.388768064186
  MP4(SDQ) triplet pair energy         -0.224417601370
  MP4(SDQ) correlation energy          -0.622104914963

  Triples contribution                 -0.036898637958
  Total correlation energy             -0.659003552920

  MP4(SDQ) total energy              -184.371871809165
 !MP4(SDTQ) total energy             -184.408770447123

 Timing summary (sec):

 STEP                 CPU(USER)    SYS     CPU(TOT)    WALL
 Transformation          0.26      0.03      0.29      0.77
 CCSD iterations         2.17      0.02      2.19      0.80
 Triples                 2.04      0.09      2.13      2.24

 Program statistics:

 Available memory in ccsd:               393215733
 Min. memory needed in ccsd:                631352
 Max. memory used in ccsd:                  791860
 Max. memory used in cckext:                666470 ( 1 integral passes)



 **********************************************************************************************************************************
 DATASETS  * FILE   NREC   LENGTH (MB)   RECORD NAMES
              1      22       56.34       500      610      700      900      950      970     1000      129      960     1100   
                                          VAR    BASINP    GEOM    SYMINP    ZMAT    AOBASIS   BASIS     P2S    ABASIS      S 
                                         1400     1410     1200     1210     1080     1600     1650     1300     1700     1380   
                                           T        V       H0       H01     AOSYM     SMH    MOLCAS    ERIS     OPER     JKOP   
                                         7000     1380(1)
                                        PAPT AO   JKOP   

              2       6        1.14       700     1000      520     2100     2101     7000   
                                         GEOM     BASIS   MCVARS     RHF      RHF     PAPT   

 PROGRAMS   *        TOTAL       MP4      PAPT    HF-SCF    HF-SCF       INT
 CPU TIMES  *         4.37      2.62      0.68      0.08      0.44      0.44
 REAL TIME  *        11.39 SEC
 DISK USED  *        85.41 MB
 **********************************************************************************************************************************

 Dump information in style XML to xml output                                                                      

 Orbitals will not be exported.

 **********************************************************************************************************************************

 MP4/cc-pVTZ energy=   -184.408770447123

             MP4            PAPT          HF-SCF          HF-SCF
   -184.40877045   -184.36124513   -183.74976689   -183.74976689
 **********************************************************************************************************************************
 Molpro calculation terminated
