
 Working directory              : /var/folders/2v/xbgp75_9785319ghcgb4zr4r0000gp/T//molpro.gEvJxqkKz2/
 Global scratch directory       : /var/folders/2v/xbgp75_9785319ghcgb4zr4r0000gp/T//molpro.gEvJxqkKz2/
 Wavefunction directory         : /Users/sacpjk/wfu/
 Main file repository           : /var/folders/2v/xbgp75_9785319ghcgb4zr4r0000gp/T//molpro.gEvJxqkKz2/

 id        : peterk

 Nodes                        nprocs
 Cardiff-University-G34YLXT77Y    1
 GA implementation: MPI file
 GA implementation (serial work in mppx): MPI file

 Using customized tuning parameters: mindgm=1; mindgv=20; mindgc=4; mindgr=1; noblas=0; minvec=7
 default implementation of scratch files=df  


 Variables initialized (1032), CPU time= 0.01 sec
 
 symmetry,nosym
 
 
 geometry={
 6
  o         -0.350846522910   -0.783222408161   -0.684135090557
  h         -0.068820403941   -0.413273643348   -1.523999170866
  c          0.035067324752    0.128361852579    0.335301071427
  h         -0.288115724054   -0.301270820150    1.278367615473
  h          1.116122563095    0.267445321468    0.374341038266
  h         -0.443407236942    1.101959697613    0.220124536257
 }
 basis=aug-cc-pVDZ
 
 
 
 hf; ccsd(t); counterpoise
 
 
 
 {put,xml;noorbitals,nobasis}
 Commands initialized (841), CPU time= 0.00 sec, 704 directives.
 Default parameters read. Elapsed time= 0.40 sec

 Checking input...
 Passed
1


                                         ***  PROGRAM SYSTEM MOLPRO  ***
                                       Copyright, TTI GmbH Stuttgart, 2015
                                    Version 2023.1 linked Tue Jun  6 09:54:11 2023


 **********************************************************************************************************************************
 LABEL *                                                                                                                                                                 
  64 bit serial version                                                                  DATE: 08-Jun-23          TIME: 19:18:15  
 **********************************************************************************************************************************

 SHA1:             8ebb0dd001088a5c915591db1a321413035db0b1
 **********************************************************************************************************************************

 Memory per process:       805 MW
 Total memory per node:   1074 MW
 Total GA space:           268 MW

 GA preallocation disabled
 GA check enabled

 Variable memory set to 805.3 MW

 ZSYMEL=NOSYM


 Geometry recognized as XYZ

 SETTING BASIS          =    AUG-CC-PVDZ


 Recomputing integrals since basis changed


 Using spherical harmonics

 Library entry O      S aug-cc-pVDZ          selected for orbital group  1
 Library entry O      P aug-cc-pVDZ          selected for orbital group  1
 Library entry O      D aug-cc-pVDZ          selected for orbital group  1
 Library entry H      S aug-cc-pVDZ          selected for orbital group  2
 Library entry H      P aug-cc-pVDZ          selected for orbital group  2
 Library entry C      S aug-cc-pVDZ          selected for orbital group  3
 Library entry C      P aug-cc-pVDZ          selected for orbital group  3
 Library entry C      D aug-cc-pVDZ          selected for orbital group  3


 PROGRAM * SEWARD (Integral evaluation for generally contracted gaussian basis sets)     Author: Roland Lindh, 1990

 Geometry written to block  1 of record 700


 Point group  C1  



 ATOMIC COORDINATES

 NR  ATOM    CHARGE       X              Y              Z

   1  O       8.00   -0.663003840   -1.480075846   -1.292827953
   2  H       1.00   -0.130051715   -0.780974000   -2.879941047
   3  C       6.00    0.066267640    0.242568746    0.633627194
   4  H       1.00   -0.544459811   -0.569319339    2.415764680
   5  H       1.00    2.109165966    0.505398411    0.707402040
   6  H       1.00   -0.837918239    2.082402029    0.415975087

 Bond lengths in Bohr (Angstrom)

 1-2  1.814306846  1-3  2.685250588  3-4  2.051381071  3-5  2.061056945  3-6  2.061531240
     ( 0.960089836)     ( 1.420973417)     ( 1.085544114)     ( 1.090664366)     ( 1.090915352)

 Bond angles

  1-3-4  106.76853260   1-3-5  112.12813205   1-3-6  112.18950395   2-1-3  107.49423241

  4-3-5  108.32856604   4-3-6  108.32203169   5-3-6  108.94776655

 NUCLEAR CHARGE:                   18
 NUMBER OF PRIMITIVE AOS:         118
 NUMBER OF SYMMETRY AOS:          114
 NUMBER OF CONTRACTIONS:           82   (   82A   )
 NUMBER OF INNER CORE ORBITALS:     0   (    0A   )
 NUMBER OF OUTER CORE ORBITALS:     2   (    2A   )
 NUMBER OF VALENCE ORBITALS:       12   (   12A   )


 NUCLEAR REPULSION ENERGY   40.34710778

 Eigenvalues of metric

         1 0.647E-03 0.789E-03 0.808E-03 0.110E-02 0.246E-02 0.437E-02 0.492E-02 0.521E-02


 Contracted 2-electron integrals neglected if value below      1.0D-11
 AO integral compression algorithm  1   Integral accuracy      1.0D-11

     32.506 MB (compressed) written to integral file ( 56.5%)


 NUMBER OF SORTED TWO-ELECTRON INTEGRALS:    5791906.     BUFFER LENGTH:  32768
 NUMBER OF SEGMENTS:   1  SEGMENT LENGTH:    5791906      RECORD LENGTH: 524288

 Memory used in sort:       6.35 MW

 SORT1 READ     7210272. AND WROTE     5721711. INTEGRALS IN     17 RECORDS. CPU TIME:     0.04 SEC, REAL TIME:     0.06 SEC
 SORT2 READ     5721711. AND WROTE     5791906. INTEGRALS IN    124 RECORDS. CPU TIME:     0.08 SEC, REAL TIME:     0.09 SEC

 FILE SIZES:   FILE 1:    62.8 MBYTE,  FILE 4:    71.4 MBYTE,   TOTAL:    134.2 MBYTE

 OPERATOR DM      FOR CENTER  0  COORDINATES:    0.000000    0.000000    0.000000


 **********************************************************************************************************************************
 DATASETS  * FILE   NREC   LENGTH (MB)   RECORD NAMES
              1      19       54.35       500      610      700      900      950      970     1000      129      960     1100   
                                          VAR    BASINP    GEOM    SYMINP    ZMAT    AOBASIS   BASIS     P2S    ABASIS      S 
                                         1400     1410     1200     1210     1080     1600     1650     1300     1700   
                                           T        V       H0       H01     AOSYM     SMH    MOLCAS    ERIS     OPER   

 PROGRAMS   *        TOTAL       INT
 CPU TIMES  *         0.47      0.38
 REAL TIME  *         3.39 SEC
 DISK USED  *       128.40 MB
 **********************************************************************************************************************************


 Program * Restricted Hartree-Fock

 Orbital guess generated from atomic densities. Full valence occupancy:   14

 Initial occupancy:   9

 NELEC=   18   SYM=1   MS2= 0   THRE=1.0D-08   THRD=3.2D-06   THRG=3.2D-06  HFMA2=F  DIIS_START=2   DIIS_MAX=10   DIIS_INCORE=F

 Level shifts:    0.00 (CLOSED)    0.00 (OPEN)    0.30 (GAP_MIN)

 ITER           ETOT              DE          GRAD        DDIFF     DIIS  NEXP   TIME(IT)  TIME(TOT)  DIAG
   1     -115.02709346    -115.02709346     0.00D+00     0.97D-01     0     0       0.02      0.04    start
   2     -115.05433683      -0.02724336     0.71D-02     0.12D-01     1     0       0.03      0.07    diag
   3     -115.06093920      -0.00660237     0.37D-02     0.38D-02     2     0       0.02      0.09    diag
   4     -115.06146305      -0.00052386     0.79D-03     0.12D-02     3     0       0.03      0.12    diag
   5     -115.06149105      -0.00002800     0.15D-03     0.28D-03     4     0       0.02      0.14    diag
   6     -115.06149227      -0.00000122     0.26D-04     0.59D-04     5     0       0.03      0.17    diag
   7     -115.06149232      -0.00000005     0.52D-05     0.12D-04     6     0       0.02      0.19    diag
   8     -115.06149232      -0.00000000     0.12D-05     0.26D-05     7     0       0.03      0.22    fixocc
   9     -115.06149232      -0.00000000     0.29D-06     0.47D-06     0     0       0.02      0.24    diag

 Final occupancy:   9

 !RHF STATE 1.1 Energy               -115.061492324482
  RHF One-electron energy            -236.818559651850
  RHF Two-electron energy              81.409959550386
  RHF Kinetic energy                  114.894653361407
  RHF Nuclear energy                   40.347107776982
  RHF Virial quotient                  -1.001452103803

 !RHF STATE 1.1 Dipole moment           0.34227456     0.62395677    -0.08199316
 Dipole moment /Debye                   0.86997515     1.58593993    -0.20840582

 Orbital energies:

           1.1          2.1          3.1          4.1          5.1          6.1          7.1          8.1          9.1         10.1
    -20.568918   -11.278477    -1.361583    -0.927962    -0.692359    -0.620412    -0.593542    -0.505029    -0.451052     0.034488

          11.1
      0.051706


 HOMO      9.1    -0.451052 =     -12.2737eV
 LUMO     10.1     0.034488 =       0.9385eV
 LUMO-HOMO         0.485540 =      13.2122eV

 Orbitals saved in record  2100.2


 **********************************************************************************************************************************
 DATASETS  * FILE   NREC   LENGTH (MB)   RECORD NAMES
              1      19       54.35       500      610      700      900      950      970     1000      129      960     1100   
                                          VAR    BASINP    GEOM    SYMINP    ZMAT    AOBASIS   BASIS     P2S    ABASIS      S 
                                         1400     1410     1200     1210     1080     1600     1650     1300     1700   
                                           T        V       H0       H01     AOSYM     SMH    MOLCAS    ERIS     OPER   

              2       4        0.57       700     1000      520     2100   
                                         GEOM     BASIS   MCVARS     RHF  

 PROGRAMS   *        TOTAL    HF-SCF       INT
 CPU TIMES  *         0.71      0.24      0.38
 REAL TIME  *         4.33 SEC
 DISK USED  *       128.40 MB
 **********************************************************************************************************************************


 PROGRAM * CCSD (Closed-shell coupled cluster)     Authors: C. Hampel, H.-J. Werner, 1991, M. Deegan, P.J. Knowles, 1992


 Convergence thresholds:  THRVAR = 1.00D-08  THRDEN = 1.00D-06

 CCSD(T)     terms to be evaluated (factor= 1.000)


 Number of core orbitals:           2 (   2 )
 Number of closed-shell orbitals:   7 (   7 )
 Number of external orbitals:      73 (  73 )

 Molecular orbitals read from record     2100.2  Type=RHF/CANONICAL  

 Number of N-1 electron functions:               7
 Number of N-2 electron functions:              28
 Number of singly external CSFs:               511
 Number of doubly external CSFs:            130816
 Total number of CSFs:                      131328

 Length of J-op  integral file:               0.00 MB
 Length of K-op  integral file:               0.52 MB
 Length of 3-ext integral record:             0.00 MB

 Memory could be reduced to 4.15 Mwords without degradation in triples

 Integral transformation finished. Total CPU:   0.13 sec, npass=  1  Memory used:   2.72 MW

 Reference energy:                   -115.06149232

 MP2 singlet pair energy:              -0.23100744
 MP2 triplet pair energy:              -0.12896697
 MP2 correlation energy:               -0.35997441
 MP2 total energy:                   -115.42146674

 SCS-MP2 correlation energy:           -0.35745505   (PS=  1.200000  PT=  0.333333)
 SCS-MP2 total energy:               -115.41894737

 ITER.      SQ.NORM     CORR.ENERGY   TOTAL ENERGY   ENERGY CHANGE        DEN1      VAR(S)    VAR(P)  DIIS     TIME  TIME/IT
   1      1.11568088    -0.38152130  -115.44301362    -0.02154688    -0.01163764  0.18D-02  0.19D-02  1  1     1.13     3.26
   2      1.12504170    -0.38310946  -115.44460178    -0.00158816    -0.00971723  0.29D-04  0.25D-03  2  2     1.31     1.91
   3      1.12765435    -0.38329096  -115.44478328    -0.00018150    -0.00151146  0.22D-04  0.12D-04  3  3     1.45     1.40
   4      1.12841659    -0.38325157  -115.44474389     0.00003939    -0.00034064  0.11D-05  0.11D-05  4  4     1.58     1.09
   5      1.12858803    -0.38324874  -115.44474106     0.00000283    -0.00005637  0.16D-06  0.93D-07  5  5     1.72     0.92
   6      1.12862288    -0.38324666  -115.44473899     0.00000208    -0.00000682  0.30D-07  0.86D-08  6  6     1.92     0.81
   7      1.12863061    -0.38324533  -115.44473765     0.00000133    -0.00000081  0.39D-08  0.13D-08  6  1     2.06     0.72
   8      1.12863353    -0.38324529  -115.44473762     0.00000004    -0.00000028  0.51D-09  0.20D-09  6  2     2.22     0.66
   9      1.12863388    -0.38324527  -115.44473759     0.00000002     0.00000040  0.64D-10  0.25D-10  6  4     2.41     0.61

 Norm of t1 vector:      0.05794005      S-energy:     0.00000005      T1 diagnostic:  0.01094964
                                                                       D1 diagnostic:  0.02776533
                                                                       D2 diagnostic:  0.13667284 (internal)


 Total CPU time for triples:      0.88 sec


 RESULTS
 =======

  Reference energy                   -115.061492324482
  CCSD singlet pair energy             -0.266391964970
  CCSD triplet pair energy             -0.116853346922
  CCSD correlation energy              -0.383245266773

  Triples (T) contribution             -0.010425762326
  Total correlation energy             -0.393671029098

  CCSD total energy                  -115.444737591255
  CCSD[T] energy                     -115.455754309606
  CCSD-T energy                      -115.454897521406
 !CCSD(T) total energy               -115.455163353581

 Timing summary (sec):

 STEP                 CPU(USER)    SYS     CPU(TOT)    WALL
 Transformation          0.14      0.02      0.16      0.59
 CCSD iterations         2.27      0.13      2.40      5.72
 Triples                 0.88      0.05      0.93      0.97

 Program statistics:

 Available memory in ccsd:               805306163
 Min. memory needed in ccsd:                438437
 Max. memory used in ccsd:                  541092
 Max. memory used in cckext:                449501 ( 9 integral passes)



 **********************************************************************************************************************************
 DATASETS  * FILE   NREC   LENGTH (MB)   RECORD NAMES
              1      20       67.15       500      610      700      900      950      970     1000      129      960     1100   
                                          VAR    BASINP    GEOM    SYMINP    ZMAT    AOBASIS   BASIS     P2S    ABASIS      S 
                                         1400     1410     1200     1210     1080     1600     1650     1300     1700     1380   
                                           T        V       H0       H01     AOSYM     SMH    MOLCAS    ERIS     OPER     JKOP   

              2       4        0.57       700     1000      520     2100   
                                         GEOM     BASIS   MCVARS     RHF  

 PROGRAMS   *        TOTAL   CCSD(T)    HF-SCF       INT
 CPU TIMES  *         3.18      2.47      0.24      0.38
 REAL TIME  *        12.03 SEC
 DISK USED  *       128.40 MB
 **********************************************************************************************************************************

 Counterpoise: absolute minimum monomer separation=    -1.000 Bragg radius scale factor=     1.400 Number of monomers= 1
 Counterpoise skipped because only a single monomer


 **********************************************************************************************************************************
 DATASETS  * FILE   NREC   LENGTH (MB)   RECORD NAMES
              1      20       67.15       500      610      700      900      950      970     1000      129      960     1100   
                                          VAR    BASINP    GEOM    SYMINP    ZMAT    AOBASIS   BASIS     P2S    ABASIS      S 
                                         1400     1410     1200     1210     1080     1600     1650     1300     1700     1380   
                                           T        V       H0       H01     AOSYM     SMH    MOLCAS    ERIS     OPER     JKOP   

              2       4        0.57       700     1000      520     2100   
                                         GEOM     BASIS   MCVARS     RHF  

 PROGRAMS   *        TOTALCOUNTERPOI   CCSD(T)    HF-SCF       INT
 CPU TIMES  *         3.18      0.00      2.47      0.24      0.38
 REAL TIME  *        12.05 SEC
 DISK USED  *       128.40 MB
 **********************************************************************************************************************************

 Dump information in style XML to xml output                                                                      

 Orbitals will not be exported.

 **********************************************************************************************************************************

 CCSD(T)/aug-cc-pVDZ energy=   -115.455163353581

         CCSD(T)          HF-SCF
   -115.45516335   -115.06149232
 **********************************************************************************************************************************
 Molpro calculation terminated
