
 Working directory              : /var/folders/2v/xbgp75_9785319ghcgb4zr4r0000gp/T//molpro.vsIkmzvvq7/
 Global scratch directory       : /var/folders/2v/xbgp75_9785319ghcgb4zr4r0000gp/T//molpro.vsIkmzvvq7/
 Wavefunction directory         : /Users/sacpjk/wfu/
 Main file repository           : /var/folders/2v/xbgp75_9785319ghcgb4zr4r0000gp/T//molpro.vsIkmzvvq7/

 id        : peterk

 Nodes                        nprocs
 Cardiff-University-G34YLXT77Y    1
 GA implementation: MPI file
 GA implementation (serial work in mppx): MPI file

 Using customized tuning parameters: mindgm=1; mindgv=20; mindgc=4; mindgr=1; noblas=0; minvec=7
 default implementation of scratch files=df  


 Variables initialized (1032), CPU time= 0.00 sec
 
 symmetry,nosym
 
 
 geometry={
           18
     SI         0.67139927      0.96171872      1.80521348
     SI        -0.67139927     -0.96171872      1.80521348
     SI         0.00000000     -2.31395795      0.00000000
     SI         0.67139927     -0.96171872     -1.80521348
     SI        -0.67139927      0.96171872     -1.80521348
     SI         0.00000000      2.31395795      0.00000000
     H          2.08573887      0.54782614      1.59489390
     H          0.59761219      1.71115483      3.08849794
     H         -0.59761219     -1.71115483      3.08849794
     H         -2.08573887     -0.54782614      1.59489390
     H         -1.12581429     -3.18741508     -0.42917386
     H          1.12581429     -3.18741508      0.42917386
     H          2.08573887     -0.54782614     -1.59489390
     H          0.59761219     -1.71115483     -3.08849794
     H         -2.08573887      0.54782614     -1.59489390
     H         -0.59761219      1.71115483     -3.08849794
     H         -1.12581429      3.18741508      0.42917386
     H          1.12581429      3.18741508     -0.42917386
 }
 basis=cc-pVDZ
 
 
 
 hf; mp4
 
 
 
 {put,xml;noorbitals,nobasis}
 Commands initialized (841), CPU time= 0.01 sec, 704 directives.
 Default parameters read. Elapsed time= 0.22 sec

 Checking input...
 Passed
1


                                         ***  PROGRAM SYSTEM MOLPRO  ***
                                       Copyright, TTI GmbH Stuttgart, 2015
                                    Version 2023.1 linked Tue Jun  6 09:54:11 2023


 **********************************************************************************************************************************
 LABEL *                                                                                                                                                                 
  64 bit serial version                                                                  DATE: 13-Jun-23          TIME: 00:08:24  
 **********************************************************************************************************************************

 SHA1:             8ebb0dd001088a5c915591db1a321413035db0b1
 **********************************************************************************************************************************

 Memory per process:       393 MW
 Total memory per node:    524 MW
 Total GA space:           131 MW

 GA preallocation disabled
 GA check enabled

 Variable memory set to 393.2 MW

 ZSYMEL=NOSYM


 Geometry recognized as XYZ

 SETTING BASIS          =    CC-PVDZ


 Recomputing integrals since basis changed


 Using spherical harmonics

 Library entry SI     S cc-pVDZ              selected for orbital group  1
 Library entry SI     P cc-pVDZ              selected for orbital group  1
 Library entry SI     D cc-pVDZ              selected for orbital group  1
 Library entry H      S cc-pVDZ              selected for orbital group  2
 Library entry H      P cc-pVDZ              selected for orbital group  2


 PROGRAM * SEWARD (Integral evaluation for generally contracted gaussian basis sets)     Author: Roland Lindh, 1990

 Geometry written to block  1 of record 700


 Point group  C1  



 ATOMIC COORDINATES

 NR  ATOM    CHARGE       X              Y              Z

   1  SI     14.00    1.268760741    1.817384990    3.411359074
   2  SI     14.00   -1.268760741   -1.817384990    3.411359074
   3  SI     14.00    0.000000000   -4.372746789    0.000000000
   4  SI     14.00    1.268760741   -1.817384990   -3.411359074
   5  SI     14.00   -1.268760741    1.817384990   -3.411359074
   6  SI     14.00    0.000000000    4.372746789    0.000000000
   7  H       1.00    3.941475232    1.035241369    3.013912669
   8  H       1.00    1.129323368    3.233613986    5.836415243
   9  H       1.00   -1.129323368   -3.233613986    5.836415243
  10  H       1.00   -3.941475232   -1.035241369    3.013912669
  11  H       1.00   -2.127480675   -6.023341547   -0.811021055
  12  H       1.00    2.127480675   -6.023341547    0.811021055
  13  H       1.00    3.941475232   -1.035241369   -3.013912669
  14  H       1.00    1.129323368   -3.233613986   -5.836415243
  15  H       1.00   -3.941475232    1.035241369   -3.013912669
  16  H       1.00   -1.129323368    3.233613986   -5.836415243
  17  H       1.00   -2.127480675    6.023341547    0.811021055
  18  H       1.00    2.127480675    6.023341547   -0.811021055

 Bond lengths in Bohr (Angstrom)

 1-2  4.432896127  1-6  4.447133737  1-7  2.813025958  1-8  2.811768976  2-3  4.447133737
     ( 2.345787609)     ( 2.353321827)     ( 1.488589231)     ( 1.487924064)     ( 2.353321827)

  2- 9  2.811768976   2-10  2.813025958   3- 4  4.447133737   3-11  2.812186379   3-12  2.812186379
       ( 1.487924064)       ( 1.488589231)       ( 2.353321827)       ( 1.488144944)       ( 1.488144944)

  4- 5  4.432896127   4-13  2.813025958   4-14  2.811768976   5- 6  4.447133737   5-15  2.813025958
       ( 2.345787609)       ( 1.488589231)       ( 1.487924064)       ( 2.353321827)       ( 1.488589231)

  5-16  2.811768976   6-17  2.812186379   6-18  2.812186379
       ( 1.487924064)       ( 1.488144944)       ( 1.488144944)

 Bond angles

  1- 2- 3  107.92906079   1- 2- 9  112.61930491   1- 2-10  108.41482557   1- 6- 5  109.85553033

  1- 6-17  109.38243490   1- 6-18  110.03864338   2- 1- 6  107.92906079   2- 1- 7  108.41482557

  2- 1- 8  112.61930491   2- 3- 4  109.85553033   2- 3-11  110.03864338   2- 3-12  109.38243490

  3- 2- 9  110.97890823   3- 2-10  108.81137139   3- 4- 5  107.92906079   3- 4-13  108.81137139

  3- 4-14  110.97890823   4- 3-11  109.38243490   4- 3-12  110.03864338   4- 5- 6  107.92906079

  4- 5-15  108.41482557   4- 5-16  112.61930491   5- 4-13  108.41482557   5- 4-14  112.61930491

  5- 6-17  110.03864338   5- 6-18  109.38243490   6- 1- 7  108.81137139   6- 1- 8  110.97890823

  6- 5-15  108.81137139   6- 5-16  110.97890823   7- 1- 8  108.00004762   9- 2-10  108.00004762

 11- 3-12  108.11917112  13- 4-14  108.00004762  15- 5-16  108.00004762  17- 6-18  108.11917112

 NUCLEAR CHARGE:                   96
 NUMBER OF PRIMITIVE AOS:         336
 NUMBER OF SYMMETRY AOS:          330
 NUMBER OF CONTRACTIONS:          168   (  168A   )
 NUMBER OF INNER CORE ORBITALS:     6   (    6A   )
 NUMBER OF OUTER CORE ORBITALS:    24   (   24A   )
 NUMBER OF VALENCE ORBITALS:       36   (   36A   )


 NUCLEAR REPULSION ENERGY  681.30113274


 Eigenvalues of metric

         1 0.189E-02 0.331E-02 0.395E-02 0.631E-02 0.737E-02 0.941E-02 0.951E-02 0.136E-01


 Contracted 2-electron integrals neglected if value below      1.0D-11
 AO integral compression algorithm  1   Integral accuracy      1.0D-11

     342.098 MB (compressed) written to integral file ( 41.2%)


 NUMBER OF SORTED TWO-ELECTRON INTEGRALS:  100770306.     BUFFER LENGTH:  32768
 NUMBER OF SEGMENTS:   7  SEGMENT LENGTH:   15999503      RECORD LENGTH: 524288

 Memory used in sort:      16.56 MW

 SORT1 READ   103847452. AND WROTE    89127263. INTEGRALS IN    258 RECORDS. CPU TIME:     0.85 SEC, REAL TIME:     1.30 SEC
 SORT2 READ    89127263. AND WROTE   100770306. INTEGRALS IN   1305 RECORDS. CPU TIME:     0.79 SEC, REAL TIME:     1.00 SEC

 FILE SIZES:   FILE 1:   373.5 MBYTE,  FILE 4:  1082.2 MBYTE,   TOTAL:   1455.7 MBYTE

 OPERATOR DM      FOR CENTER  0  COORDINATES:    0.000000    0.000000    0.000000


 **********************************************************************************************************************************
 DATASETS  * FILE   NREC   LENGTH (MB)   RECORD NAMES
              1      19      322.98       500      610      700      900      950      970     1000      129      960     1100   
                                          VAR    BASINP    GEOM    SYMINP    ZMAT    AOBASIS   BASIS     P2S    ABASIS      S 
                                         1400     1410     1200     1210     1080     1600     1650     1300     1700   
                                           T        V       H0       H01     AOSYM     SMH    MOLCAS    ERIS     OPER   

 PROGRAMS   *        TOTAL       INT
 CPU TIMES  *         6.28      6.18
 REAL TIME  *         8.26 SEC
 DISK USED  *         1.36 GB
 **********************************************************************************************************************************


 Program * Restricted Hartree-Fock

 Orbital guess generated from atomic densities. Full valence occupancy:   66

 Initial occupancy:  48

 NELEC=   96   SYM=1   MS2= 0   THRE=1.0D-08   THRD=3.2D-06   THRG=3.2D-06  HFMA2=F  DIIS_START=2   DIIS_MAX=10   DIIS_INCORE=F

 Level shifts:    0.00 (CLOSED)    0.00 (OPEN)    0.30 (GAP_MIN)

 ITER           ETOT              DE          GRAD        DDIFF     DIIS  NEXP   TIME(IT)  TIME(TOT)  DIAG
   1    -1740.50681109   -1740.50681109     0.00D+00     0.11D+00     0     0       0.54      1.04    start
   2    -1740.57073116      -0.06392007     0.20D-02     0.61D-02     1     0       0.54      1.58    diag
   3    -1740.57888585      -0.00815468     0.63D-03     0.22D-02     2     0       0.54      2.12    diag
   4    -1740.57927261      -0.00038676     0.16D-03     0.62D-03     3     0       0.54      2.66    diag
   5    -1740.57930456      -0.00003195     0.41D-04     0.19D-03     4     0       0.54      3.20    diag
   6    -1740.57930571      -0.00000115     0.70D-05     0.48D-04     5     0       0.54      3.74    diag
   7    -1740.57930575      -0.00000004     0.13D-05     0.95D-05     6     0       0.55      4.29    diag
   8    -1740.57930575      -0.00000000     0.22D-06     0.12D-05     7     0       0.55      4.84    fixocc
   9    -1740.57930575      -0.00000000     0.51D-07     0.21D-06     0     0       0.53      5.37    diag

 Final occupancy:  48

 !RHF STATE 1.1 Energy              -1740.579305751726
  RHF One-electron energy           -3773.183074467919
  RHF Two-electron energy            1351.302635973294
  RHF Kinetic energy                 1740.873846306584
  RHF Nuclear energy                  681.301132742899
  RHF Virial quotient                  -0.999830808789

 !RHF STATE 1.1 Dipole moment          -0.00000000    -0.00000000     0.00000000
 Dipole moment /Debye                  -0.00000000    -0.00000000     0.00000000

 Orbital energies:

           1.1          2.1          3.1          4.1          5.1          6.1          7.1          8.1          9.1         10.1
    -68.777227   -68.777227   -68.777226   -68.777226   -68.777138   -68.777138    -6.129322    -6.129321    -6.129243    -6.129188

          11.1         12.1         13.1         14.1         15.1         16.1         17.1         18.1         19.1         20.1
     -6.129037    -6.129011    -4.235136    -4.235083    -4.235025    -4.234981    -4.234967    -4.234948    -4.234856    -4.234849

          21.1         22.1         23.1         24.1         25.1         26.1         27.1         28.1         29.1         30.1
     -4.234846    -4.234824    -4.234635    -4.234624    -4.234474    -4.234450    -4.234396    -4.234353    -4.234265    -4.234209

          31.1         32.1         33.1         34.1         35.1         36.1         37.1         38.1         39.1         40.1
     -0.799289    -0.745979    -0.745644    -0.667983    -0.662547    -0.621923    -0.515749    -0.508797    -0.497740    -0.487286

          41.1         42.1         43.1         44.1         45.1         46.1         47.1         48.1         49.1         50.1
     -0.473962    -0.470540    -0.455021    -0.433471    -0.416030    -0.382014    -0.371451    -0.370241     0.098472     0.099457


 HOMO     48.1    -0.370241 =     -10.0748eV
 LUMO     49.1     0.098472 =       2.6796eV
 LUMO-HOMO         0.468713 =      12.7543eV

 Orbitals saved in record  2100.2


 **********************************************************************************************************************************
 DATASETS  * FILE   NREC   LENGTH (MB)   RECORD NAMES
              1      19      322.98       500      610      700      900      950      970     1000      129      960     1100   
                                          VAR    BASINP    GEOM    SYMINP    ZMAT    AOBASIS   BASIS     P2S    ABASIS      S 
                                         1400     1410     1200     1210     1080     1600     1650     1300     1700   
                                           T        V       H0       H01     AOSYM     SMH    MOLCAS    ERIS     OPER   

              2       4        1.12       700     1000      520     2100   
                                         GEOM     BASIS   MCVARS     RHF  

 PROGRAMS   *        TOTAL    HF-SCF       INT
 CPU TIMES  *        11.65      5.37      6.18
 REAL TIME  *        14.79 SEC
 DISK USED  *         1.36 GB
 **********************************************************************************************************************************


 PROGRAM * MP4 (Closed-shell)     Authors: C. Hampel, H.-J. Werner, 1991, M. Deegan, P.J. Knowles, 1992


 Convergence thresholds:  THRVAR = 1.00D-08  THRDEN = 1.00D-06

 MP4(T)     terms to be evaluated (factor= 0.000)


 Number of core orbitals:          30 (  30 )
 Number of closed-shell orbitals:  18 (  18 )
 Number of external orbitals:     120 ( 120 )

 Molecular orbitals read from record     2100.2  Type=RHF/CANONICAL  

 Number of N-1 electron functions:              18
 Number of N-2 electron functions:             171
 Number of singly external CSFs:              2160
 Number of doubly external CSFs:           2333880
 Total number of CSFs:                     2336041

 Length of J-op  integral file:               0.00 MB
 Length of K-op  integral file:               2.00 MB

 Memory could be reduced to 41.35 Mwords without degradation in triples

 Integral transformation finished. Total CPU:   3.30 sec, npass=  1  Memory used:  53.78 MW

 Reference energy:                  -1740.57930575

                        CORR.ENERGY   TOTAL ENERGY   ENERGY CHANGE
 MP2:                   -0.60154722 -1741.18085297    -0.60154722

 SCS-MP2 correlation energy:           -0.62901508   (PS=  1.200000  PT=  0.333333)
 SCS-MP2 total energy:              -1741.20832084

 MP3(D):                -0.70206651 -1741.28137226    -0.10051928
 MP4(DQ):               -0.71336231 -1741.29266806    -0.01129580
 MP4(SDQ):              -0.71825108 -1741.29755683    -0.00488877

 Norm of t1 vector:      0.07755890      S-energy:    -0.00488877      T1 diagnostic:  0.00914040


 Total CPU time for triples:     68.83 sec


 RESULTS
 =======

  Reference energy                  -1740.579305751726
  MP4(SDQ) singlet pair energy         -0.544779385154
  MP4(SDQ) triplet pair energy         -0.168582921098
  MP4(SDQ) correlation energy          -0.718251077119

  Triples contribution                 -0.018470001845
  Total correlation energy             -0.736721078964

  MP4(SDQ) total energy             -1741.297556828845
 !MP4(SDTQ) total energy            -1741.316026830691

 Timing summary (sec):

 STEP                 CPU(USER)    SYS     CPU(TOT)    WALL
 Transformation          3.45      0.26      3.71      3.96
 CCSD iterations        22.74      0.22     22.96     12.35
 Triples                68.83      4.25     73.08     79.35

 Program statistics:

 Available memory in ccsd:               393214656
 Min. memory needed in ccsd:               6134740
 Max. memory used in ccsd:                 8091268
 Max. memory used in cckext:              10019488 ( 1 integral passes)



 **********************************************************************************************************************************
 DATASETS  * FILE   NREC   LENGTH (MB)   RECORD NAMES
              1      20      498.40       500      610      700      900      950      970     1000      129      960     1100   
                                          VAR    BASINP    GEOM    SYMINP    ZMAT    AOBASIS   BASIS     P2S    ABASIS      S 
                                         1400     1410     1200     1210     1080     1600     1650     1300     1700     1380   
                                           T        V       H0       H01     AOSYM     SMH    MOLCAS    ERIS     OPER     JKOP   

              2       4        1.12       700     1000      520     2100   
                                         GEOM     BASIS   MCVARS     RHF  

 PROGRAMS   *        TOTAL       MP4    HF-SCF       INT
 CPU TIMES  *        94.92     83.27      5.37      6.18
 REAL TIME  *       110.56 SEC
 DISK USED  *         1.36 GB
 **********************************************************************************************************************************

 Dump information in style XML to xml output                                                                      

 Orbitals will not be exported.

 **********************************************************************************************************************************

 MP4/cc-pVDZ energy=  -1741.316026830691

             MP4          HF-SCF
  -1741.31602683  -1740.57930575
 **********************************************************************************************************************************
 Molpro calculation terminated
