
 Working directory              : /var/folders/2v/xbgp75_9785319ghcgb4zr4r0000gp/T//molpro.kRSjq6HStt/
 Global scratch directory       : /var/folders/2v/xbgp75_9785319ghcgb4zr4r0000gp/T//molpro.kRSjq6HStt/
 Wavefunction directory         : /Users/sacpjk/wfu/
 Main file repository           : /var/folders/2v/xbgp75_9785319ghcgb4zr4r0000gp/T//molpro.kRSjq6HStt/

 id        : peterk

 Nodes                        nprocs
 Cardiff-University-G34YLXT77Y    1
 GA implementation: MPI file
 GA implementation (serial work in mppx): MPI file

 Using customized tuning parameters: mindgm=1; mindgv=20; mindgc=4; mindgr=1; noblas=0; minvec=7
 default implementation of scratch files=df  


 Variables initialized (1032), CPU time= 0.00 sec
 
 symmetry,nosym
 
 
 geometry={
            6
     CL         0.00000000      0.00000000      2.12296431
     C          0.00000000      0.00000000      0.27246587
     H         -0.51316170     -0.88882214     -0.05531446
     H         -0.51316170      0.88882214     -0.05531446
     H          1.02632340      0.00000000     -0.05531446
     F          0.00000000      0.00000000     -2.22948681
 }
 basis=cc-pVDZ
 
 charge=-1
 
 hf; hf; papt; mp4
 
 
 
 {put,xml;noorbitals,nobasis}
 Commands initialized (841), CPU time= 0.01 sec, 704 directives.
 Default parameters read. Elapsed time= 0.72 sec

 Checking input...
 Passed
1


                                         ***  PROGRAM SYSTEM MOLPRO  ***
                                       Copyright, TTI GmbH Stuttgart, 2015
                                    Version 2023.1 linked Tue Jun  6 09:54:11 2023


 **********************************************************************************************************************************
 LABEL *                                                                                                                                                                 
  64 bit serial version                                                                  DATE: 09-Jun-23          TIME: 16:05:48  
 **********************************************************************************************************************************

 SHA1:             8ebb0dd001088a5c915591db1a321413035db0b1
 **********************************************************************************************************************************

 Memory per process:       805 MW
 Total memory per node:   1074 MW
 Total GA space:           268 MW

 GA preallocation disabled
 GA check enabled

 Variable memory set to 805.3 MW

 ZSYMEL=NOSYM


 Geometry recognized as XYZ

 SETTING BASIS          =    CC-PVDZ
 SETTING CHARGE         =        -1.00000000                                  


 Recomputing integrals since basis changed


 Using spherical harmonics

 Library entry CL     S cc-pVDZ              selected for orbital group  1
 Library entry CL     P cc-pVDZ              selected for orbital group  1
 Library entry CL     D cc-pVDZ              selected for orbital group  1
 Library entry C      S cc-pVDZ              selected for orbital group  2
 Library entry C      P cc-pVDZ              selected for orbital group  2
 Library entry C      D cc-pVDZ              selected for orbital group  2
 Library entry H      S cc-pVDZ              selected for orbital group  3
 Library entry H      P cc-pVDZ              selected for orbital group  3
 Library entry F      S cc-pVDZ              selected for orbital group  4
 Library entry F      P cc-pVDZ              selected for orbital group  4
 Library entry F      D cc-pVDZ              selected for orbital group  4


 PROGRAM * SEWARD (Integral evaluation for generally contracted gaussian basis sets)     Author: Roland Lindh, 1990

 Geometry written to block  1 of record 700


 Point group  C1  



 ATOMIC COORDINATES

 NR  ATOM    CHARGE       X              Y              Z

   1  CL     17.00    0.000000000    0.000000000    4.011821118
   2  C       6.00    0.000000000    0.000000000    0.514885873
   3  H       1.00   -0.969735071   -1.679630418   -0.104529180
   4  H       1.00   -0.969735071    1.679630418   -0.104529180
   5  H       1.00    1.939470141    0.000000000   -0.104529180
   6  F       9.00    0.000000000    0.000000000   -4.213119469

 Bond lengths in Bohr (Angstrom)

 1-2  3.496935246  2-3  2.035981202  2-4  2.035981202  2-5  2.035981197
     ( 1.850498440)     ( 1.077394854)     ( 1.077394854)     ( 1.077394852)

 Bond angles

  1-2-3  107.71209573   1-2-4  107.71209573   1-2-5  107.71209577   3-2-4  111.17159748

  3-2-5  111.17159724   4-2-5  111.17159724

 NUCLEAR CHARGE:                   35
 NUMBER OF PRIMITIVE AOS:         117
 NUMBER OF SYMMETRY AOS:          114
 NUMBER OF CONTRACTIONS:           61   (   61A   )
 NUMBER OF INNER CORE ORBITALS:     1   (    1A   )
 NUMBER OF OUTER CORE ORBITALS:     6   (    6A   )
 NUMBER OF VALENCE ORBITALS:       15   (   15A   )


 NUCLEAR REPULSION ENERGY   86.07628537


 Eigenvalues of metric

         1 0.890E-02 0.165E-01 0.355E-01 0.355E-01 0.390E-01 0.475E-01 0.488E-01 0.488E-01


 Contracted 2-electron integrals neglected if value below      1.0D-11
 AO integral compression algorithm  1   Integral accuracy      1.0D-11

     5.767 MB (compressed) written to integral file ( 34.4%)


 NUMBER OF SORTED TWO-ELECTRON INTEGRALS:    1788886.     BUFFER LENGTH:  32768
 NUMBER OF SEGMENTS:   1  SEGMENT LENGTH:    1788886      RECORD LENGTH: 524288

 Memory used in sort:       2.35 MW

 SORT1 READ     2138905. AND WROTE     1141860. INTEGRALS IN      4 RECORDS. CPU TIME:     0.02 SEC, REAL TIME:     0.02 SEC
 SORT2 READ     1141860. AND WROTE     1788886. INTEGRALS IN     22 RECORDS. CPU TIME:     0.03 SEC, REAL TIME:     0.04 SEC

 FILE SIZES:   FILE 1:    36.0 MBYTE,  FILE 4:    16.8 MBYTE,   TOTAL:     52.8 MBYTE

 OPERATOR DM      FOR CENTER  0  COORDINATES:    0.000000    0.000000    0.000000


 **********************************************************************************************************************************
 DATASETS  * FILE   NREC   LENGTH (MB)   RECORD NAMES
              1      19       33.32       500      610      700      900      950      970     1000      129      960     1100   
                                          VAR    BASINP    GEOM    SYMINP    ZMAT    AOBASIS   BASIS     P2S    ABASIS      S 
                                         1400     1410     1200     1210     1080     1600     1650     1300     1700   
                                           T        V       H0       H01     AOSYM     SMH    MOLCAS    ERIS     OPER   

 PROGRAMS   *        TOTAL       INT
 CPU TIMES  *         0.34      0.22
 REAL TIME  *         3.01 SEC
 DISK USED  *        50.79 MB
 **********************************************************************************************************************************


 Program * Restricted Hartree-Fock

 Orbital guess generated from atomic densities. Full valence occupancy:   22

 Initial occupancy:  18

 NELEC=   36   SYM=1   MS2= 0   THRE=1.0D-08   THRD=3.2D-06   THRG=3.2D-06  HFMA2=F  DIIS_START=2   DIIS_MAX=10   DIIS_INCORE=F

 Level shifts:    0.00 (CLOSED)    0.00 (OPEN)    0.30 (GAP_MIN)

 ITER           ETOT              DE          GRAD        DDIFF     DIIS  NEXP   TIME(IT)  TIME(TOT)  DIAG
   1     -598.43177826    -598.43177826     0.00D+00     0.19D+00     0     0       0.01      0.02    start
   2     -598.49671587      -0.06493761     0.12D-01     0.28D-01     1     0       0.01      0.03    diag
   3     -598.52446024      -0.02774437     0.77D-02     0.97D-02     2     0       0.01      0.04    diag
   4     -598.52511623      -0.00065599     0.61D-03     0.22D-02     3     0       0.01      0.05    diag
   5     -598.52515547      -0.00003923     0.14D-03     0.53D-03     4     0       0.00      0.05    diag
   6     -598.52515842      -0.00000295     0.36D-04     0.16D-03     5     0       0.01      0.06    diag
   7     -598.52515863      -0.00000021     0.96D-05     0.34D-04     6     0       0.01      0.07    diag
   8     -598.52515865      -0.00000002     0.35D-05     0.11D-04     7     0       0.01      0.08    fixocc
   9     -598.52515865      -0.00000000     0.62D-06     0.22D-05     8     0       0.01      0.09    diag
  10     -598.52515865      -0.00000000     0.78D-07     0.23D-06     0     0       0.01      0.10    diag/orth

 Final occupancy:  18

 !RHF STATE 1.1 Energy               -598.525158647441
  RHF One-electron energy           -1008.366950445377
  RHF Two-electron energy             323.765506431140
  RHF Kinetic energy                  598.704080296839
  RHF Nuclear energy                   86.076285366796
  RHF Virial quotient                  -0.999701151779

 !RHF STATE 1.1 Dipole moment           0.00000000     0.00000000     2.12176365
 Dipole moment /Debye                   0.00000000     0.00000000     5.39298527

 Orbital energies:

           1.1          2.1          3.1          4.1          5.1          6.1          7.1          8.1          9.1         10.1
   -104.649559   -25.789258   -11.113975   -10.376468    -7.843819    -7.841147    -7.841147    -1.053403    -0.944287    -0.733279

          11.1         12.1         13.1         14.1         15.1         16.1         17.1         18.1         19.1         20.1
     -0.430063    -0.430063    -0.357899    -0.273956    -0.273956    -0.157576    -0.157576    -0.150539     0.362882     0.400312


 HOMO     18.1    -0.150539 =      -4.0964eV
 LUMO     19.1     0.362882 =       9.8745eV
 LUMO-HOMO         0.513421 =      13.9709eV

 Orbitals saved in record  2100.2


 **********************************************************************************************************************************
 DATASETS  * FILE   NREC   LENGTH (MB)   RECORD NAMES
              1      19       33.32       500      610      700      900      950      970     1000      129      960     1100   
                                          VAR    BASINP    GEOM    SYMINP    ZMAT    AOBASIS   BASIS     P2S    ABASIS      S 
                                         1400     1410     1200     1210     1080     1600     1650     1300     1700   
                                           T        V       H0       H01     AOSYM     SMH    MOLCAS    ERIS     OPER   

              2       4        0.52       700     1000      520     2100   
                                         GEOM     BASIS   MCVARS     RHF  

 PROGRAMS   *        TOTAL    HF-SCF       INT
 CPU TIMES  *         0.44      0.10      0.22
 REAL TIME  *         3.29 SEC
 DISK USED  *        50.79 MB
 **********************************************************************************************************************************


 Program * Restricted Hartree-Fock

 Molecular orbitals read from record     2100.2  Type=RHF/CANONICAL  

 Initial occupancy:  18

 NELEC=   36   SYM=1   MS2= 0   THRE=1.0D-08   THRD=3.2D-06   THRG=3.2D-06  HFMA2=F  DIIS_START=2   DIIS_MAX=10   DIIS_INCORE=F

 Level shifts:    0.00 (CLOSED)    0.00 (OPEN)    0.30 (GAP_MIN)

 ITER           ETOT              DE          GRAD        DDIFF     DIIS  NEXP   TIME(IT)  TIME(TOT)  DIAG
   1     -598.52515865    -598.52515865     0.00D+00     0.18D+00     0     0       0.01      0.01    start
   2     -598.52515865      -0.00000000     0.26D-07     0.76D-07     1     0       0.01      0.02    diag

 Final occupancy:  18

 !RHF STATE 1.1 Energy               -598.525158647441
  RHF One-electron energy           -1008.366951214422
  RHF Two-electron energy             323.765507200185
  RHF Kinetic energy                  598.704081436813
  RHF Nuclear energy                   86.076285366796
  RHF Virial quotient                  -0.999701149875

 !RHF STATE 1.1 Dipole moment           0.00000000     0.00000000     2.12176040
 Dipole moment /Debye                   0.00000000     0.00000000     5.39297700

 Orbital energies:

           1.1          2.1          3.1          4.1          5.1          6.1          7.1          8.1          9.1         10.1
   -104.649559   -25.789258   -11.113974   -10.376468    -7.843819    -7.841147    -7.841147    -1.053403    -0.944286    -0.733279

          11.1         12.1         13.1         14.1         15.1         16.1         17.1         18.1         19.1         20.1
     -0.430063    -0.430063    -0.357899    -0.273956    -0.273956    -0.157576    -0.157576    -0.150539     0.362882     0.400313


 HOMO     18.1    -0.150539 =      -4.0964eV
 LUMO     19.1     0.362882 =       9.8745eV
 LUMO-HOMO         0.513421 =      13.9709eV

 Orbitals saved in record  2101.2


 **********************************************************************************************************************************
 DATASETS  * FILE   NREC   LENGTH (MB)   RECORD NAMES
              1      19       33.32       500      610      700      900      950      970     1000      129      960     1100   
                                          VAR    BASINP    GEOM    SYMINP    ZMAT    AOBASIS   BASIS     P2S    ABASIS      S 
                                         1400     1410     1200     1210     1080     1600     1650     1300     1700   
                                           T        V       H0       H01     AOSYM     SMH    MOLCAS    ERIS     OPER   

              2       5        0.72       700     1000      520     2100     2101   
                                         GEOM     BASIS   MCVARS     RHF      RHF  

 PROGRAMS   *        TOTAL    HF-SCF    HF-SCF       INT
 CPU TIMES  *         0.47      0.02      0.10      0.22
 REAL TIME  *         3.48 SEC
 DISK USED  *        50.79 MB
 **********************************************************************************************************************************


 PROGRAM * PAPT (Closed-shell)     Authors: C. Hampel, H.-J. Werner, 1991, P.J. Knowles, 2021


 Convergence thresholds:  THRVAR = 1.00D-08  THRDEN = 1.00D-06

 Number of core orbitals:           7 (   7 )
 Number of closed-shell orbitals:  11 (  11 )
 Number of external orbitals:      43 (  43 )

 Molecular orbitals read from record     2101.2  Type=RHF/CANONICAL  

 Number of N-1 electron functions:              11
 Number of N-2 electron functions:              66
 Number of singly external CSFs:               473
 Number of doubly external CSFs:            112101
 Total number of CSFs:                      112575

 Length of J-op  integral file:               0.00 MB
 Length of K-op  integral file:               0.32 MB

 Integral transformation finished. Total CPU:   0.02 sec, npass=  1  Memory used:   0.53 MW

 Reference energy:                   -598.52515865

                        CORR.ENERGY   TOTAL ENERGY   ENERGY CHANGE
 MP2:                   -0.47908969  -599.00424833    -0.47908969

 SCS-MP2 correlation energy:           -0.46980482   (PS=  1.200000  PT=  0.333333)
 SCS-MP2 total energy:               -598.99496347
 Iteration:   1     0.4264D+00
 Iteration:   2     0.3601D+01
 Iteration:   3     0.5051D+00
 Iteration:   4     0.4971D+00
 Iteration:   5     0.7574D+00
 Iteration:   6     0.1553D+00
 Iteration:   7     0.4297D+00
 Iteration:   8     0.1153D+00
 Iteration:   9     0.1397D+00
 Iteration:  10     0.7115D-01
 Iteration:  11     0.3175D-01
 Iteration:  12     0.7089D-01
 Iteration:  13     0.1323D-01
 Iteration:  14     0.2352D-01
 Iteration:  15     0.4102D-02
 Iteration:  16     0.2183D-02
 Iteration:  17     0.3799D-02
 Iteration:  18     0.1012D-02
 Iteration:  19     0.2819D-02
 Iteration:  20     0.3424D-03
 Iteration:  21     0.1668D-03
 Iteration:  22     0.1387D-02
 Iteration:  23     0.6255D-04
 PAPT operator written to  7000.1
 PAPT orbitals and eigenvalues written to  7000.2

 MP3(D):                -0.50482957  -599.02998822    -0.02573988



 RESULTS
 =======

  Reference energy                   -598.525158647442
  MP3 singlet pair energy              -0.331915469392
  MP3 triplet pair energy              -0.172914100265
  MP3 correlation energy               -0.504829569657

 !MP3 total energy                   -599.029988217099

 Timing summary (sec):

 STEP                 CPU(USER)    SYS     CPU(TOT)    WALL
 Transformation          0.02      0.00      0.02      0.09
 CCSD iterations         1.00      0.06      1.06      1.06

 Program statistics:

 Available memory in ccsd:               805305866
 Min. memory needed in ccsd:                363005
 Max. memory used in ccsd:                  444581
 Max. memory used in cckext:                562262 ( 1 integral passes)



 **********************************************************************************************************************************
 DATASETS  * FILE   NREC   LENGTH (MB)   RECORD NAMES
              1      21       36.22       500      610      700      900      950      970     1000      129      960     1100   
                                          VAR    BASINP    GEOM    SYMINP    ZMAT    AOBASIS   BASIS     P2S    ABASIS      S 
                                         1400     1410     1200     1210     1080     1600     1650     1300     1700     1380   
                                           T        V       H0       H01     AOSYM     SMH    MOLCAS    ERIS     OPER     JKOP   
                                         7000   
                                        PAPT AO    

              2       6        0.91       700     1000      520     2100     2101     7000   
                                         GEOM     BASIS   MCVARS     RHF      RHF     PAPT   

 PROGRAMS   *        TOTAL      PAPT    HF-SCF    HF-SCF       INT
 CPU TIMES  *         0.93      0.47      0.02      0.10      0.22
 REAL TIME  *         4.74 SEC
 DISK USED  *        50.79 MB
 **********************************************************************************************************************************


 PROGRAM * MP4 (Closed-shell)     Authors: C. Hampel, H.-J. Werner, 1991, M. Deegan, P.J. Knowles, 1992


 Convergence thresholds:  THRVAR = 1.00D-08  THRDEN = 1.00D-06

 MP4(T)     terms to be evaluated (factor= 0.000)


 Number of core orbitals:           7 (   7 )
 Number of closed-shell orbitals:  11 (  11 )
 Number of external orbitals:      43 (  43 )

 Molecular orbitals read from record     7000.2  Type=PAPT/CANONICAL (state 1.1)

 Number of N-1 electron functions:              11
 Number of N-2 electron functions:              66
 Number of singly external CSFs:               473
 Number of doubly external CSFs:            112101
 Total number of CSFs:                      112575

 Length of J-op  integral file:               0.00 MB
 Length of K-op  integral file:               0.32 MB

 Memory could be reduced to 1.45 Mwords without degradation in triples

 Integral transformation finished. Total CPU:   0.04 sec, npass=  1  Memory used:   1.92 MW
 Orbital energies read from record       7000.2  Type=PAPT/CANONICAL (state 1.1)

 Reference energy:                   -598.52515865

                        CORR.ENERGY   TOTAL ENERGY   ENERGY CHANGE
 MP2:                   -0.50982133  -599.03497998    -0.50982133

 SCS-MP2 correlation energy:           -0.50210525   (PS=  1.200000  PT=  0.333333)
 SCS-MP2 total energy:               -599.02726390

 MP3(D):                -0.50998163  -599.03514027    -0.00016029
 MP4(DQ):               -0.50788056  -599.03303921     0.00210106
 MP4(SDQ):              -0.51053516  -599.03569381    -0.00265460

 Norm of t1 vector:      0.05056478      S-energy:    -0.00265460      T1 diagnostic:  0.00762293

 Largest off-diagonal element in interal  block of Fock matrix:  0.10D+00
 Largest off-diagonal element in external block of Fock matrix:  0.17D+00


 Total CPU time for triples:      0.31 sec


 RESULTS
 =======

  Reference energy                   -598.525158647442
  MP4(SDQ) singlet pair energy         -0.334712810558
  MP4(SDQ) triplet pair energy         -0.173167754184
  MP4(SDQ) correlation energy          -0.510535160397

  Triples contribution                 -0.009894685620
  Total correlation energy             -0.520429846017

  MP4(SDQ) total energy              -599.035693807839
 !MP4(SDTQ) total energy             -599.045588493459

 Timing summary (sec):

 STEP                 CPU(USER)    SYS     CPU(TOT)    WALL
 Transformation          0.05      0.01      0.06      0.14
 CCSD iterations         1.20      0.00      1.20      0.31
 Triples                 0.31      0.04      0.35      0.39

 Program statistics:

 Available memory in ccsd:               805305866
 Min. memory needed in ccsd:                363005
 Max. memory used in ccsd:                  444581
 Max. memory used in cckext:                562262 ( 1 integral passes)



 **********************************************************************************************************************************
 DATASETS  * FILE   NREC   LENGTH (MB)   RECORD NAMES
              1      22       39.63       500      610      700      900      950      970     1000      129      960     1100   
                                          VAR    BASINP    GEOM    SYMINP    ZMAT    AOBASIS   BASIS     P2S    ABASIS      S 
                                         1400     1410     1200     1210     1080     1600     1650     1300     1700     1380   
                                           T        V       H0       H01     AOSYM     SMH    MOLCAS    ERIS     OPER     JKOP   
                                         7000     1380(1)
                                        PAPT AO   JKOP   

              2       6        0.91       700     1000      520     2100     2101     7000   
                                         GEOM     BASIS   MCVARS     RHF      RHF     PAPT   

 PROGRAMS   *        TOTAL       MP4      PAPT    HF-SCF    HF-SCF       INT
 CPU TIMES  *         1.47      0.54      0.47      0.02      0.10      0.22
 REAL TIME  *         5.71 SEC
 DISK USED  *        53.58 MB
 **********************************************************************************************************************************

 Dump information in style XML to xml output                                                                      

 Orbitals will not be exported.

 **********************************************************************************************************************************

 MP4/cc-pVDZ energy=   -599.045588493459

             MP4            PAPT          HF-SCF          HF-SCF
   -599.04558849   -599.02998822   -598.52515865   -598.52515865
 **********************************************************************************************************************************
 Molpro calculation terminated
