
 Working directory              : /tmp/peterk/molpro.3uoQ4NBQfp/
 Global scratch directory       : /tmp/peterk/molpro.3uoQ4NBQfp/
 Wavefunction directory         : /home/peterk/wfu/
 Main file repository           : /tmp/peterk/molpro.3uoQ4NBQfp/

 id        : peterk

 Nodes     nprocs
 marat        1
 GA implementation: MPI file
 GA implementation (serial work in mppx): MPI file

 Using customized tuning parameters: mindgm=1; mindgv=20; mindgc=4; mindgr=1; noblas=0; minvec=7
 default implementation of scratch files=df  


 Variables initialized (1032), CPU time= 0.00 sec
 
 core,small
 angstrom
 
 geometry={
 C;H,C,1.10678917;H,C,1.10678917,H,102.02249921
 }
 basis=cc-pCV5Z
 
 
 
 hf; ccsd(t)
 
 
 
 {put,xml;noorbitals,nobasis}
 Commands initialized (841), CPU time= 0.01 sec, 708 directives.
 Default parameters read. Elapsed time= 0.05 sec

 Checking input...
 Passed
1


                                         ***  PROGRAM SYSTEM MOLPRO  ***
                                       Copyright, TTI GmbH Stuttgart, 2015
                                    Version 2023.1 linked Sat Jun 10 08:01:27 2023


 **********************************************************************************************************************************
 LABEL *                                                                                                                                                                 
  (16 PROC) 64 bit serial version                                                        DATE: 12-Jun-23          TIME: 12:49:28  
 **********************************************************************************************************************************

 SHA1:             8376d659ba1296ca7ee514c57770fe2c96af278c
 **********************************************************************************************************************************

 Memory per process:      1074 MW
 Total memory per node:   1074 MW

 GA preallocation disabled
 GA check disabled

 Variable memory set to 1073.7 MW

 ZUNIT=ANG

 SETTING BASIS          =    CC-PCV5Z


 Recomputing integrals since basis changed


 Using spherical harmonics

 Library entry C      S cc-pCV5Z             selected for orbital group  1
 Library entry C      P cc-pCV5Z             selected for orbital group  1
 Library entry C      D cc-pCV5Z             selected for orbital group  1
 Library entry C      F cc-pCV5Z             selected for orbital group  1
 Library entry C      G cc-pCV5Z             selected for orbital group  1
 Library entry C      H cc-pCV5Z             selected for orbital group  1
 Library entry H      S cc-pV5Z              selected for orbital group  2
 Library entry H      P cc-pV5Z              selected for orbital group  2
 Library entry H      D cc-pV5Z              selected for orbital group  2
 Library entry H      F cc-pV5Z              selected for orbital group  2
 Library entry H      G cc-pV5Z              selected for orbital group  2


 PROGRAM * SEWARD (Integral evaluation for generally contracted gaussian basis sets)     Author: Roland Lindh, 1990

 Geometry written to block  1 of record 700

 Orientation using atomic masses  
 Molecule type: Asymmetric top,     Order of principal axis = 2
 Symmetry elements: X,Y
 Rotational constants:     217.0003324    603.7701822    338.7501129 GHz  (calculated with average atomic masses)

 Point group  C2v 



 ATOMIC COORDINATES

 NR  ATOM    CHARGE       X              Y              Z

   1  C       6.00    0.000000000    0.000000000   -0.189118426
   2  H       1.00    0.000000000    1.625681259    1.126803885
   3  H       1.00    0.000000000   -1.625681259    1.126803885

 Bond lengths in Bohr (Angstrom)

 1-2  2.091528409  1-3  2.091528409
     ( 1.106789170)     ( 1.106789170)

 Bond angles

  2-1-3  102.02249921

 NUCLEAR CHARGE:                    8
 NUMBER OF PRIMITIVE AOS:         358
 NUMBER OF SYMMETRY AOS:          278
 NUMBER OF CONTRACTIONS:          255   (   90A1  +   55B1  +   70B2  +   40A2  )
 NUMBER OF INNER CORE ORBITALS:     0   (    0A1  +    0B1  +    0B2  +    0A2  )
 NUMBER OF OUTER CORE ORBITALS:     1   (    1A1  +    0B1  +    0B2  +    0A2  )
 NUMBER OF VALENCE ORBITALS:        6   (    3A1  +    1B1  +    2B2  +    0A2  )


 NUCLEAR REPULSION ENERGY    6.04499440


 Eigenvalues of metric

         1 0.246E-05 0.481E-04 0.204E-03 0.433E-03 0.462E-03 0.895E-03 0.923E-03 0.169E-02
         2 0.439E-03 0.108E-02 0.988E-02 0.318E-01 0.340E-01 0.415E-01 0.465E-01 0.562E-01
         3 0.329E-04 0.194E-03 0.298E-03 0.496E-03 0.156E-02 0.398E-02 0.785E-02 0.103E-01
         4 0.154E-02 0.143E-01 0.407E-01 0.487E-01 0.524E-01 0.668E-01 0.921E-01 0.133E+00


 Contracted 2-electron integrals neglected if value below      1.0D-12
 AO integral compression algorithm  1   Integral accuracy      1.0D-12

     767.820 MB (compressed) written to integral file ( 56.4%)


 NUMBER OF SORTED TWO-ELECTRON INTEGRALS:  135481620.     BUFFER LENGTH:  32768
 NUMBER OF SEGMENTS:   9  SEGMENT LENGTH:   15999900      RECORD LENGTH: 524288

 Memory used in sort:      16.56 MW

 SORT1 READ   170118861. AND WROTE   123498487. INTEGRALS IN    357 RECORDS. CPU TIME:     2.34 SEC, REAL TIME:     3.27 SEC
 SORT2 READ   123498487. AND WROTE   135481620. INTEGRALS IN   2929 RECORDS. CPU TIME:     1.58 SEC, REAL TIME:     2.10 SEC

 FILE SIZES:   FILE 1:   799.3 MBYTE,  FILE 4:  1497.4 MBYTE,   TOTAL:   2296.7 MBYTE

 OPERATOR DM      FOR CENTER  0  COORDINATES:    0.000000    0.000000    0.000000


 **********************************************************************************************************************************
 DATASETS  * FILE   NREC   LENGTH (MB)   RECORD NAMES
              1      19      609.48       500      610      700      900      950      970     1000      129      960     1100   
                                          VAR    BASINP    GEOM    SYMINP    ZMAT    AOBASIS   BASIS     P2S    ABASIS      S 
                                         1400     1410     1200     1210     1080     1600     1650     1300     1700   
                                           T        V       H0       H01     AOSYM     SMH    MOLCAS    ERIS     OPER   

 PROGRAMS   *        TOTAL       INT
 CPU TIMES  *        15.94     15.84
 REAL TIME  *        18.91 SEC
 DISK USED  *         2.14 GB
 **********************************************************************************************************************************


 Program * Restricted Hartree-Fock

 Orbital guess generated from atomic densities. Full valence occupancy:    4   1   2   0

 Initial occupancy:   3   0   1   0

 NELEC=    8   SYM=1   MS2= 0   THRE=1.0D-08   THRD=3.2D-06   THRG=3.2D-06  HFMA2=F  DIIS_START=2   DIIS_MAX=10   DIIS_INCORE=F

 Level shifts:    0.00 (CLOSED)    0.00 (OPEN)    0.30 (GAP_MIN)

 ITER           ETOT              DE          GRAD        DDIFF     DIIS  NEXP   TIME(IT)  TIME(TOT)  DIAG
   1      -38.88446611     -38.88446611     0.00D+00     0.41D-01     0     0       0.39      0.75    start
   2      -38.89541500      -0.01094889     0.52D-02     0.31D-02     1     0       0.35      1.10    diag
   3      -38.89583861      -0.00042361     0.10D-02     0.75D-03     2     0       0.37      1.47    diag
   4      -38.89588692      -0.00004831     0.28D-03     0.23D-03     3     0       0.39      1.86    diag
   5      -38.89589116      -0.00000424     0.69D-04     0.11D-03     4     0       0.37      2.23    diag
   6      -38.89589148      -0.00000031     0.18D-04     0.41D-04     5     0       0.38      2.61    diag
   7      -38.89589148      -0.00000001     0.22D-05     0.61D-05     6     0       0.38      2.99    diag
   8      -38.89589148      -0.00000000     0.44D-06     0.74D-06     7     0       0.36      3.35    fixocc
   9      -38.89589148      -0.00000000     0.86D-07     0.17D-06     0     0       0.39      3.74    diag

 Final occupancy:   3   0   1   0

 !RHF STATE 1.1 Energy                -38.895891483721
  RHF One-electron energy             -63.585589155320
  RHF Two-electron energy              18.644703272799
  RHF Kinetic energy                   38.867156426922
  RHF Nuclear energy                    6.044994398800
  RHF Virial quotient                  -1.000739314615

 !RHF STATE 1.1 Dipole moment           0.00000000     0.00000000     0.75075465
 Dipole moment /Debye                   0.00000000     0.00000000     1.90822799

 Orbital energies:

           1.1          2.1          3.1          4.1          5.1
    -11.292084    -0.893482    -0.396594     0.097591     0.217594

           1.2          2.2
      0.034855     0.260111

           1.3          2.3          3.3
     -0.565931     0.143007     0.221608

           1.4          2.4
      0.484671     0.724872


 HOMO      3.1    -0.396594 =     -10.7919eV
 LUMO      1.2     0.034855 =       0.9484eV
 LUMO-HOMO         0.431449 =      11.7403eV

 Orbitals saved in record  2100.2


 **********************************************************************************************************************************
 DATASETS  * FILE   NREC   LENGTH (MB)   RECORD NAMES
              1      19      609.48       500      610      700      900      950      970     1000      129      960     1100   
                                          VAR    BASINP    GEOM    SYMINP    ZMAT    AOBASIS   BASIS     P2S    ABASIS      S 
                                         1400     1410     1200     1210     1080     1600     1650     1300     1700   
                                           T        V       H0       H01     AOSYM     SMH    MOLCAS    ERIS     OPER   

              2       4        0.70       700     1000      520     2100   
                                         GEOM     BASIS   MCVARS     RHF  

 PROGRAMS   *        TOTAL    HF-SCF       INT
 CPU TIMES  *        19.68      3.73     15.84
 REAL TIME  *        23.19 SEC
 DISK USED  *         2.14 GB
 **********************************************************************************************************************************


 PROGRAM * CCSD (Closed-shell coupled cluster)     Authors: C. Hampel, H.-J. Werner, 1991, M. Deegan, P.J. Knowles, 1992


 CORETYPE=SMALL

 Convergence thresholds:  THRVAR = 1.00D-08  THRDEN = 1.00D-06

 CCSD(T)     terms to be evaluated (factor= 1.000)


 Number of closed-shell orbitals:   4 (   3   0   1   0 )
 Number of external orbitals:     251 (  87  55  69  40 )

 Molecular orbitals read from record     2100.2  Type=RHF/CANONICAL  

 Number of N-1 electron functions:               4
 Number of N-2 electron functions:              10
 Number of singly external CSFs:               330
 Number of doubly external CSFs:            134495
 Total number of CSFs:                      134826

 Length of J-op  integral file:               0.00 MB
 Length of K-op  integral file:               1.27 MB
 Length of 3-ext integral record:             0.00 MB

 Memory could be reduced to 26.61 Mwords without degradation in triples

 Integral transformation finished. Total CPU:   0.97 sec, npass=  1  Memory used:   3.72 MW

 Reference energy:                    -38.89589148

 MP2 singlet pair energy:              -0.16551426
 MP2 triplet pair energy:              -0.03917263
 MP2 correlation energy:               -0.20468690
 MP2 total energy:                    -39.10057838

 SCS-MP2 correlation energy:           -0.22299120   (PS=  1.200000  PT=  0.333333)
 SCS-MP2 total energy:                -39.11888268

 ITER.      SQ.NORM     CORR.ENERGY   TOTAL ENERGY   ENERGY CHANGE        DEN1      VAR(S)    VAR(P)  DIIS     TIME  TIME/IT
   1      1.06389640    -0.22441564   -39.12030712    -0.01972874    -0.01333250  0.45D-03  0.15D-02  1  1    21.85     0.93
   2      1.07235801    -0.22680621   -39.12269769    -0.00239057    -0.00603516  0.23D-04  0.40D-03  2  2    22.68     0.94
   3      1.07816567    -0.22745535   -39.12334684    -0.00064914    -0.00232492  0.69D-05  0.12D-03  3  3    23.57     0.94
   4      1.08265408    -0.22773949   -39.12363097    -0.00028414    -0.00103222  0.17D-05  0.35D-04  4  4    24.41     0.94
   5      1.08614264    -0.22786893   -39.12376041    -0.00012944    -0.00036211  0.22D-06  0.53D-05  5  5    25.26     0.94
   6      1.08734746    -0.22787698   -39.12376847    -0.00000806    -0.00010014  0.90D-07  0.71D-06  6  6    26.15     0.95
   7      1.08755238    -0.22787838   -39.12376986    -0.00000139    -0.00000626  0.34D-07  0.89D-07  6  1    27.03     0.95
   8      1.08760307    -0.22787928   -39.12377076    -0.00000090     0.00000016  0.84D-08  0.72D-08  6  2    27.90     0.95
   9      1.08760617    -0.22787945   -39.12377094    -0.00000017     0.00000072  0.15D-08  0.59D-09  6  3    28.79     0.96

 Norm of t1 vector:      0.03470164      S-energy:     0.00000029      T1 diagnostic:  0.00867541
                                                                       D1 diagnostic:  0.01926754
                                                                       D2 diagnostic:  0.20452169 (internal)

 Doubles amplitudes (print threshold =  0.500E-01):

         I         J         SYM. A    SYM. B    A         B      T(IJ, AB)

         3         3         2         2         1         1     -0.10335221


 Total CPU time for triples:      3.75 sec


 RESULTS
 =======

  Reference energy                    -38.895891483721

  Correlated core orbitals:             1.1
  Orbital energies:                   -11.2921

  CCSD core-core energy                -0.041739057854
  CCSD core-valence energy             -0.013038828453
  CCSD valence correlation energy      -0.173101567109

  CCSD singlet pair energy             -0.188892250198
  CCSD triplet pair energy             -0.038987493374
  CCSD correlation energy              -0.227879453415

  Triples (T) contribution             -0.006052628426
  Total correlation energy             -0.233932081842

  CCSD total energy                   -39.123770937136
  CCSD[T] energy                      -39.129972403973
  CCSD-T energy                       -39.129762449619
 !CCSD(T) total energy                -39.129823565563

 Timing summary (sec):

 STEP                 CPU(USER)    SYS     CPU(TOT)    WALL
 Transformation          0.97      0.19      1.16      1.17
 CCSD iterations        27.83      0.90     28.73      8.65
 Triples                 3.75      0.08      3.83      3.84

 Program statistics:

 Available memory in ccsd:              1073741757
 Min. memory needed in ccsd:                619798
 Max. memory used in ccsd:                  718156
 Max. memory used in cckext:               1162006 ( 9 integral passes)



 **********************************************************************************************************************************
 DATASETS  * FILE   NREC   LENGTH (MB)   RECORD NAMES
              1      20      673.34       500      610      700      900      950      970     1000      129      960     1100   
                                          VAR    BASINP    GEOM    SYMINP    ZMAT    AOBASIS   BASIS     P2S    ABASIS      S 
                                         1400     1410     1200     1210     1080     1600     1650     1300     1700     1380   
                                           T        V       H0       H01     AOSYM     SMH    MOLCAS    ERIS     OPER     JKOP   

              2       4        0.70       700     1000      520     2100   
                                         GEOM     BASIS   MCVARS     RHF  

 PROGRAMS   *        TOTAL   CCSD(T)    HF-SCF       INT
 CPU TIMES  *        32.19     12.52      3.73     15.84
 REAL TIME  *        36.88 SEC
 DISK USED  *         2.14 GB
 **********************************************************************************************************************************

 Dump information in style XML to xml output                                                                      

 Orbitals will not be exported.

 **********************************************************************************************************************************

 CCSD(T)/cc-pCV5Z energy=    -39.129823565563

         CCSD(T)          HF-SCF
    -39.12982357    -38.89589148
 **********************************************************************************************************************************
 Molpro calculation terminated
