
 Working directory              : /var/folders/2v/xbgp75_9785319ghcgb4zr4r0000gp/T//molpro.KlQavm77Wq/
 Global scratch directory       : /var/folders/2v/xbgp75_9785319ghcgb4zr4r0000gp/T//molpro.KlQavm77Wq/
 Wavefunction directory         : /Users/sacpjk/wfu/
 Main file repository           : /var/folders/2v/xbgp75_9785319ghcgb4zr4r0000gp/T//molpro.KlQavm77Wq/

 id        : peterk

 Nodes                        nprocs
 Cardiff-University-G34YLXT77Y    1
 GA implementation: MPI file
 GA implementation (serial work in mppx): MPI file

 Using customized tuning parameters: mindgm=1; mindgv=20; mindgc=4; mindgr=1; noblas=0; minvec=7
 default implementation of scratch files=df  


 Variables initialized (1032), CPU time= 0.00 sec
 
 core,small
 angstrom
 
 geometry={
 H;C,H,1.06553056;N,C,1.15383982,H,180
 }
 basis=cc-pCVQZ
 
 
 
 hf; mp2
 
 
 
 {put,xml;noorbitals,nobasis}
 Commands initialized (841), CPU time= 0.00 sec, 704 directives.
 Default parameters read. Elapsed time= 0.75 sec

 Checking input...
 Passed
1


                                         ***  PROGRAM SYSTEM MOLPRO  ***
                                       Copyright, TTI GmbH Stuttgart, 2015
                                    Version 2023.1 linked Tue Jun  6 09:54:11 2023


 **********************************************************************************************************************************
 LABEL *                                                                                                                                                                 
  64 bit serial version                                                                  DATE: 12-Jun-23          TIME: 10:39:31  
 **********************************************************************************************************************************

 SHA1:             8ebb0dd001088a5c915591db1a321413035db0b1
 **********************************************************************************************************************************

 Memory per process:       393 MW
 Total memory per node:    524 MW
 Total GA space:           131 MW

 GA preallocation disabled
 GA check enabled

 Variable memory set to 393.2 MW

 ZUNIT=ANG

 SETTING BASIS          =    CC-PCVQZ


 Recomputing integrals since basis changed


 Using spherical harmonics

 Library entry H      S cc-pVQZ              selected for orbital group  1
 Library entry H      P cc-pVQZ              selected for orbital group  1
 Library entry H      D cc-pVQZ              selected for orbital group  1
 Library entry H      F cc-pVQZ              selected for orbital group  1
 Library entry C      S cc-pCVQZ             selected for orbital group  2
 Library entry C      P cc-pCVQZ             selected for orbital group  2
 Library entry C      D cc-pCVQZ             selected for orbital group  2
 Library entry C      F cc-pCVQZ             selected for orbital group  2
 Library entry C      G cc-pCVQZ             selected for orbital group  2
 Library entry N      S cc-pCVQZ             selected for orbital group  3
 Library entry N      P cc-pCVQZ             selected for orbital group  3
 Library entry N      D cc-pCVQZ             selected for orbital group  3
 Library entry N      F cc-pCVQZ             selected for orbital group  3
 Library entry N      G cc-pCVQZ             selected for orbital group  3


 PROGRAM * SEWARD (Integral evaluation for generally contracted gaussian basis sets)     Author: Roland Lindh, 1990

 Geometry written to block  1 of record 700

 Orientation using atomic masses  
 Molecule type: Linear
 Symmetry elements: X,Y
 Rotational constants:      44.4511927     44.4511927      0.0000000 GHz  (calculated with average atomic masses)

 Point group  C2v 



 ATOMIC COORDINATES

 NR  ATOM    CHARGE       X              Y              Z

   1  H       1.00    0.000000000    0.000000000   -3.068530878
   2  C       6.00    0.000000000    0.000000000   -1.054969942
   3  N       7.00    0.000000000    0.000000000    1.125471309

 Bond lengths in Bohr (Angstrom)

 1-2  2.013560936  2-3  2.180441251
     ( 1.065530560)     ( 1.153839820)

 Bond angles

  1-2-3  179.99999879

 NUCLEAR CHARGE:                   14
 NUMBER OF PRIMITIVE AOS:         271
 NUMBER OF SYMMETRY AOS:          226
 NUMBER OF CONTRACTIONS:          198   (   81A1  +   47B1  +   47B2  +   23A2  )
 NUMBER OF INNER CORE ORBITALS:     0   (    0A1  +    0B1  +    0B2  +    0A2  )
 NUMBER OF OUTER CORE ORBITALS:     2   (    2A1  +    0B1  +    0B2  +    0A2  )
 NUMBER OF VALENCE ORBITALS:        9   (    5A1  +    2B1  +    2B2  +    0A2  )


 NUCLEAR REPULSION ENERGY   23.91100196

 EXTRA SYMMETRY OF AOS IN SYMMETRY 1:   1 1 1 1 1 1 1 1 2 1   2 1 2 1 1 1 1 1 1 1   1 1 1 1 1 1 1 1 1 2   1 2 1 2 1 2 1 2 1 2
                                        1 2 1 2 1 3 2 1 1 1   1 1 1 1 1 1 1 1 1 1   1 1 1 2 1 2 1 2 1 2   1 2 1 2 1 2 1 2 1 3
                                        2
 EXTRA SYMMETRY OF AOS IN SYMMETRY 2:   1 1 1 1 1 1 2 1 1 1   1 1 1 1 1 1 1 1 1 1   2 1 2 1 2 1 2 1 1 1   1 1 1 1 1 1 1 1 1 1
                                        2 1 2 1 2 1 2
 EXTRA SYMMETRY OF AOS IN SYMMETRY 3:   1 1 1 1 1 1 2 1 1 1   1 1 1 1 1 1 1 1 1 1   2 1 2 1 2 1 2 1 1 1   1 1 1 1 1 1 1 1 1 1
                                        2 1 2 1 2 1 2
 EXTRA SYMMETRY OF AOS IN SYMMETRY 4:   1 1 1 1 1 1 1 1 1 1   1 1 2 1 1 1 1 1 1 1   1 1 2

 Eigenvalues of metric

         1 0.264E-04 0.272E-04 0.170E-03 0.189E-03 0.727E-03 0.971E-03 0.121E-02 0.145E-02
         2 0.134E-02 0.192E-02 0.370E-02 0.670E-02 0.195E-01 0.499E-01 0.857E-01 0.950E-01
         3 0.134E-02 0.192E-02 0.370E-02 0.670E-02 0.195E-01 0.499E-01 0.857E-01 0.950E-01
         4 0.744E-01 0.110E+00 0.167E+00 0.197E+00 0.367E+00 0.438E+00 0.462E+00 0.481E+00


 Contracted 2-electron integrals neglected if value below      1.0D-12
 AO integral compression algorithm  1   Integral accuracy      1.0D-12

     199.754 MB (compressed) written to integral file ( 40.0%)


 NUMBER OF SORTED TWO-ELECTRON INTEGRALS:   50085456.     BUFFER LENGTH:  32768
 NUMBER OF SEGMENTS:   4  SEGMENT LENGTH:   15999498      RECORD LENGTH: 524288

 Memory used in sort:      16.56 MW

 SORT1 READ    62358122. AND WROTE    33260610. INTEGRALS IN     97 RECORDS. CPU TIME:     0.57 SEC, REAL TIME:     0.68 SEC
 SORT2 READ    33260610. AND WROTE    50085456. INTEGRALS IN    762 RECORDS. CPU TIME:     0.41 SEC, REAL TIME:     0.49 SEC

 FILE SIZES:   FILE 1:   230.7 MBYTE,  FILE 4:   406.9 MBYTE,   TOTAL:    637.6 MBYTE

 OPERATOR DM      FOR CENTER  0  COORDINATES:    0.000000    0.000000    0.000000


 **********************************************************************************************************************************
 DATASETS  * FILE   NREC   LENGTH (MB)   RECORD NAMES
              1      19      184.56       500      610      700      900      950      970     1000      129      960     1100   
                                          VAR    BASINP    GEOM    SYMINP    ZMAT    AOBASIS   BASIS     P2S    ABASIS      S 
                                         1400     1410     1200     1210     1080     1600     1650     1300     1700   
                                           T        V       H0       H01     AOSYM     SMH    MOLCAS    ERIS     OPER   

 PROGRAMS   *        TOTAL       INT
 CPU TIMES  *         4.61      4.52
 REAL TIME  *         7.18 SEC
 DISK USED  *       608.43 MB
 **********************************************************************************************************************************


 Program * Restricted Hartree-Fock

 Orbital guess generated from atomic densities. Full valence occupancy:    7   2   2   0

 Initial occupancy:   5   1   1   0

 NELEC=   14   SYM=1   MS2= 0   THRE=1.0D-08   THRD=3.2D-06   THRG=3.2D-06  HFMA2=F  DIIS_START=2   DIIS_MAX=10   DIIS_INCORE=F

 Level shifts:    0.00 (CLOSED)    0.00 (OPEN)    0.30 (GAP_MIN)

 ITER           ETOT              DE          GRAD        DDIFF     DIIS  NEXP   TIME(IT)  TIME(TOT)  DIAG
   1      -92.88997945     -92.88997945     0.00D+00     0.66D-01     0     0       0.11      0.22    start
   2      -92.89897910      -0.00899965     0.71D-02     0.71D-02     1     0       0.12      0.34    diag
   3      -92.91422267      -0.01524357     0.63D-02     0.37D-02     2     0       0.12      0.46    diag
   4      -92.91445304      -0.00023037     0.53D-03     0.57D-03     3     0       0.12      0.58    diag
   5      -92.91446622      -0.00001317     0.11D-03     0.17D-03     4     0       0.12      0.70    diag
   6      -92.91446700      -0.00000078     0.31D-04     0.40D-04     5     0       0.12      0.82    diag
   7      -92.91446707      -0.00000008     0.11D-04     0.14D-04     6     0       0.12      0.94    diag
   8      -92.91446708      -0.00000000     0.24D-05     0.26D-05     7     0       0.13      1.07    fixocc
   9      -92.91446708      -0.00000000     0.27D-06     0.27D-06     0     0       0.12      1.19    diag

 Final occupancy:   5   1   1   0

 !RHF STATE 1.1 Energy                -92.914467075476
  RHF One-electron energy            -172.625534570246
  RHF Two-electron energy              55.800065535080
  RHF Kinetic energy                   92.723964150976
  RHF Nuclear energy                   23.911001959690
  RHF Virial quotient                  -1.002054516610

 !RHF STATE 1.1 Dipole moment           0.00000000     0.00000000    -1.29122920
 Dipole moment /Debye                   0.00000000     0.00000000    -3.28197725

 Orbital energies:

           1.1          2.1          3.1          4.1          5.1          6.1          7.1
    -15.598067   -11.290965    -1.235781    -0.812987    -0.582042     0.116515     0.185633

           1.2          2.2          3.2
     -0.496432     0.152045     0.337799

           1.3          2.3          3.3
     -0.496432     0.152045     0.337799

           1.4          2.4
      0.597369     1.074367


 HOMO      1.3    -0.496432 =     -13.5086eV
 LUMO      6.1     0.116515 =       3.1705eV
 LUMO-HOMO         0.612947 =      16.6791eV

 Orbitals saved in record  2100.2


 **********************************************************************************************************************************
 DATASETS  * FILE   NREC   LENGTH (MB)   RECORD NAMES
              1      19      184.56       500      610      700      900      950      970     1000      129      960     1100   
                                          VAR    BASINP    GEOM    SYMINP    ZMAT    AOBASIS   BASIS     P2S    ABASIS      S 
                                         1400     1410     1200     1210     1080     1600     1650     1300     1700   
                                           T        V       H0       H01     AOSYM     SMH    MOLCAS    ERIS     OPER   

              2       4        0.59       700     1000      520     2100   
                                         GEOM     BASIS   MCVARS     RHF  

 PROGRAMS   *        TOTAL    HF-SCF       INT
 CPU TIMES  *         5.80      1.19      4.52
 REAL TIME  *         9.45 SEC
 DISK USED  *       608.43 MB
 **********************************************************************************************************************************


 PROGRAM * MP2 (Closed-shell)     Authors: C. Hampel, H.-J. Werner, 1991, M. Deegan, P.J. Knowles, 1992


 CORETYPE=SMALL

 Convergence thresholds:  THRVAR = 1.00D-08  THRDEN = 1.00D-06

 Number of closed-shell orbitals:   7 (   5   1   1   0 )
 Number of external orbitals:     191 (  76  46  46  23 )

 Molecular orbitals read from record     2100.2  Type=RHF/CANONICAL  

 Number of N-1 electron functions:               7
 Number of N-2 electron functions:              28
 Number of singly external CSFs:               472
 Number of doubly external CSFs:            241726
 Total number of CSFs:                      242199

 Length of J-op  integral file:               0.00 MB
 Length of K-op  integral file:               0.85 MB

 Integral transformation finished. Total CPU:   0.23 sec, npass=  1  Memory used:   0.45 MW

 Memory needed for MP2:                      0.06 MW

 SCS-MP2 correlation energy:           -0.485949795615   (PS=  1.200000  PT=  0.333333)
 SCS-MP2 total energy:                -93.400416871091


  Reference energy                    -92.914467075476

  Correlated core orbitals:             1.1       2.1
  Orbital energies:                   -15.5981  -11.2910

  MP2 core-core energy                 -0.078299893082
  MP2 core-valence energy              -0.028874231292
  MP2 valence correlation energy       -0.369177597891

  MP2 singlet pair energy              -0.328072791509
  MP2 triplet pair energy              -0.148278930756
  MP2 correlation energy               -0.476351722265

 !MP2 total energy                    -93.390818797741


 **********************************************************************************************************************************
 DATASETS  * FILE   NREC   LENGTH (MB)   RECORD NAMES
              1      20      188.21       500      610      700      900      950      970     1000      129      960     1100   
                                          VAR    BASINP    GEOM    SYMINP    ZMAT    AOBASIS   BASIS     P2S    ABASIS      S 
                                         1400     1410     1200     1210     1080     1600     1650     1300     1700     1380   
                                           T        V       H0       H01     AOSYM     SMH    MOLCAS    ERIS     OPER     JKOP   

              2       4        0.59       700     1000      520     2100   
                                         GEOM     BASIS   MCVARS     RHF  

 PROGRAMS   *        TOTAL       MP2    HF-SCF       INT
 CPU TIMES  *         6.06      0.26      1.19      4.52
 REAL TIME  *        10.94 SEC
 DISK USED  *       608.43 MB
 **********************************************************************************************************************************

 Dump information in style XML to xml output                                                                      

 Orbitals will not be exported.

 **********************************************************************************************************************************

 MP2/cc-pCVQZ energy=    -93.390818797741

             MP2          HF-SCF
    -93.39081880    -92.91446708
 **********************************************************************************************************************************
 Molpro calculation terminated
