
 Working directory              : /var/folders/2v/xbgp75_9785319ghcgb4zr4r0000gp/T//molpro.76aCRTwI0w/
 Global scratch directory       : /var/folders/2v/xbgp75_9785319ghcgb4zr4r0000gp/T//molpro.76aCRTwI0w/
 Wavefunction directory         : /Users/sacpjk/wfu/
 Main file repository           : /var/folders/2v/xbgp75_9785319ghcgb4zr4r0000gp/T//molpro.76aCRTwI0w/

 id        : peterk

 Nodes                        nprocs
 Cardiff-University-G34YLXT77Y    1
 GA implementation: MPI file
 GA implementation (serial work in mppx): MPI file

 Using customized tuning parameters: mindgm=1; mindgv=20; mindgc=4; mindgr=1; noblas=0; minvec=7
 default implementation of scratch files=df  


 Variables initialized (1032), CPU time= 0.01 sec
 
 symmetry,nosym
 
 
 geometry={
            7
     F          2.24953292     -0.16163470     -0.00906451
     C          0.83989310      0.02030650      0.00310752
     H          0.35178382     -0.87134447     -0.36481550
     H          0.52242274      0.21318049      1.01958309
     H          0.60022397      0.86229312     -0.63454561
     O         -1.81896698     -0.15832046     -0.00598050
     H         -2.74488958      0.09551952     -0.00828450
 }
 basis=cc-pVTZ
 
 charge=-1
 
 hf; hf; papt; mp3
 
 
 
 {put,xml;noorbitals,nobasis}
 Commands initialized (841), CPU time= 0.00 sec, 704 directives.
 Default parameters read. Elapsed time= 1.01 sec

 Checking input...
 Passed
1


                                         ***  PROGRAM SYSTEM MOLPRO  ***
                                       Copyright, TTI GmbH Stuttgart, 2015
                                    Version 2023.1 linked Tue Jun  6 09:54:11 2023


 **********************************************************************************************************************************
 LABEL *                                                                                                                                                                 
  64 bit serial version                                                                  DATE: 09-Jun-23          TIME: 15:37:16  
 **********************************************************************************************************************************

 SHA1:             8ebb0dd001088a5c915591db1a321413035db0b1
 **********************************************************************************************************************************

 Memory per process:       805 MW
 Total memory per node:   1074 MW
 Total GA space:           268 MW

 GA preallocation disabled
 GA check enabled

 Variable memory set to 805.3 MW

 ZSYMEL=NOSYM


 Geometry recognized as XYZ

 SETTING BASIS          =    CC-PVTZ
 SETTING CHARGE         =        -1.00000000                                  


 Recomputing integrals since basis changed


 Using spherical harmonics

 Library entry F      S cc-pVTZ              selected for orbital group  1
 Library entry F      P cc-pVTZ              selected for orbital group  1
 Library entry F      D cc-pVTZ              selected for orbital group  1
 Library entry F      F cc-pVTZ              selected for orbital group  1
 Library entry C      S cc-pVTZ              selected for orbital group  2
 Library entry C      P cc-pVTZ              selected for orbital group  2
 Library entry C      D cc-pVTZ              selected for orbital group  2
 Library entry C      F cc-pVTZ              selected for orbital group  2
 Library entry H      S cc-pVTZ              selected for orbital group  3
 Library entry H      P cc-pVTZ              selected for orbital group  3
 Library entry H      D cc-pVTZ              selected for orbital group  3
 Library entry O      S cc-pVTZ              selected for orbital group  4
 Library entry O      P cc-pVTZ              selected for orbital group  4
 Library entry O      D cc-pVTZ              selected for orbital group  4
 Library entry O      F cc-pVTZ              selected for orbital group  4


 PROGRAM * SEWARD (Integral evaluation for generally contracted gaussian basis sets)     Author: Roland Lindh, 1990

 Geometry written to block  1 of record 700


 Point group  C1  



 ATOMIC COORDINATES

 NR  ATOM    CHARGE       X              Y              Z

   1  F       9.00    4.251001127   -0.305445315   -0.017129441
   2  C       6.00    1.587167933    0.038373724    0.005872362
   3  H       1.00    0.664775075   -1.646602409   -0.689401381
   4  H       1.00    0.987235900    0.402852741    1.926732801
   5  H       1.00    1.134258917    1.629497836   -1.199117416
   6  O       8.00   -3.437349422   -0.299182309   -0.011301507
   7  H       1.00   -5.187089549    0.180505732   -0.015655436

 Bond lengths in Bohr (Angstrom)

 1-2  2.686028276  2-3  2.042880008  2-4  2.045108366  2-5  2.046656513  6-7  1.814307054
     ( 1.421384952)     ( 1.081045545)     ( 1.082224741)     ( 1.083043985)     ( 0.960089946)

 Bond angles

  1-2-3  109.83382105   1-2-4  108.77070472   1-2-5  108.29649717   3-2-4  109.52435453

  3-2-5  109.93347062   4-2-5  110.45808017

 NUCLEAR CHARGE:                   27
 NUMBER OF PRIMITIVE AOS:         209
 NUMBER OF SYMMETRY AOS:          190
 NUMBER OF CONTRACTIONS:          146   (  146A   )
 NUMBER OF INNER CORE ORBITALS:     0   (    0A   )
 NUMBER OF OUTER CORE ORBITALS:     3   (    3A   )
 NUMBER OF VALENCE ORBITALS:       16   (   16A   )


 NUCLEAR REPULSION ENERGY   67.43070998


 Eigenvalues of metric

         1 0.122E-02 0.184E-02 0.188E-02 0.248E-02 0.335E-02 0.522E-02 0.741E-02 0.101E-01


 Contracted 2-electron integrals neglected if value below      1.0D-11
 AO integral compression algorithm  1   Integral accuracy      1.0D-11

     194.249 MB (compressed) written to integral file ( 39.1%)


 NUMBER OF SORTED TWO-ELECTRON INTEGRALS:   57582546.     BUFFER LENGTH:  32768
 NUMBER OF SEGMENTS:   4  SEGMENT LENGTH:   15999503      RECORD LENGTH: 524288

 Memory used in sort:      16.56 MW

 SORT1 READ    62108967. AND WROTE    45659278. INTEGRALS IN    134 RECORDS. CPU TIME:     0.42 SEC, REAL TIME:     0.62 SEC
 SORT2 READ    45659278. AND WROTE    57582546. INTEGRALS IN    741 RECORDS. CPU TIME:     0.42 SEC, REAL TIME:     0.51 SEC

 FILE SIZES:   FILE 1:   225.1 MBYTE,  FILE 4:   562.1 MBYTE,   TOTAL:    787.2 MBYTE

 OPERATOR DM      FOR CENTER  0  COORDINATES:    0.000000    0.000000    0.000000


 **********************************************************************************************************************************
 DATASETS  * FILE   NREC   LENGTH (MB)   RECORD NAMES
              1      19      190.04       500      610      700      900      950      970     1000      129      960     1100   
                                          VAR    BASINP    GEOM    SYMINP    ZMAT    AOBASIS   BASIS     P2S    ABASIS      S 
                                         1400     1410     1200     1210     1080     1600     1650     1300     1700   
                                           T        V       H0       H01     AOSYM     SMH    MOLCAS    ERIS     OPER   

 PROGRAMS   *        TOTAL       INT
 CPU TIMES  *         2.29      2.19
 REAL TIME  *         4.78 SEC
 DISK USED  *       751.23 MB
 **********************************************************************************************************************************


 Program * Restricted Hartree-Fock

 Orbital guess generated from atomic densities. Full valence occupancy:   19

 Initial occupancy:  14

 NELEC=   28   SYM=1   MS2= 0   THRE=1.0D-08   THRD=3.2D-06   THRG=3.2D-06  HFMA2=F  DIIS_START=2   DIIS_MAX=10   DIIS_INCORE=F

 Level shifts:    0.00 (CLOSED)    0.00 (OPEN)    0.30 (GAP_MIN)

 ITER           ETOT              DE          GRAD        DDIFF     DIIS  NEXP   TIME(IT)  TIME(TOT)  DIAG
   1     -214.36047022    -214.36047022     0.00D+00     0.70D-01     0     0       0.25      0.49    start
   2     -214.44003655      -0.07956633     0.96D-02     0.14D-01     1     0       0.25      0.74    diag
   3     -214.50325756      -0.06322101     0.73D-02     0.58D-02     2     0       0.24      0.98    diag
   4     -214.50381978      -0.00056221     0.44D-03     0.59D-03     3     0       0.25      1.23    diag
   5     -214.50387462      -0.00005484     0.16D-03     0.21D-03     4     0       0.25      1.48    diag
   6     -214.50388116      -0.00000654     0.57D-04     0.67D-04     5     0       0.25      1.73    diag
   7     -214.50388189      -0.00000073     0.15D-04     0.26D-04     6     0       0.26      1.99    diag
   8     -214.50388196      -0.00000007     0.38D-05     0.88D-05     7     0       0.25      2.24    fixocc
   9     -214.50388196      -0.00000001     0.11D-05     0.24D-05     8     0       0.25      2.49    diag
  10     -214.50388196      -0.00000000     0.27D-06     0.48D-06     0     0       0.25      2.74    diag/orth

 Final occupancy:  14

 !RHF STATE 1.1 Energy               -214.503881963403
  RHF One-electron energy            -437.829008194645
  RHF Two-electron energy             155.894416255833
  RHF Kinetic energy                  214.528222508383
  RHF Nuclear energy                   67.430709975409
  RHF Virial quotient                  -0.999886539194

 !RHF STATE 1.1 Dipole moment           1.53520911     0.46923449     0.01607485
 Dipole moment /Debye                   3.90211235     1.19267512     0.04085819

 Orbital energies:

           1.1          2.1          3.1          4.1          5.1          6.1          7.1          8.1          9.1         10.1
    -26.092630   -20.149053   -11.104343    -1.397254    -0.891733    -0.757678    -0.506326    -0.504962    -0.480985    -0.345580

          11.1         12.1         13.1         14.1         15.1         16.1
     -0.342560    -0.239192    -0.104330    -0.103479     0.323263     0.393373


 HOMO     14.1    -0.103479 =      -2.8158eV
 LUMO     15.1     0.323263 =       8.7964eV
 LUMO-HOMO         0.426741 =      11.6122eV

 Orbitals saved in record  2100.2


 **********************************************************************************************************************************
 DATASETS  * FILE   NREC   LENGTH (MB)   RECORD NAMES
              1      19      190.04       500      610      700      900      950      970     1000      129      960     1100   
                                          VAR    BASINP    GEOM    SYMINP    ZMAT    AOBASIS   BASIS     P2S    ABASIS      S 
                                         1400     1410     1200     1210     1080     1600     1650     1300     1700   
                                           T        V       H0       H01     AOSYM     SMH    MOLCAS    ERIS     OPER   

              2       4        0.82       700     1000      520     2100   
                                         GEOM     BASIS   MCVARS     RHF  

 PROGRAMS   *        TOTAL    HF-SCF       INT
 CPU TIMES  *         5.03      2.74      2.19
 REAL TIME  *         8.09 SEC
 DISK USED  *       751.23 MB
 **********************************************************************************************************************************


 Program * Restricted Hartree-Fock

 Molecular orbitals read from record     2100.2  Type=RHF/CANONICAL  

 Initial occupancy:  14

 NELEC=   28   SYM=1   MS2= 0   THRE=1.0D-08   THRD=3.2D-06   THRG=3.2D-06  HFMA2=F  DIIS_START=2   DIIS_MAX=10   DIIS_INCORE=F

 Level shifts:    0.00 (CLOSED)    0.00 (OPEN)    0.30 (GAP_MIN)

 ITER           ETOT              DE          GRAD        DDIFF     DIIS  NEXP   TIME(IT)  TIME(TOT)  DIAG
   1     -214.50388196    -214.50388196     0.00D+00     0.70D-01     0     0       0.26      0.26    start
   2     -214.50388196      -0.00000000     0.11D-06     0.20D-06     1     0       0.25      0.51    diag

 Final occupancy:  14

 !RHF STATE 1.1 Energy               -214.503881963457
  RHF One-electron energy            -437.828996415115
  RHF Two-electron energy             155.894404476249
  RHF Kinetic energy                  214.528223740127
  RHF Nuclear energy                   67.430709975409
  RHF Virial quotient                  -0.999886533454

 !RHF STATE 1.1 Dipole moment           1.53521986     0.46923266     0.01607485
 Dipole moment /Debye                   3.90213967     1.19267046     0.04085818

 Orbital energies:

           1.1          2.1          3.1          4.1          5.1          6.1          7.1          8.1          9.1         10.1
    -26.092631   -20.149052   -11.104335    -1.397253    -0.891733    -0.757676    -0.506325    -0.504961    -0.480984    -0.345579

          11.1         12.1         13.1         14.1         15.1         16.1
     -0.342558    -0.239190    -0.104331    -0.103479     0.323263     0.393373


 HOMO     14.1    -0.103479 =      -2.8158eV
 LUMO     15.1     0.323263 =       8.7964eV
 LUMO-HOMO         0.426742 =      11.6122eV

 Orbitals saved in record  2101.2


 **********************************************************************************************************************************
 DATASETS  * FILE   NREC   LENGTH (MB)   RECORD NAMES
              1      19      190.04       500      610      700      900      950      970     1000      129      960     1100   
                                          VAR    BASINP    GEOM    SYMINP    ZMAT    AOBASIS   BASIS     P2S    ABASIS      S 
                                         1400     1410     1200     1210     1080     1600     1650     1300     1700   
                                           T        V       H0       H01     AOSYM     SMH    MOLCAS    ERIS     OPER   

              2       5        1.50       700     1000      520     2100     2101   
                                         GEOM     BASIS   MCVARS     RHF      RHF  

 PROGRAMS   *        TOTAL    HF-SCF    HF-SCF       INT
 CPU TIMES  *         5.55      0.52      2.74      2.19
 REAL TIME  *         8.81 SEC
 DISK USED  *       751.23 MB
 **********************************************************************************************************************************


 PROGRAM * PAPT (Closed-shell)     Authors: C. Hampel, H.-J. Werner, 1991, P.J. Knowles, 2021


 Convergence thresholds:  THRVAR = 1.00D-08  THRDEN = 1.00D-06

 Number of core orbitals:           3 (   3 )
 Number of closed-shell orbitals:  11 (  11 )
 Number of external orbitals:     132 ( 132 )

 Molecular orbitals read from record     2101.2  Type=RHF/CANONICAL  

 Number of N-1 electron functions:              11
 Number of N-2 electron functions:              66
 Number of singly external CSFs:              1452
 Number of doubly external CSFs:           1054878
 Total number of CSFs:                     1056331

 Length of J-op  integral file:               0.00 MB
 Length of K-op  integral file:               1.53 MB

 Integral transformation finished. Total CPU:   0.45 sec, npass=  1  Memory used:   2.81 MW

 Reference energy:                   -214.50388196

                        CORR.ENERGY   TOTAL ENERGY   ENERGY CHANGE
 MP2:                   -0.70407927  -215.20796123    -0.70407927

 SCS-MP2 correlation energy:           -0.69690121   (PS=  1.200000  PT=  0.333333)
 SCS-MP2 total energy:               -215.20078317
 Iteration:   1     0.2458D+00
 Iteration:   2     0.2570D+00
 Iteration:   3     0.1370D+00
 Iteration:   4     0.8379D-01
 Iteration:   5     0.3662D+00
 Iteration:   6     0.8753D-01
 Iteration:   7     0.1083D+00
 Iteration:   8     0.7560D-01
 Iteration:   9     0.6950D-01
 Iteration:  10     0.3780D-01
 Iteration:  11     0.2231D-01
 Iteration:  12     0.2184D-01
 Iteration:  13     0.7109D-02
 Iteration:  14     0.1088D-01
 Iteration:  15     0.8662D-02
 Iteration:  16     0.2880D-02
 Iteration:  17     0.3295D-02
 Iteration:  18     0.3290D-02
 Iteration:  19     0.1019D-02
 Iteration:  20     0.6464D-01
 Iteration:  21     0.3679D-03
 Iteration:  22     0.2300D-03
 Iteration:  23     0.5954D-03
 Iteration:  24     0.4461D-04
 PAPT operator written to  7000.1
 PAPT orbitals and eigenvalues written to  7000.2

 MP3(D):                -0.71428456  -215.21816652    -0.01020529



 RESULTS
 =======

  Reference energy                   -214.503881963457
  MP3 singlet pair energy              -0.480068661173
  MP3 triplet pair energy              -0.234215894129
  MP3 correlation energy               -0.714284555303

 !MP3 total energy                   -215.218166518759

 Timing summary (sec):

 STEP                 CPU(USER)    SYS     CPU(TOT)    WALL
 Transformation          0.49      0.04      0.53      0.69
 CCSD iterations         9.82      0.19     10.01      5.16

 Program statistics:

 Available memory in ccsd:               805305870
 Min. memory needed in ccsd:               2884166
 Max. memory used in ccsd:                 3801126
 Max. memory used in cckext:               3019439 ( 1 integral passes)



 **********************************************************************************************************************************
 DATASETS  * FILE   NREC   LENGTH (MB)   RECORD NAMES
              1      21      206.58       500      610      700      900      950      970     1000      129      960     1100   
                                          VAR    BASINP    GEOM    SYMINP    ZMAT    AOBASIS   BASIS     P2S    ABASIS      S 
                                         1400     1410     1200     1210     1080     1600     1650     1300     1700     1380   
                                           T        V       H0       H01     AOSYM     SMH    MOLCAS    ERIS     OPER     JKOP   
                                         7000   
                                        PAPT AO    

              2       6        2.08       700     1000      520     2100     2101     7000   
                                         GEOM     BASIS   MCVARS     RHF      RHF     PAPT   

 PROGRAMS   *        TOTAL      PAPT    HF-SCF    HF-SCF       INT
 CPU TIMES  *        10.22      4.67      0.52      2.74      2.19
 REAL TIME  *        14.79 SEC
 DISK USED  *       751.23 MB
 **********************************************************************************************************************************


 PROGRAM * MP3 (Closed-shell)     Authors: C. Hampel, H.-J. Werner, 1991, M. Deegan, P.J. Knowles, 1992


 Convergence thresholds:  THRVAR = 1.00D-08  THRDEN = 1.00D-06

 Number of core orbitals:           3 (   3 )
 Number of closed-shell orbitals:  11 (  11 )
 Number of external orbitals:     132 ( 132 )

 Molecular orbitals read from record     7000.2  Type=PAPT/CANONICAL (state 1.1)

 Number of N-1 electron functions:              11
 Number of N-2 electron functions:              66
 Number of singly external CSFs:              1452
 Number of doubly external CSFs:           1054878
 Total number of CSFs:                     1056331

 Length of J-op  integral file:               0.00 MB
 Length of K-op  integral file:               1.53 MB

 Integral transformation finished. Total CPU:   0.45 sec, npass=  1  Memory used:   2.81 MW
 Orbital energies read from record       7000.2  Type=PAPT/CANONICAL (state 1.1)

 Reference energy:                   -214.50388196

                        CORR.ENERGY   TOTAL ENERGY   ENERGY CHANGE
 MP2:                   -0.72060461  -215.22448658    -0.72060461

 SCS-MP2 correlation energy:           -0.71620426   (PS=  1.200000  PT=  0.333333)
 SCS-MP2 total energy:               -215.22008622

 MP3(D):                -0.72079667  -215.22467863    -0.00019206



 RESULTS
 =======

  Reference energy                   -214.503881963456
  MP3 singlet pair energy              -0.484995591799
  MP3 triplet pair energy              -0.235801078478
  MP3 correlation energy               -0.720796670277

 !MP3 total energy                   -215.224678633733

 Timing summary (sec):

 STEP                 CPU(USER)    SYS     CPU(TOT)    WALL
 Transformation          0.73      0.07      0.80      0.94
 CCSD iterations        11.47      0.08     11.55      1.50

 Program statistics:

 Available memory in ccsd:               805305870
 Min. memory needed in ccsd:               2884166
 Max. memory used in ccsd:                 3801126
 Max. memory used in cckext:               3019439 ( 1 integral passes)



 **********************************************************************************************************************************
 DATASETS  * FILE   NREC   LENGTH (MB)   RECORD NAMES
              1      21      206.58       500      610      700      900      950      970     1000      129      960     1100   
                                          VAR    BASINP    GEOM    SYMINP    ZMAT    AOBASIS   BASIS     P2S    ABASIS      S 
                                         1400     1410     1200     1210     1080     1600     1650     1300     1700     1380   
                                           T        V       H0       H01     AOSYM     SMH    MOLCAS    ERIS     OPER     JKOP   
                                         7000   
                                        PAPT AO    

              2       6        2.08       700     1000      520     2100     2101     7000   
                                         GEOM     BASIS   MCVARS     RHF      RHF     PAPT   

 PROGRAMS   *        TOTAL       MP3      PAPT    HF-SCF    HF-SCF       INT
 CPU TIMES  *        12.11      1.89      4.67      0.52      2.74      2.19
 REAL TIME  *        17.36 SEC
 DISK USED  *       751.23 MB
 **********************************************************************************************************************************

 Dump information in style XML to xml output                                                                      

 Orbitals will not be exported.

 **********************************************************************************************************************************

 MP3/cc-pVTZ energy=   -215.224678633733

             MP3            PAPT          HF-SCF          HF-SCF
   -215.22467863   -215.21816652   -214.50388196   -214.50388196
 **********************************************************************************************************************************
 Molpro calculation terminated
