
 Working directory              : /var/folders/2v/xbgp75_9785319ghcgb4zr4r0000gp/T//molpro.OXsRScPyEl/
 Global scratch directory       : /var/folders/2v/xbgp75_9785319ghcgb4zr4r0000gp/T//molpro.OXsRScPyEl/
 Wavefunction directory         : /Users/sacpjk/wfu/
 Main file repository           : /var/folders/2v/xbgp75_9785319ghcgb4zr4r0000gp/T//molpro.OXsRScPyEl/

 id        : peterk

 Nodes                        nprocs
 Cardiff-University-G34YLXT77Y    1
 GA implementation: MPI file
 GA implementation (serial work in mppx): MPI file

 Using customized tuning parameters: mindgm=1; mindgv=20; mindgc=4; mindgr=1; noblas=0; minvec=7
 default implementation of scratch files=df  


 Variables initialized (1037), CPU time= 0.00 sec
 
 symmetry,nosym
 
 
 geometry={
 12
  c         -2.459218126015    0.916788348978   -0.670797774233
  h         -1.741270501936    1.550721280027   -1.134404942908
  c         -3.234931287824    0.163959749385   -0.120222176892
  h         -3.929358797758   -0.484782139703    0.354183664714
  c          0.985794039147    0.047853878952   -0.034259673957
  o          0.731614981215    1.003956126123   -0.733097422222
  o          0.037889420139   -0.726486347779    0.533426931046
  h         -0.823109967671   -0.359187360778    0.265655788796
  c          2.361429192151   -0.433595950547    0.315891233766
  h          3.099815005257    0.203954137134   -0.154959090250
  h          2.487639707965   -0.421741224987    1.395926558104
  h          2.483706335065   -1.461440496700   -0.017343096018
 }
 basis=aug-cc-pVTZ
 
 
 
 hf; hf; papt; mp4
 
 
 
 {put,xml;noorbitals,nobasis}
 Commands initialized (841), CPU time= 0.00 sec, 716 directives.
 Default parameters read. Elapsed time= 3.47 sec

 Checking input...
 Passed
1


                                         ***  PROGRAM SYSTEM MOLPRO  ***
                                       Copyright, TTI GmbH Stuttgart, 2015
                                    Version 2023.1 linked Fri Jul 14 07:57:55 2023


 **********************************************************************************************************************************
 LABEL *                                                                                                                                                                 
  64 bit serial version                                                                  DATE: 16-Jul-23          TIME: 00:35:25  
 **********************************************************************************************************************************

 SHA1:             8f90ea6339eadc8ec4622dc21e4296b0c92029f5
 **********************************************************************************************************************************

 Memory per process:      1573 MW
 Total memory per node:   2097 MW
 Total GA space:           524 MW

 GA preallocation disabled
 GA check enabled

 Variable memory set to 1572.9 MW

 ZSYMEL=NOSYM


 Geometry recognized as XYZ

 SETTING BASIS          =    AUG-CC-PVTZ


 Recomputing integrals since basis changed


 Using spherical harmonics

 Library entry C      S aug-cc-pVTZ          selected for orbital group  1
 Library entry C      P aug-cc-pVTZ          selected for orbital group  1
 Library entry C      D aug-cc-pVTZ          selected for orbital group  1
 Library entry C      F aug-cc-pVTZ          selected for orbital group  1
 Library entry H      S aug-cc-pVTZ          selected for orbital group  2
 Library entry H      P aug-cc-pVTZ          selected for orbital group  2
 Library entry H      D aug-cc-pVTZ          selected for orbital group  2
 Library entry O      S aug-cc-pVTZ          selected for orbital group  6
 Library entry O      P aug-cc-pVTZ          selected for orbital group  6
 Library entry O      D aug-cc-pVTZ          selected for orbital group  6
 Library entry O      F aug-cc-pVTZ          selected for orbital group  6


 PROGRAM * SEWARD (Integral evaluation for generally contracted gaussian basis sets)     Author: Roland Lindh, 1990

 Geometry written to block  1 of record 700


 Point group  C1  



 ATOMIC COORDINATES

 NR  ATOM    CHARGE       X              Y              Z

   1  C       6.00   -4.647248739    1.732478894   -1.267624078
   2  H       1.00   -3.290524358    2.930438515   -2.143714657
   3  C       6.00   -6.113134166    0.309839022   -0.227186988
   4  H       1.00   -7.425411973   -0.916105474    0.669310124
   5  C       6.00    1.862880749    0.090430725   -0.064741401
   6  O       8.00    1.382551943    1.897202120   -1.385353351
   7  O       8.00    0.071600627   -1.372860231    1.008030807
   8  H       1.00   -1.555452409   -0.678765739    0.502016684
   9  C       6.00    4.462454436   -0.819377595    0.596947917
  10  H       1.00    5.857801397    0.385417461   -0.292830241
  11  H       1.00    4.700957745   -0.796975411    2.637918885
  12  H       1.00    4.693524747   -2.761722286   -0.032773702

 Bond lengths in Bohr (Angstrom)

 1-2  2.010806555  1-3  2.292429634  3-4  2.007167164  5-6  2.288919954  5-7  2.549655880
     ( 1.064073004)     ( 1.213101520)     ( 1.062147122)     ( 1.211244277)     ( 1.349219787)

  5- 9  2.832554904   7- 8  1.839869299   9-10  2.047004993   9-11  2.054981308   9-12  2.054907712
       ( 1.498923504)       ( 0.973616904)       ( 1.083228393)       ( 1.087449277)       ( 1.087410332)

 Bond angles

  1- 3- 4  178.92211762   2- 1- 3  177.31839716   5- 7- 8  106.80191145   5- 9-10  109.57256808

  5- 9-11  109.57389652   5- 9-12  109.58561376   6- 5- 7  123.25385323   6- 5- 9  125.51430755

  7- 5- 9  111.23183915  10- 9-11  110.25385240  10- 9-12  110.27152505  11- 9-12  107.55443570

 NUCLEAR CHARGE:                   46
 NUMBER OF PRIMITIVE AOS:         564
 NUMBER OF SYMMETRY AOS:          498
 NUMBER OF CONTRACTIONS:          414   (  414A   )
 NUMBER OF INNER CORE ORBITALS:     0   (    0A   )
 NUMBER OF OUTER CORE ORBITALS:     6   (    6A   )
 NUMBER OF VALENCE ORBITALS:       30   (   30A   )


 NUCLEAR REPULSION ENERGY  206.60195753


 Eigenvalues of metric

         1 0.713E-05 0.102E-04 0.121E-04 0.176E-04 0.292E-04 0.443E-04 0.542E-04 0.748E-04


 Contracted 2-electron integrals neglected if value below      1.0D-12
 AO integral compression algorithm  1   Integral accuracy      1.0D-12

     13921.944 MB (compressed) written to integral file ( 43.4%)


 NUMBER OF SORTED TWO-ELECTRON INTEGRALS: 3689877465.     BUFFER LENGTH:  32768
 NUMBER OF SEGMENTS: 116  SEGMENT LENGTH:   31999951      RECORD LENGTH: 262144

 Memory used in sort:      32.29 MW

 SORT1 READ  4006137025. AND WROTE  3176115867. INTEGRALS IN  18234 RECORDS. CPU TIME:    29.16 SEC, REAL TIME:    44.93 SEC
 SORT2 READ  3176115867. AND WROTE  3689877465. INTEGRALS IN  53108 RECORDS. CPU TIME:    18.70 SEC, REAL TIME:   182.30 SEC

 FILE SIZES:   FILE 1: 13958.4 MBYTE,  FILE 4: 38239.5 MBYTE,   TOTAL:  52198.0 MBYTE

 OPERATOR DM      FOR CENTER  0  COORDINATES:    0.000000    0.000000    0.000000


 **********************************************************************************************************************************
 DATASETS  * FILE   NREC   LENGTH (MB)   RECORD NAMES
              1      19    12265.65       500      610      700      900      950      970     1000      129      960     1100   
                                          VAR    BASINP    GEOM    SYMINP    ZMAT    AOBASIS   BASIS     P2S    ABASIS      S 
                                         1400     1410     1200     1210     1080     1600     1650     1300     1700   
                                           T        V       H0       H01     AOSYM     SMH    MOLCAS    ERIS     OPER   

 PROGRAMS   *        TOTAL       INT
 CPU TIMES  *       116.37    116.28
 REAL TIME  *       316.85 SEC
 DISK USED  *        48.61 GB
 **********************************************************************************************************************************


 Program * Restricted Hartree-Fock

 Orbital guess generated from atomic densities. Full valence occupancy:   36

 Initial occupancy:  23

 NELEC=   46   SYM=1   MS2= 0   THRE=1.0D-08   THRD=3.2D-06   THRG=3.2D-06  HFMA2=F  DIIS_START=2   DIIS_MAX=10   DIIS_INCORE=F

 Level shifts:    0.00 (CLOSED)    0.00 (OPEN)    0.30 (GAP_MIN)

 ITER           ETOT              DE          GRAD        DDIFF     DIIS  NEXP   TIME(IT)  TIME(TOT)  DIAG
   1     -304.64483048    -304.64483048     0.00D+00     0.33D-01     0     0      17.21     31.62    start
   2     -304.72104918      -0.07621870     0.37D-02     0.49D-02     1     0      16.74     48.36    diag
   3     -304.75616233      -0.03511316     0.24D-02     0.16D-02     2     0      17.05     65.41    diag
   4     -304.75808543      -0.00192309     0.41D-03     0.49D-03     3     0      16.84     82.25    diag
   5     -304.75838598      -0.00030056     0.16D-03     0.18D-03     4     0      16.85     99.10    diag
   6     -304.75842115      -0.00003517     0.47D-04     0.56D-04     5     0      17.09    116.19    diag
   7     -304.75842753      -0.00000638     0.18D-04     0.26D-04     6     0      16.76    132.95    diag
   8     -304.75842857      -0.00000105     0.68D-05     0.92D-05     7     0      16.61    149.56    fixocc
   9     -304.75842874      -0.00000017     0.27D-05     0.40D-05     8     0      16.20    165.76    diag
  10     -304.75842876      -0.00000002     0.11D-05     0.15D-05     9     0      16.23    181.99    diag/orth
  11     -304.75842876      -0.00000000     0.30D-06     0.46D-06     9     0      16.19    198.18    diag
  12     -304.75842876      -0.00000000     0.82D-07     0.12D-06     0     0      16.81    214.99    diag

 Final occupancy:  23

 !RHF STATE 1.1 Energy               -304.758428760500
  RHF One-electron energy            -824.777238661059
  RHF Two-electron energy             313.416852368358
  RHF Kinetic energy                  304.202051228321
  RHF Nuclear energy                  206.601957532201
  RHF Virial quotient                  -1.001828973638

 !RHF STATE 1.1 Dipole moment           0.05420693    -0.56353358     0.41150673
 Dipole moment /Debye                   0.13778026    -1.43235949     1.04594578

 Orbital energies:

           1.1          2.1          3.1          4.1          5.1          6.1          7.1          8.1          9.1         10.1
    -20.604511   -20.548206   -11.387377   -11.255732   -11.252000   -11.241751    -1.459840    -1.357577    -1.040903    -1.025727

          11.1         12.1         13.1         14.1         15.1         16.1         17.1         18.1         19.1         20.1
     -0.819180    -0.775889    -0.705523    -0.689101    -0.674504    -0.647250    -0.580945    -0.571335    -0.557896    -0.480685

          21.1         22.1         23.1         24.1         25.1
     -0.456921    -0.419693    -0.419204     0.027395     0.033309


 HOMO     23.1    -0.419204 =     -11.4071eV
 LUMO     24.1     0.027395 =       0.7454eV
 LUMO-HOMO         0.446599 =      12.1526eV

 Orbitals saved in record  2100.2


 **********************************************************************************************************************************
 DATASETS  * FILE   NREC   LENGTH (MB)   RECORD NAMES
              1      19    12265.65       500      610      700      900      950      970     1000      129      960     1100   
                                          VAR    BASINP    GEOM    SYMINP    ZMAT    AOBASIS   BASIS     P2S    ABASIS      S 
                                         1400     1410     1200     1210     1080     1600     1650     1300     1700   
                                           T        V       H0       H01     AOSYM     SMH    MOLCAS    ERIS     OPER   

              2       4        3.24       700     1000      520     2100   
                                         GEOM     BASIS   MCVARS     RHF  

 PROGRAMS   *        TOTAL    HF-SCF       INT
 CPU TIMES  *       331.37    215.00    116.28
 REAL TIME  *       591.67 SEC
 DISK USED  *        48.61 GB
 **********************************************************************************************************************************


 Program * Restricted Hartree-Fock

 Molecular orbitals read from record     2100.2  Type=RHF/CANONICAL  

 Initial occupancy:  23

 NELEC=   46   SYM=1   MS2= 0   THRE=1.0D-08   THRD=3.2D-06   THRG=3.2D-06  HFMA2=F  DIIS_START=2   DIIS_MAX=10   DIIS_INCORE=F

 Level shifts:    0.00 (CLOSED)    0.00 (OPEN)    0.30 (GAP_MIN)

 ITER           ETOT              DE          GRAD        DDIFF     DIIS  NEXP   TIME(IT)  TIME(TOT)  DIAG
   1     -304.75842876    -304.75842876     0.00D+00     0.34D-01     0     0      16.38     16.38    start
   2     -304.75842876      -0.00000000     0.38D-07     0.47D-07     1     0      16.15     32.53    diag

 Final occupancy:  23

 !RHF STATE 1.1 Energy               -304.758428760532
  RHF One-electron energy            -824.777248552842
  RHF Two-electron energy             313.416862260109
  RHF Kinetic energy                  304.202053396310
  RHF Nuclear energy                  206.601957532201
  RHF Virial quotient                  -1.001828966498

 !RHF STATE 1.1 Dipole moment           0.05419824    -0.56353471     0.41150756
 Dipole moment /Debye                   0.13775819    -1.43236236     1.04594790

 Orbital energies:

           1.1          2.1          3.1          4.1          5.1          6.1          7.1          8.1          9.1         10.1
    -20.604512   -20.548207   -11.387381   -11.255733   -11.252003   -11.241748    -1.459842    -1.357578    -1.040904    -1.025727

          11.1         12.1         13.1         14.1         15.1         16.1         17.1         18.1         19.1         20.1
     -0.819180    -0.775889    -0.705524    -0.689102    -0.674505    -0.647251    -0.580945    -0.571335    -0.557895    -0.480685

          21.1         22.1         23.1         24.1         25.1
     -0.456922    -0.419694    -0.419205     0.027395     0.033309


 HOMO     23.1    -0.419205 =     -11.4071eV
 LUMO     24.1     0.027395 =       0.7454eV
 LUMO-HOMO         0.446600 =      12.1526eV

 Orbitals saved in record  2101.2


 **********************************************************************************************************************************
 DATASETS  * FILE   NREC   LENGTH (MB)   RECORD NAMES
              1      19    12265.65       500      610      700      900      950      970     1000      129      960     1100   
                                          VAR    BASINP    GEOM    SYMINP    ZMAT    AOBASIS   BASIS     P2S    ABASIS      S 
                                         1400     1410     1200     1210     1080     1600     1650     1300     1700   
                                           T        V       H0       H01     AOSYM     SMH    MOLCAS    ERIS     OPER   

              2       5        7.94       700     1000      520     2100     2101   
                                         GEOM     BASIS   MCVARS     RHF      RHF  

 PROGRAMS   *        TOTAL    HF-SCF    HF-SCF       INT
 CPU TIMES  *       363.93     32.56    215.00    116.28
 REAL TIME  *       631.82 SEC
 DISK USED  *        48.61 GB
 **********************************************************************************************************************************


 PROGRAM * PAPT (Closed-shell)     Authors: C. Hampel, H.-J. Werner, 1991, P.J. Knowles, 2021


 Convergence thresholds:  THRVAR = 1.00D-08  THRDEN = 1.00D-06

 Number of core orbitals:           6 (   6 )
 Number of closed-shell orbitals:  17 (  17 )
 Number of external orbitals:     391 ( 391 )

 Molecular orbitals read from record     2101.2  Type=RHF/CANONICAL  

 Number of N-1 electron functions:              17
 Number of N-2 electron functions:             153
 Number of singly external CSFs:              6647
 Number of doubly external CSFs:          22094628
 Total number of CSFs:                    22101276

 Length of J-op  integral file:               0.00 MB
 Length of K-op  integral file:              11.83 MB

 Integral transformation finished. Total CPU:  44.68 sec, npass=  1  Memory used:  46.51 MW

 Reference energy:                   -304.75842876

                        CORR.ENERGY   TOTAL ENERGY   ENERGY CHANGE
 MP2:                   -1.13670550  -305.89513426    -1.13670550

 SCS-MP2 correlation energy:           -1.12278112   (PS=  1.200000  PT=  0.333333)
 SCS-MP2 total energy:               -305.88120988
 Iteration:   1     0.3173D+00
 Iteration:   2     0.4233D+00
 Iteration:   3     0.2314D+00
 Iteration:   4     0.2315D+00
 Iteration:   5     0.7130D+00
 Iteration:   6     0.2852D+00
 Iteration:   7     0.1027D+01
 Iteration:   8     0.2635D+00
 Iteration:   9     0.3048D+00
 Iteration:  10     0.1442D+00
 Iteration:  11     0.1026D+00
 Iteration:  12     0.1107D+00
 Iteration:  13     0.3493D-01
 Iteration:  14     0.1096D+00
 Iteration:  15     0.2260D-01
 Iteration:  16     0.1685D-01
 Iteration:  17     0.4475D-01
 Iteration:  18     0.4037D-02
 Iteration:  19     0.3571D-02
 Iteration:  20     0.3407D-02
 Iteration:  21     0.1477D-02
 Iteration:  22     0.1011D-01
 Iteration:  23     0.6516D-03
 Iteration:  24     0.1236D-02
 Iteration:  25     0.3764D-03
 Iteration:  26     0.2199D-03
 Iteration:  27     0.3807D-03
 Iteration:  28     0.4873D-04
 PAPT operator written to  7000.1
 PAPT orbitals and eigenvalues written to  7000.2

 MP3(D):                -1.15236852  -305.91079729    -0.01566303



 RESULTS
 =======

  Reference energy                   -304.758428760532
  MP3 singlet pair energy              -0.771465968632
  MP3 triplet pair energy              -0.380902556135
  MP3 correlation energy               -1.152368524767

 !MP3 total energy                   -305.910797285298

 Timing summary (sec):

 STEP                 CPU(USER)    SYS     CPU(TOT)    WALL
 Transformation         46.09      5.12     51.21     52.38
 CCSD iterations       653.22     13.16    666.38    281.94

 Program statistics:

 Available memory in ccsd:              1572862821
 Min. memory needed in ccsd:              52759979
 Max. memory used in ccsd:                73243687
 Max. memory used in cckext:              54023567 ( 1 integral passes)



 **********************************************************************************************************************************
 DATASETS  * FILE   NREC   LENGTH (MB)   RECORD NAMES
              1      21    12569.28       500      610      700      900      950      970     1000      129      960     1100   
                                          VAR    BASINP    GEOM    SYMINP    ZMAT    AOBASIS   BASIS     P2S    ABASIS      S 
                                         1400     1410     1200     1210     1080     1600     1650     1300     1700     1380   
                                           T        V       H0       H01     AOSYM     SMH    MOLCAS    ERIS     OPER     JKOP   
                                         7000   
                                        PAPT AO    

              2       6       11.97       700     1000      520     2100     2101     7000   
                                         GEOM     BASIS   MCVARS     RHF      RHF     PAPT   

 PROGRAMS   *        TOTAL      PAPT    HF-SCF    HF-SCF       INT
 CPU TIMES  *       699.20    335.27     32.56    215.00    116.28
 REAL TIME  *       966.64 SEC
 DISK USED  *        48.61 GB
 **********************************************************************************************************************************


 PROGRAM * MP4 (Closed-shell)     Authors: C. Hampel, H.-J. Werner, 1991, M. Deegan, P.J. Knowles, 1992


 Convergence thresholds:  THRVAR = 1.00D-08  THRDEN = 1.00D-06

 MP4(T)     terms to be evaluated (factor= 0.000)


 Number of core orbitals:           6 (   6 )
 Number of closed-shell orbitals:  17 (  17 )
 Number of external orbitals:     391 ( 391 )

 Molecular orbitals read from record     7000.2  Type=PAPT/CANONICAL (state 1.1)

 Number of N-1 electron functions:              17
 Number of N-2 electron functions:             153
 Number of singly external CSFs:              6647
 Number of doubly external CSFs:          22094628
 Total number of CSFs:                    22101276

 Length of J-op  integral file:               0.00 MB
 Length of K-op  integral file:              11.83 MB

 Memory could be reduced to 1219.70 Mwords without degradation in triples

 Integral transformation finished. Total CPU: 132.64 sec, npass=  1  Memory used: 686.67 MW
 Orbital energies read from record       7000.2  Type=PAPT/CANONICAL (state 1.1)

 Reference energy:                   -304.75842876

                        CORR.ENERGY   TOTAL ENERGY   ENERGY CHANGE
 MP2:                   -1.16334360  -305.92177236    -1.16334360

 SCS-MP2 correlation energy:           -1.15452139   (PS=  1.200000  PT=  0.333333)
 SCS-MP2 total energy:               -305.91295015

 MP3(D):                -1.16352929  -305.92195805    -0.00018569
 MP4(DQ):               -1.14880028  -305.90722905     0.01472901
 MP4(SDQ):              -1.15970506  -305.91813382    -0.01090478

 Norm of t1 vector:      0.08751637      S-energy:    -0.01090478      T1 diagnostic:  0.01061292

 Largest off-diagonal element in interal  block of Fock matrix:  0.15D+00
 Largest off-diagonal element in external block of Fock matrix:  0.50D+00

   CPU time for triples:   2242.11 sec for i =  1 - 12 / 17 (~  37.0 % done)
   CPU time for triples:   2351.07 sec for i = 13 - 16 / 17 (~  84.0 % done)
   CPU time for triples:    736.68 sec for i = 17 - 17 / 17 (  100.0 % done)

 Total CPU time for triples:   5329.86 sec


 RESULTS
 =======

  Reference energy                   -304.758428760532
  MP4(SDQ) singlet pair energy         -0.768380008694
  MP4(SDQ) triplet pair energy         -0.380420275812
  MP4(SDQ) correlation energy          -1.159705060979

  Triples contribution                 -0.058388199127
  Total correlation energy             -1.218093260106

  MP4(SDQ) total energy              -305.918133821511
 !MP4(SDTQ) total energy             -305.976522020638

 Timing summary (sec):

 STEP                 CPU(USER)    SYS     CPU(TOT)    WALL
 Transformation        152.34     21.09    173.43    171.86
 CCSD iterations       957.93     12.30    970.23    230.69
 Triples              5329.86    206.86   5536.72   4722.10

 Program statistics:

 Available memory in ccsd:              1572862821
 Min. memory needed in ccsd:              52759979
 Max. memory used in ccsd:                73243687
 Max. memory used in cckext:              54023567 ( 1 integral passes)



 **********************************************************************************************************************************
 DATASETS  * FILE   NREC   LENGTH (MB)   RECORD NAMES
              1      22    16455.69       500      610      700      900      950      970     1000      129      960     1100   
                                          VAR    BASINP    GEOM    SYMINP    ZMAT    AOBASIS   BASIS     P2S    ABASIS      S 
                                         1400     1410     1200     1210     1080     1600     1650     1300     1700     1380   
                                           T        V       H0       H01     AOSYM     SMH    MOLCAS    ERIS     OPER     JKOP   
                                         7000     1380(1)
                                        PAPT AO   JKOP   

              2       6       11.97       700     1000      520     2100     2101     7000   
                                         GEOM     BASIS   MCVARS     RHF      RHF     PAPT   

 PROGRAMS   *        TOTAL       MP4      PAPT    HF-SCF    HF-SCF       INT
 CPU TIMES  *      6440.02   5740.82    335.27     32.56    215.00    116.28
 REAL TIME  *      6091.67 SEC
 DISK USED  *        48.61 GB
 **********************************************************************************************************************************

 Dump information in style XML to xml output                                                                      

 Orbitals will not be exported.

 **********************************************************************************************************************************

 MP4/aug-cc-pVTZ energy=   -305.976522020638

             MP4            PAPT          HF-SCF          HF-SCF
   -305.97652202   -305.91079729   -304.75842876   -304.75842876
 **********************************************************************************************************************************
 Molpro calculation terminated
