
 Working directory              : /var/folders/2v/xbgp75_9785319ghcgb4zr4r0000gp/T//molpro.vs1hV4kHR8/
 Global scratch directory       : /var/folders/2v/xbgp75_9785319ghcgb4zr4r0000gp/T//molpro.vs1hV4kHR8/
 Wavefunction directory         : /Users/sacpjk/wfu/
 Main file repository           : /var/folders/2v/xbgp75_9785319ghcgb4zr4r0000gp/T//molpro.vs1hV4kHR8/

 id        : peterk

 Nodes                        nprocs
 Cardiff-University-G34YLXT77Y    1
 GA implementation: MPI file
 GA implementation (serial work in mppx): MPI file

 Using customized tuning parameters: mindgm=1; mindgv=20; mindgc=4; mindgr=1; noblas=0; minvec=7
 default implementation of scratch files=df  


 Variables initialized (1032), CPU time= 0.00 sec
 
 symmetry,nosym
 
 
 geometry={
           15
     C         -0.59406001     -0.60847788     -1.07529454
     O         -0.50384898     -1.45637568      0.00000000
     C          1.35146968      0.16645666     -0.70127348
     C         -1.37353559      0.51339587     -0.68733086
     C         -0.59406001     -0.60847788      1.07529454
     C          1.35146968      0.16645666      0.70127348
     C         -1.37353559      0.51339587      0.68733086
     H         -0.56514034     -1.09111489     -2.04111235
     H          1.86271305     -0.63406379     -1.22416689
     H          1.31884021      1.10510773     -1.24091005
     H         -1.74836250      1.27688412     -1.35217973
     H         -0.56514034     -1.09111489      2.04111235
     H          1.86271305     -0.63406379      1.22416689
     H          1.31884021      1.10510773      1.24091005
     H         -1.74836250      1.27688412      1.35217973
 }
 basis=cc-pVTZ
 
 
 
 hf; hf; papt; mp4
 
 
 
 {put,xml;noorbitals,nobasis}
 Commands initialized (841), CPU time= 0.00 sec, 704 directives.
 Default parameters read. Elapsed time= 1.23 sec

 Checking input...
 Passed
1


                                         ***  PROGRAM SYSTEM MOLPRO  ***
                                       Copyright, TTI GmbH Stuttgart, 2015
                                    Version 2023.1 linked Tue Jun  6 09:54:11 2023


 **********************************************************************************************************************************
 LABEL *                                                                                                                                                                 
  64 bit serial version                                                                  DATE: 11-Jun-23          TIME: 17:24:51  
 **********************************************************************************************************************************

 SHA1:             8ebb0dd001088a5c915591db1a321413035db0b1
 **********************************************************************************************************************************

 Memory per process:       393 MW
 Total memory per node:    524 MW
 Total GA space:           131 MW

 GA preallocation disabled
 GA check enabled

 Variable memory set to 393.2 MW

 ZSYMEL=NOSYM


 Geometry recognized as XYZ

 SETTING BASIS          =    CC-PVTZ


 Recomputing integrals since basis changed


 Using spherical harmonics

 Library entry C      S cc-pVTZ              selected for orbital group  1
 Library entry C      P cc-pVTZ              selected for orbital group  1
 Library entry C      D cc-pVTZ              selected for orbital group  1
 Library entry C      F cc-pVTZ              selected for orbital group  1
 Library entry O      S cc-pVTZ              selected for orbital group  2
 Library entry O      P cc-pVTZ              selected for orbital group  2
 Library entry O      D cc-pVTZ              selected for orbital group  2
 Library entry O      F cc-pVTZ              selected for orbital group  2
 Library entry H      S cc-pVTZ              selected for orbital group  4
 Library entry H      P cc-pVTZ              selected for orbital group  4
 Library entry H      D cc-pVTZ              selected for orbital group  4


 PROGRAM * SEWARD (Integral evaluation for generally contracted gaussian basis sets)     Author: Roland Lindh, 1990

 Geometry written to block  1 of record 700


 Point group  C1  



 ATOMIC COORDINATES

 NR  ATOM    CHARGE       X              Y              Z

   1  C       6.00   -1.122610720   -1.149856546   -2.032012184
   2  O       8.00   -0.952136580   -2.752151170    0.000000000
   3  C       6.00    2.553907561    0.314557499   -1.325214816
   4  C       6.00   -2.595606088    0.970177588   -1.298867082
   5  C       6.00   -1.122610720   -1.149856546    2.032012184
   6  C       6.00    2.553907561    0.314557499    1.325214816
   7  C       6.00   -2.595606088    0.970177588    1.298867082
   8  H       1.00   -1.067960465   -2.061908313   -3.857143331
   9  H       1.00    3.520017513   -1.198206909   -2.313340153
  10  H       1.00    2.492246799    2.088350948   -2.344980140
  11  H       1.00   -3.303926292    2.412961280   -2.555249361
  12  H       1.00   -1.067960465   -2.061908313    3.857143331
  13  H       1.00    3.520017513   -1.198206909    2.313340153
  14  H       1.00    2.492246799    2.088350948    2.344980140
  15  H       1.00   -3.303926292    2.412961280    2.555249361

 Bond lengths in Bohr (Angstrom)

 1-2  2.593353622  1-3  4.020056926  1-4  2.683609849  1-8  2.041060700  2-5  2.593353622
     ( 1.372343637)     ( 2.127322512)     ( 1.420105175)     ( 1.080082808)     ( 1.372343637)

  3- 6  2.650429631   3- 9  2.048954923   3-10  2.046965209   4- 7  2.597734165   4-11  2.040058510
       ( 1.402546960)       ( 1.084260251)       ( 1.083207340)       ( 1.374661720)       ( 1.079552472)

  5- 6  4.020056926   5- 7  2.683609849   5-12  2.041060700   6-13  2.048954923   6-14  2.046965209
       ( 2.127322512)       ( 1.420105175)       ( 1.080082808)       ( 1.084260251)       ( 1.083207340)

  7-15  2.040058510
       ( 1.079552472)

 Bond angles

  1- 2- 5  103.17282386   1- 3- 6  100.12624967   1- 3- 9   94.44377851   1- 3-10  101.56766241

  1- 4- 7  105.85439486   1- 4-11  125.52321719   2- 1- 3   91.55797176   2- 1- 4  108.06621732

  2- 1- 8  115.01190773   2- 5- 6   91.55797176   2- 5- 7  108.06621732   2- 5-12  115.01190773

  3- 1- 4   99.56529353   3- 1- 8  107.18800361   3- 6- 5  100.12624967   3- 6-13  118.83299355

  3- 6-14  119.87992724   4- 1- 8  127.73413953   4- 7- 5  105.85439486   4- 7-15  128.01414531

  5- 6-13   94.44377851   5- 6-14  101.56766241   5- 7-15  125.52321719   6- 3- 9  118.83299355

  6- 3-10  119.87992724   6- 5- 7   99.56529353   6- 5-12  107.18800361   7- 4-11  128.01414531

  7- 5-12  127.73413953   9- 3-10  114.43944509  13- 6-14  114.43944509

 NUCLEAR CHARGE:                   52
 NUMBER OF PRIMITIVE AOS:         465
 NUMBER OF SYMMETRY AOS:          422
 NUMBER OF CONTRACTIONS:          322   (  322A   )
 NUMBER OF INNER CORE ORBITALS:     0   (    0A   )
 NUMBER OF OUTER CORE ORBITALS:     7   (    7A   )
 NUMBER OF VALENCE ORBITALS:       36   (   36A   )


 NUCLEAR REPULSION ENERGY  302.29103705


 Eigenvalues of metric

         1 0.854E-04 0.273E-03 0.666E-03 0.680E-03 0.763E-03 0.983E-03 0.100E-02 0.121E-02


 Contracted 2-electron integrals neglected if value below      1.0D-11
 AO integral compression algorithm  1   Integral accuracy      1.0D-11

     4681.368 MB (compressed) written to integral file ( 41.3%)


 NUMBER OF SORTED TWO-ELECTRON INTEGRALS: 1352182006.     BUFFER LENGTH:  32768
 NUMBER OF SEGMENTS:  43  SEGMENT LENGTH:   31998710      RECORD LENGTH: 524288

 Memory used in sort:      32.56 MW

 SORT1 READ  1415295727. AND WROTE  1202317212. INTEGRALS IN   3463 RECORDS. CPU TIME:    11.52 SEC, REAL TIME:    15.86 SEC
 SORT2 READ  1202317212. AND WROTE  1352182006. INTEGRALS IN  17858 RECORDS. CPU TIME:     7.87 SEC, REAL TIME:    15.24 SEC

 FILE SIZES:   FILE 1:  4715.4 MBYTE,  FILE 4: 14524.9 MBYTE,   TOTAL:  19240.4 MBYTE

 OPERATOR DM      FOR CENTER  0  COORDINATES:    0.000000    0.000000    0.000000


 **********************************************************************************************************************************
 DATASETS  * FILE   NREC   LENGTH (MB)   RECORD NAMES
              1      19     4215.28       500      610      700      900      950      970     1000      129      960     1100   
                                          VAR    BASINP    GEOM    SYMINP    ZMAT    AOBASIS   BASIS     P2S    ABASIS      S 
                                         1400     1410     1200     1210     1080     1600     1650     1300     1700   
                                           T        V       H0       H01     AOSYM     SMH    MOLCAS    ERIS     OPER   

 PROGRAMS   *        TOTAL       INT
 CPU TIMES  *        51.17     51.07
 REAL TIME  *        70.20 SEC
 DISK USED  *        17.92 GB
 **********************************************************************************************************************************


 Program * Restricted Hartree-Fock

 Orbital guess generated from atomic densities. Full valence occupancy:   43

 Initial occupancy:  26

 NELEC=   52   SYM=1   MS2= 0   THRE=1.0D-08   THRD=3.2D-06   THRG=3.2D-06  HFMA2=F  DIIS_START=2   DIIS_MAX=10   DIIS_INCORE=F

 Level shifts:    0.00 (CLOSED)    0.00 (OPEN)    0.30 (GAP_MIN)

 ITER           ETOT              DE          GRAD        DDIFF     DIIS  NEXP   TIME(IT)  TIME(TOT)  DIAG
   1     -306.61723774    -306.61723774     0.00D+00     0.42D-01     0     0       7.68     14.52    start
   2     -306.68510462      -0.06786688     0.28D-02     0.39D-02     1     0       7.69     22.21    diag
   3     -306.69553815      -0.01043352     0.12D-02     0.13D-02     2     0       7.67     29.88    diag
   4     -306.69696562      -0.00142748     0.35D-03     0.49D-03     3     0       7.63     37.51    diag
   5     -306.69702424      -0.00005862     0.69D-04     0.96D-04     4     0       7.64     45.15    diag
   6     -306.69703467      -0.00001043     0.27D-04     0.41D-04     5     0       7.68     52.83    diag
   7     -306.69703699      -0.00000232     0.95D-05     0.20D-04     6     0       7.67     60.50    diag
   8     -306.69703739      -0.00000040     0.33D-05     0.76D-05     7     0       7.63     68.13    fixocc
   9     -306.69703748      -0.00000009     0.18D-05     0.40D-05     8     0       7.67     75.80    diag
  10     -306.69703749      -0.00000001     0.55D-06     0.15D-05     9     0       7.66     83.46    diag/orth
  11     -306.69703750      -0.00000000     0.22D-06     0.51D-06     9     0       7.60     91.06    diag
  12     -306.69703750      -0.00000000     0.10D-06     0.16D-06     0     0       7.67     98.73    diag

 Final occupancy:  26

 !RHF STATE 1.1 Energy               -306.697037495967
  RHF One-electron energy           -1015.350852027202
  RHF Two-electron energy             406.362777478318
  RHF Kinetic energy                  306.163059468229
  RHF Nuclear energy                  302.291037052917
  RHF Virial quotient                  -1.001744096850

 !RHF STATE 1.1 Dipole moment          -0.14270791     0.40073975    -0.00000000
 Dipole moment /Debye                  -0.36272734     1.01857885    -0.00000000

 Orbital energies:

           1.1          2.1          3.1          4.1          5.1          6.1          7.1          8.1          9.1         10.1
    -20.594546   -11.298901   -11.298855   -11.230196   -11.228825   -11.220051   -11.218886    -1.440149    -1.086027    -1.009431

          11.1         12.1         13.1         14.1         15.1         16.1         17.1         18.1         19.1         20.1
     -0.990205    -0.789908    -0.788021    -0.782820    -0.730652    -0.645096    -0.615758    -0.595831    -0.569640    -0.556805

          21.1         22.1         23.1         24.1         25.1         26.1         27.1         28.1
     -0.553992    -0.526912    -0.491832    -0.411841    -0.326106    -0.311397     0.137475     0.139549


 HOMO     26.1    -0.311397 =      -8.4735eV
 LUMO     27.1     0.137475 =       3.7409eV
 LUMO-HOMO         0.448872 =      12.2144eV

 Orbitals saved in record  2100.2


 **********************************************************************************************************************************
 DATASETS  * FILE   NREC   LENGTH (MB)   RECORD NAMES
              1      19     4215.28       500      610      700      900      950      970     1000      129      960     1100   
                                          VAR    BASINP    GEOM    SYMINP    ZMAT    AOBASIS   BASIS     P2S    ABASIS      S 
                                         1400     1410     1200     1210     1080     1600     1650     1300     1700   
                                           T        V       H0       H01     AOSYM     SMH    MOLCAS    ERIS     OPER   

              2       4        2.24       700     1000      520     2100   
                                         GEOM     BASIS   MCVARS     RHF  

 PROGRAMS   *        TOTAL    HF-SCF       INT
 CPU TIMES  *       149.91     98.74     51.07
 REAL TIME  *       180.52 SEC
 DISK USED  *        17.92 GB
 **********************************************************************************************************************************


 Program * Restricted Hartree-Fock

 Molecular orbitals read from record     2100.2  Type=RHF/CANONICAL  

 Initial occupancy:  26

 NELEC=   52   SYM=1   MS2= 0   THRE=1.0D-08   THRD=3.2D-06   THRG=3.2D-06  HFMA2=F  DIIS_START=2   DIIS_MAX=10   DIIS_INCORE=F

 Level shifts:    0.00 (CLOSED)    0.00 (OPEN)    0.30 (GAP_MIN)

 ITER           ETOT              DE          GRAD        DDIFF     DIIS  NEXP   TIME(IT)  TIME(TOT)  DIAG
   1     -306.69703750    -306.69703750     0.00D+00     0.43D-01     0     0       7.59      7.60    start
   2     -306.69703750      -0.00000000     0.65D-07     0.97D-07     1     0       7.66     15.26    diag

 Final occupancy:  26

 !RHF STATE 1.1 Energy               -306.697037496053
  RHF One-electron energy           -1015.350802008146
  RHF Two-electron energy             406.362727459175
  RHF Kinetic energy                  306.163026942805
  RHF Nuclear energy                  302.291037052917
  RHF Virial quotient                  -1.001744203272

 !RHF STATE 1.1 Dipole moment          -0.14269174     0.40072095    -0.00000000
 Dipole moment /Debye                  -0.36268622     1.01853106    -0.00000000

 Orbital energies:

           1.1          2.1          3.1          4.1          5.1          6.1          7.1          8.1          9.1         10.1
    -20.594536   -11.298899   -11.298853   -11.230200   -11.228830   -11.220047   -11.218881    -1.440145    -1.086028    -1.009429

          11.1         12.1         13.1         14.1         15.1         16.1         17.1         18.1         19.1         20.1
     -0.990204    -0.789908    -0.788021    -0.782819    -0.730651    -0.645093    -0.615756    -0.595830    -0.569640    -0.556802

          21.1         22.1         23.1         24.1         25.1         26.1         27.1         28.1
     -0.553993    -0.526911    -0.491830    -0.411840    -0.326105    -0.311396     0.137475     0.139549


 HOMO     26.1    -0.311396 =      -8.4735eV
 LUMO     27.1     0.137475 =       3.7409eV
 LUMO-HOMO         0.448872 =      12.2144eV

 Orbitals saved in record  2101.2


 **********************************************************************************************************************************
 DATASETS  * FILE   NREC   LENGTH (MB)   RECORD NAMES
              1      19     4215.28       500      610      700      900      950      970     1000      129      960     1100   
                                          VAR    BASINP    GEOM    SYMINP    ZMAT    AOBASIS   BASIS     P2S    ABASIS      S 
                                         1400     1410     1200     1210     1080     1600     1650     1300     1700   
                                           T        V       H0       H01     AOSYM     SMH    MOLCAS    ERIS     OPER   

              2       5        5.12       700     1000      520     2100     2101   
                                         GEOM     BASIS   MCVARS     RHF      RHF  

 PROGRAMS   *        TOTAL    HF-SCF    HF-SCF       INT
 CPU TIMES  *       165.18     15.27     98.74     51.07
 REAL TIME  *       197.83 SEC
 DISK USED  *        17.92 GB
 **********************************************************************************************************************************


 PROGRAM * PAPT (Closed-shell)     Authors: C. Hampel, H.-J. Werner, 1991, P.J. Knowles, 2021


 Convergence thresholds:  THRVAR = 1.00D-08  THRDEN = 1.00D-06

 Number of core orbitals:           7 (   7 )
 Number of closed-shell orbitals:  19 (  19 )
 Number of external orbitals:     296 ( 296 )

 Molecular orbitals read from record     2101.2  Type=RHF/CANONICAL  

 Number of N-1 electron functions:              19
 Number of N-2 electron functions:             190
 Number of singly external CSFs:              5624
 Number of doubly external CSFs:          15817500
 Total number of CSFs:                    15823125

 Length of J-op  integral file:               0.00 MB
 Length of K-op  integral file:               7.18 MB

 Integral transformation finished. Total CPU:  26.42 sec, npass=  1  Memory used:  34.21 MW

 Reference energy:                   -306.69703750

                        CORR.ENERGY   TOTAL ENERGY   ENERGY CHANGE
 MP2:                   -1.25397773  -307.95101523    -1.25397773

 SCS-MP2 correlation energy:           -1.23037436   (PS=  1.200000  PT=  0.333333)
 SCS-MP2 total energy:               -307.92741186
 Iteration:   1     0.3224D+00
 Iteration:   2     0.5377D+00
 Iteration:   3     0.9999D-01
 Iteration:   4     0.1174D+00
 Iteration:   5     0.5434D-01
 Iteration:   6     0.2499D-01
 Iteration:   7     0.1312D+02
 Iteration:   8     0.8825D-02
 Iteration:   9     0.8908D-02
 Iteration:  10     0.7592D-02
 Iteration:  11     0.1638D-02
 Iteration:  12     0.2672D-02
 Iteration:  13     0.8225D-03
 Iteration:  14     0.3522D-03
 Iteration:  15     0.4599D-02
 Iteration:  16     0.1176D-03
 Iteration:  17     0.1533D-03
 Iteration:  18     0.5618D-04
 PAPT operator written to  7000.1
 PAPT orbitals and eigenvalues written to  7000.2

 MP3(D):                -1.27097980  -307.96801730    -0.01700207



 RESULTS
 =======

  Reference energy                   -306.697037496051
  MP3 singlet pair energy              -0.839713702468
  MP3 triplet pair energy              -0.431266101225
  MP3 correlation energy               -1.270979803692

 !MP3 total energy                   -307.968017299744

 Timing summary (sec):

 STEP                 CPU(USER)    SYS     CPU(TOT)    WALL
 Transformation         27.90      2.31     30.21     31.17
 CCSD iterations       347.73      5.40    353.13    175.94

 Program statistics:

 Available memory in ccsd:               393214530
 Min. memory needed in ccsd:              37598990
 Max. memory used in ccsd:                52281658
 Max. memory used in cckext:              40487230 ( 1 integral passes)



 **********************************************************************************************************************************
 DATASETS  * FILE   NREC   LENGTH (MB)   RECORD NAMES
              1      21     4442.94       500      610      700      900      950      970     1000      129      960     1100   
                                          VAR    BASINP    GEOM    SYMINP    ZMAT    AOBASIS   BASIS     P2S    ABASIS      S 
                                         1400     1410     1200     1210     1080     1600     1650     1300     1700     1380   
                                           T        V       H0       H01     AOSYM     SMH    MOLCAS    ERIS     OPER     JKOP   
                                         7000   
                                        PAPT AO    

              2       6        7.60       700     1000      520     2100     2101     7000   
                                         GEOM     BASIS   MCVARS     RHF      RHF     PAPT   

 PROGRAMS   *        TOTAL      PAPT    HF-SCF    HF-SCF       INT
 CPU TIMES  *       375.53    210.34     15.27     98.74     51.07
 REAL TIME  *       405.16 SEC
 DISK USED  *        17.92 GB
 **********************************************************************************************************************************


 PROGRAM * MP4 (Closed-shell)     Authors: C. Hampel, H.-J. Werner, 1991, M. Deegan, P.J. Knowles, 1992


 Convergence thresholds:  THRVAR = 1.00D-08  THRDEN = 1.00D-06

 MP4(T)     terms to be evaluated (factor= 0.000)


 Number of core orbitals:           7 (   7 )
 Number of closed-shell orbitals:  19 (  19 )
 Number of external orbitals:     296 ( 296 )

 Molecular orbitals read from record     7000.2  Type=PAPT/CANONICAL (state 1.1)

 Number of N-1 electron functions:              19
 Number of N-2 electron functions:             190
 Number of singly external CSFs:              5624
 Number of doubly external CSFs:          15817500
 Total number of CSFs:                    15823125

 Length of J-op  integral file:               0.00 MB
 Length of K-op  integral file:               7.18 MB

 For full I/O caching in triples, increase memory by 202.59 Mwords to 595.85 Mwords.

 Integral transformation finished. Total CPU:  69.88 sec, npass=  1  Memory used: 369.11 MW
 Orbital energies read from record       7000.2  Type=PAPT/CANONICAL (state 1.1)

 Reference energy:                   -306.69703750

                        CORR.ENERGY   TOTAL ENERGY   ENERGY CHANGE
 MP2:                   -1.28300109  -307.98003859    -1.28300109

 SCS-MP2 correlation energy:           -1.26660375   (PS=  1.200000  PT=  0.333333)
 SCS-MP2 total energy:               -307.96364125

 MP3(D):                -1.28329754  -307.98033504    -0.00029645
 MP4(DQ):               -1.26311161  -307.96014911     0.02018593
 MP4(SDQ):              -1.27303471  -307.97007221    -0.00992310

 Norm of t1 vector:      0.08050618      S-energy:    -0.00992310      T1 diagnostic:  0.00923469

 Largest off-diagonal element in interal  block of Fock matrix:  0.15D+00
 Largest off-diagonal element in external block of Fock matrix:  0.33D+00

   CPU time for triples:   2009.09 sec for i =  1 - 17 / 19 (~  72.6 % done)
   CPU time for triples:    812.53 sec for i = 18 - 19 / 19 (  100.0 % done)

 Total CPU time for triples:   2821.62 sec


 RESULTS
 =======

  Reference energy                   -306.697037496052
  MP4(SDQ) singlet pair energy         -0.835356008974
  MP4(SDQ) triplet pair energy         -0.427755600090
  MP4(SDQ) correlation energy          -1.273034708973

  Triples contribution                 -0.074258847135
  Total correlation energy             -1.347293556108

  MP4(SDQ) total energy              -307.970072205025
 !MP4(SDTQ) total energy             -308.044331052161

 Timing summary (sec):

 STEP                 CPU(USER)    SYS     CPU(TOT)    WALL
 Transformation         79.00      7.62     86.62     86.21
 CCSD iterations       541.25      6.92    548.17    152.84
 Triples              2821.62    111.76   2933.38   2567.97

 Program statistics:

 Available memory in ccsd:               393214530
 Min. memory needed in ccsd:              37598990
 Max. memory used in ccsd:                52281658
 Max. memory used in cckext:              40487230 ( 1 integral passes)



 **********************************************************************************************************************************
 DATASETS  * FILE   NREC   LENGTH (MB)   RECORD NAMES
              1      22     6329.00       500      610      700      900      950      970     1000      129      960     1100   
                                          VAR    BASINP    GEOM    SYMINP    ZMAT    AOBASIS   BASIS     P2S    ABASIS      S 
                                         1400     1410     1200     1210     1080     1600     1650     1300     1700     1380   
                                           T        V       H0       H01     AOSYM     SMH    MOLCAS    ERIS     OPER     JKOP   
                                         7000     1380(1)
                                        PAPT AO   JKOP   

              2       6        7.60       700     1000      520     2100     2101     7000   
                                         GEOM     BASIS   MCVARS     RHF      RHF     PAPT   

 PROGRAMS   *        TOTAL       MP4      PAPT    HF-SCF    HF-SCF       INT
 CPU TIMES  *      3441.76   3066.23    210.34     15.27     98.74     51.07
 REAL TIME  *      3212.62 SEC
 DISK USED  *        17.92 GB
 **********************************************************************************************************************************

 Dump information in style XML to xml output                                                                      

 Orbitals will not be exported.

 **********************************************************************************************************************************

 MP4/cc-pVTZ energy=   -308.044331052161

             MP4            PAPT          HF-SCF          HF-SCF
   -308.04433105   -307.96801730   -306.69703750   -306.69703750
 **********************************************************************************************************************************
 Molpro calculation terminated
