
 Working directory              : /tmp/peterk/molpro.uVdZdMo8fZ/
 Global scratch directory       : /tmp/peterk/molpro.uVdZdMo8fZ/
 Wavefunction directory         : /home/peterk/wfu/
 Main file repository           : /tmp/peterk/molpro.uVdZdMo8fZ/

 id        : peterk

 Nodes     nprocs
 marat        1
 GA implementation: MPI file
 GA implementation (serial work in mppx): MPI file

 Using customized tuning parameters: mindgm=1; mindgv=20; mindgc=4; mindgr=1; noblas=0; minvec=7
 default implementation of scratch files=df  


 Variables initialized (1032), CPU time= 0.00 sec
 
 core,small
 angstrom
 
 geometry={
 H1;O1,H1,0.9619;O2,O1,1.4497,H1,99.99;H2,O2,0.9619,O1,99.99,H1,112.7
 }
 basis=cc-pCV5Z
 
 
 
 hf
 
 
 
 {put,xml;noorbitals,nobasis}
 Commands initialized (841), CPU time= 0.01 sec, 708 directives.
 Default parameters read. Elapsed time= 0.05 sec

 Checking input...
 Passed
1


                                         ***  PROGRAM SYSTEM MOLPRO  ***
                                       Copyright, TTI GmbH Stuttgart, 2015
                                    Version 2023.1 linked Sat Jun 10 08:01:27 2023


 **********************************************************************************************************************************
 LABEL *                                                                                                                                                                 
  (16 PROC) 64 bit serial version                                                        DATE: 12-Jun-23          TIME: 11:05:47  
 **********************************************************************************************************************************

 SHA1:             8376d659ba1296ca7ee514c57770fe2c96af278c
 **********************************************************************************************************************************

 Memory per process:      1074 MW
 Total memory per node:   1074 MW

 GA preallocation disabled
 GA check disabled

 Variable memory set to 1073.7 MW

 ZUNIT=ANG

 SETTING BASIS          =    CC-PCV5Z


 Recomputing integrals since basis changed


 Using spherical harmonics

 Library entry H      S cc-pV5Z              selected for orbital group  1
 Library entry H      P cc-pV5Z              selected for orbital group  1
 Library entry H      D cc-pV5Z              selected for orbital group  1
 Library entry H      F cc-pV5Z              selected for orbital group  1
 Library entry H      G cc-pV5Z              selected for orbital group  1
 Library entry O      S cc-pCV5Z             selected for orbital group  2
 Library entry O      P cc-pCV5Z             selected for orbital group  2
 Library entry O      D cc-pCV5Z             selected for orbital group  2
 Library entry O      F cc-pCV5Z             selected for orbital group  2
 Library entry O      G cc-pCV5Z             selected for orbital group  2
 Library entry O      H cc-pCV5Z             selected for orbital group  2


 PROGRAM * SEWARD (Integral evaluation for generally contracted gaussian basis sets)     Author: Roland Lindh, 1990

 Geometry written to block  1 of record 700

 Orientation using atomic masses  
 Molecule type: Asymmetric top,     Order of principal axis = 2
 Symmetry elements: XY
 Rotational constants:      26.5232282    304.4736754     25.6942510 GHz  (calculated with average atomic masses)

 Point group  C2  



 ATOMIC COORDINATES

 NR  ATOM    CHARGE       X              Y              Z

   1  H1      1.00    1.347424735   -1.801309636   -0.933175495
   2  H2      1.00   -1.347424735    1.801309636   -0.933175495
   3  O1      8.00   -0.112004019   -1.365181095    0.058788761
   4  O2      8.00    0.112004019    1.365181095    0.058788761

 Bond lengths in Bohr (Angstrom)

 1-3  1.817727559  2-4  1.817727559  3-4  2.739535963
     ( 0.961900000)     ( 0.961900000)     ( 1.449700000)

 Bond angles

  1-3-4   99.99000000   2-4-3   99.99000000

 NUCLEAR CHARGE:                   18
 NUMBER OF PRIMITIVE AOS:         570
 NUMBER OF SYMMETRY AOS:          440
 NUMBER OF CONTRACTIONS:          400   (  200A   +  200B   )
 NUMBER OF INNER CORE ORBITALS:     0   (    0A   +    0B   )
 NUMBER OF OUTER CORE ORBITALS:     2   (    1A   +    1B   )
 NUMBER OF VALENCE ORBITALS:       10   (    5A   +    5B   )


 NUCLEAR REPULSION ENERGY   36.90490578


 Eigenvalues of metric

         1 0.337E-05 0.534E-04 0.306E-03 0.404E-03 0.429E-03 0.442E-03 0.493E-03 0.607E-03
         2 0.334E-05 0.575E-04 0.242E-03 0.304E-03 0.361E-03 0.443E-03 0.488E-03 0.494E-03


 Contracted 2-electron integrals neglected if value below      1.0D-12
 AO integral compression algorithm  1   Integral accuracy      1.0D-12

     8516.010 MB (compressed) written to integral file ( 44.9%)


 NUMBER OF SORTED TWO-ELECTRON INTEGRALS: 1616060100.     BUFFER LENGTH:  32768
 NUMBER OF SEGMENTS:  51  SEGMENT LENGTH:   31997532      RECORD LENGTH: 524288

 Memory used in sort:      32.55 MW

 SORT1 READ  2368290768. AND WROTE  1386381602. INTEGRALS IN   3989 RECORDS. CPU TIME:    18.58 SEC, REAL TIME:    35.17 SEC
 SORT2 READ  1386381602. AND WROTE  1616060100. INTEGRALS IN  32486 RECORDS. CPU TIME:    18.34 SEC, REAL TIME:    76.32 SEC

 FILE SIZES:   FILE 1:  8550.0 MBYTE,  FILE 4: 16731.1 MBYTE,   TOTAL:  25281.2 MBYTE

 OPERATOR DM      FOR CENTER  0  COORDINATES:    0.000000    0.000000    0.000000


 **********************************************************************************************************************************
 DATASETS  * FILE   NREC   LENGTH (MB)   RECORD NAMES
              1      19     5980.09       500      610      700      900      950      970     1000      129      960     1100   
                                          VAR    BASINP    GEOM    SYMINP    ZMAT    AOBASIS   BASIS     P2S    ABASIS      S 
                                         1400     1410     1200     1210     1080     1600     1650     1300     1700   
                                           T        V       H0       H01     AOSYM     SMH    MOLCAS    ERIS     OPER   

 PROGRAMS   *        TOTAL       INT
 CPU TIMES  *       190.56    190.46
 REAL TIME  *       273.87 SEC
 DISK USED  *        23.55 GB
 **********************************************************************************************************************************


 Program * Restricted Hartree-Fock

 Orbital guess generated from atomic densities. Full valence occupancy:    6   6

 Initial occupancy:   5   4

 NELEC=   18   SYM=1   MS2= 0   THRE=1.0D-08   THRD=3.2D-06   THRG=3.2D-06  HFMA2=F  DIIS_START=2   DIIS_MAX=10   DIIS_INCORE=F

 Level shifts:    0.00 (CLOSED)    0.00 (OPEN)    0.30 (GAP_MIN)

 ITER           ETOT              DE          GRAD        DDIFF     DIIS  NEXP   TIME(IT)  TIME(TOT)  DIAG
   1     -150.82369511    -150.82369511     0.00D+00     0.29D-01     0     0       6.09     11.99    start
   2     -150.85056563      -0.02687052     0.47D-02     0.22D-02     1     0       6.04     18.03    diag
   3     -150.85174519      -0.00117956     0.10D-02     0.38D-03     2     0       6.07     24.10    diag
   4     -150.85187757      -0.00013238     0.25D-03     0.17D-03     3     0       6.11     30.21    diag
   5     -150.85189411      -0.00001654     0.95D-04     0.50D-04     4     0       6.04     36.25    diag
   6     -150.85189575      -0.00000163     0.23D-04     0.17D-04     5     0       6.09     42.34    diag
   7     -150.85189584      -0.00000009     0.47D-05     0.43D-05     6     0       6.10     48.44    diag
   8     -150.85189585      -0.00000001     0.11D-05     0.13D-05     7     0       6.00     54.44    fixocc
   9     -150.85189585      -0.00000000     0.31D-06     0.18D-06     0     0       6.18     60.62    diag

 Final occupancy:   5   4

 !RHF STATE 1.1 Energy               -150.851895847510
  RHF One-electron energy            -281.516178707478
  RHF Two-electron energy              93.759377076377
  RHF Kinetic energy                  150.666391998483
  RHF Nuclear energy                   36.904905783591
  RHF Virial quotient                  -1.001231222481

 !RHF STATE 1.1 Dipole moment           0.00000000     0.00000000    -0.74017268
 Dipole moment /Debye                   0.00000000     0.00000000    -1.88133131

 Orbital energies:

           1.1          2.1          3.1          4.1          5.1          6.1          7.1
    -20.629406    -1.477178    -0.715698    -0.610702    -0.519951     0.096167     0.305843

           1.2          2.2          3.2          4.2          5.2          6.2
    -20.629113    -1.215729    -0.712677    -0.488260     0.108337     0.215670


 HOMO      4.2    -0.488260 =     -13.2862eV
 LUMO      6.1     0.096167 =       2.6168eV
 LUMO-HOMO         0.584427 =      15.9031eV

 Orbitals saved in record  2100.2


 **********************************************************************************************************************************
 DATASETS  * FILE   NREC   LENGTH (MB)   RECORD NAMES
              1      19     5980.09       500      610      700      900      950      970     1000      129      960     1100   
                                          VAR    BASINP    GEOM    SYMINP    ZMAT    AOBASIS   BASIS     P2S    ABASIS      S 
                                         1400     1410     1200     1210     1080     1600     1650     1300     1700   
                                           T        V       H0       H01     AOSYM     SMH    MOLCAS    ERIS     OPER   

              2       4        1.70       700     1000      520     2100   
                                         GEOM     BASIS   MCVARS     RHF  

 PROGRAMS   *        TOTAL    HF-SCF       INT
 CPU TIMES  *       251.18     60.62    190.46
 REAL TIME  *       343.04 SEC
 DISK USED  *        23.55 GB
 **********************************************************************************************************************************

 Dump information in style XML to xml output                                                                      

 Orbitals will not be exported.

 **********************************************************************************************************************************

 HF/cc-pCV5Z energy=   -150.851895847510

          HF-SCF
   -150.85189585
 **********************************************************************************************************************************
 Molpro calculation terminated
