
 Working directory              : /tmp/peterk/molpro.3tMTY39wI3/
 Global scratch directory       : /tmp/peterk/molpro.3tMTY39wI3/
 Wavefunction directory         : /home/peterk/wfu/
 Main file repository           : /tmp/peterk/molpro.3tMTY39wI3/

 id        : peterk

 Nodes     nprocs
 marat        1
 GA implementation: MPI file
 GA implementation (serial work in mppx): MPI file

 Using customized tuning parameters: mindgm=1; mindgv=20; mindgc=4; mindgr=1; noblas=0; minvec=7
 default implementation of scratch files=df  


 Variables initialized (1032), CPU time= 0.00 sec
 
 symmetry,nosym
 
 
 geometry={
           13
     O          1.80918288     -1.48197632     -0.13563937
     P          1.64426933      0.11003422     -0.02161273
     O          2.62578344      0.89602816     -0.77013022
     O          0.11515077      0.34531982     -0.62604247
     P         -1.28269265      0.12043285      0.12727966
     O         -1.13992226      0.08855444      1.59898901
     O         -2.22040995      1.24159820     -0.50834791
     O         -1.92869837     -1.20324705     -0.45237675
     O          1.48219368      0.38322654      1.51502256
     H          2.40822260     -1.70928404     -0.86653892
     H         -1.95592225      2.14725276     -0.27254575
     H         -2.09204168     -1.18205223     -1.41071749
     H          0.53488444      0.24411265      1.82266037
 }
 basis=cc-pVTZ
 
 
 
 hf; ccsd(t)
 
 
 
 {put,xml;noorbitals,nobasis}
 Commands initialized (841), CPU time= 0.01 sec, 708 directives.
 Default parameters read. Elapsed time= 0.06 sec

 Checking input...
 Passed
1


                                         ***  PROGRAM SYSTEM MOLPRO  ***
                                       Copyright, TTI GmbH Stuttgart, 2015
                                    Version 2023.1 linked Sat Jun 10 08:01:27 2023


 **********************************************************************************************************************************
 LABEL *                                                                                                                                                                 
  (16 PROC) 64 bit serial version                                                        DATE: 13-Jun-23          TIME: 16:37:58  
 **********************************************************************************************************************************

 SHA1:             8376d659ba1296ca7ee514c57770fe2c96af278c
 **********************************************************************************************************************************

 Memory per process:      1074 MW
 Total memory per node:   1074 MW

 GA preallocation disabled
 GA check disabled

 Variable memory set to 1073.7 MW

 ZSYMEL=NOSYM


 Geometry recognized as XYZ

 SETTING BASIS          =    CC-PVTZ


 Recomputing integrals since basis changed


 Using spherical harmonics

 Library entry O      S cc-pVTZ              selected for orbital group  1
 Library entry O      P cc-pVTZ              selected for orbital group  1
 Library entry O      D cc-pVTZ              selected for orbital group  1
 Library entry O      F cc-pVTZ              selected for orbital group  1
 Library entry P      S cc-pVTZ              selected for orbital group  2
 Library entry P      P cc-pVTZ              selected for orbital group  2
 Library entry P      D cc-pVTZ              selected for orbital group  2
 Library entry P      F cc-pVTZ              selected for orbital group  2
 Library entry H      S cc-pVTZ              selected for orbital group  6
 Library entry H      P cc-pVTZ              selected for orbital group  6
 Library entry H      D cc-pVTZ              selected for orbital group  6


 PROGRAM * SEWARD (Integral evaluation for generally contracted gaussian basis sets)     Author: Roland Lindh, 1990

 Geometry written to block  1 of record 700


 Point group  C1  



 ATOMIC COORDINATES

 NR  ATOM    CHARGE       X              Y              Z

   1  O       8.00    3.418860153   -2.800529368   -0.256321261
   2  P      15.00    3.107218709    0.207934540   -0.040842141
   3  O       8.00    4.962011564    1.693247822   -1.455335196
   4  O       8.00    0.217603418    0.652559885   -1.183048811
   5  P      15.00   -2.423937811    0.227585103    0.240523699
   6  O       8.00   -2.154140875    0.167343639    3.021651305
   7  O       8.00   -4.195966690    2.346280555   -0.960638326
   8  O       8.00   -3.644711696   -2.273807385   -0.854868163
   9  O       8.00    2.800940119    0.724193204    2.862977711
  10  H       1.00    4.550881161   -3.230078705   -1.637521235
  11  H       1.00   -3.696157374    4.057719637   -0.515036824
  12  H       1.00   -3.953385817   -2.233754980   -2.665869695
  13  H       1.00    1.010785100    0.461306052    3.444328918

 Bond lengths in Bohr (Angstrom)

  1- 2  3.032228014   1-10  1.836762795   2- 3  2.765357606   2- 4  3.138822120   2- 5  5.538343193
       ( 1.604585963)       ( 0.971973013)       ( 1.463364225)       ( 1.660993135)       ( 2.930765004)

 2-9  2.965214885  4-5  3.030660377  5-6  2.794832765  5-7  3.011934092  5-8  2.991176455
     ( 1.569124142)     ( 1.603756405)     ( 1.478961808)     ( 1.593846882)     ( 1.582862414)

  7-11  1.837768697   8-12  1.837555566   9-13  1.900456227
       ( 0.972505313)       ( 0.972392529)       ( 1.005678126)

 Bond angles

  1-2-3  115.31669222   1-2-4  102.08135034   1-2-5   96.30226133   1-2-9  104.65202332

  2- 1-10  110.41450845   2- 4- 5  127.70604244   2- 5- 4   26.64008509   2- 5- 6   87.36740501

  2- 5- 7  124.73683139   2- 5- 8  112.70731037   2- 9-13  111.88711401   3- 2- 4  110.80896956

  3-2-5  133.94236567   3-2-9  118.46872697   4-2-5   25.65387247   4-2-9  103.68652937

  4-5-6  112.72464706   4-5-7  103.11061433   4-5-8  107.51599394   5-2-9   81.16870440

  5- 7-11  113.47664849   5- 8-12  114.28309143   6- 5- 7  117.95656176   6- 5- 8  112.69246755

  7-5-8  101.65936328

 NUCLEAR CHARGE:                   90
 NUMBER OF PRIMITIVE AOS:         525
 NUMBER OF SYMMETRY AOS:          476
 NUMBER OF CONTRACTIONS:          334   (  334A   )
 NUMBER OF INNER CORE ORBITALS:     2   (    2A   )
 NUMBER OF OUTER CORE ORBITALS:    15   (   15A   )
 NUMBER OF VALENCE ORBITALS:       40   (   40A   )


 NUCLEAR REPULSION ENERGY  776.59521062


 Eigenvalues of metric

         1 0.148E-02 0.162E-02 0.176E-02 0.182E-02 0.192E-02 0.202E-02 0.214E-02 0.222E-02


 Contracted 2-electron integrals neglected if value below      1.0D-11
 AO integral compression algorithm  1   Integral accuracy      1.0D-11

     3722.183 MB (compressed) written to integral file ( 30.8%)


 NUMBER OF SORTED TWO-ELECTRON INTEGRALS: 1564949485.     BUFFER LENGTH:  32768
 NUMBER OF SEGMENTS:  49  SEGMENT LENGTH:   31998710      RECORD LENGTH: 524288

 Memory used in sort:      32.56 MW

 SORT1 READ  1510734411. AND WROTE  1040055925. INTEGRALS IN   3000 RECORDS. CPU TIME:    19.93 SEC, REAL TIME:   142.06 SEC
 SORT2 READ  1040055925. AND WROTE  1564949485. INTEGRALS IN  14199 RECORDS. CPU TIME:    11.23 SEC, REAL TIME:    31.12 SEC

 FILE SIZES:   FILE 1:  3756.5 MBYTE,  FILE 4: 12583.0 MBYTE,   TOTAL:  16339.5 MBYTE

 OPERATOR DM      FOR CENTER  0  COORDINATES:    0.000000    0.000000    0.000000


 **********************************************************************************************************************************
 DATASETS  * FILE   NREC   LENGTH (MB)   RECORD NAMES
              1      19     3191.88       500      610      700      900      950      970     1000      129      960     1100   
                                          VAR    BASINP    GEOM    SYMINP    ZMAT    AOBASIS   BASIS     P2S    ABASIS      S 
                                         1400     1410     1200     1210     1080     1600     1650     1300     1700   
                                           T        V       H0       H01     AOSYM     SMH    MOLCAS    ERIS     OPER   

 PROGRAMS   *        TOTAL       INT
 CPU TIMES  *        74.81     74.71
 REAL TIME  *       225.91 SEC
 DISK USED  *        15.22 GB
 **********************************************************************************************************************************


 Program * Restricted Hartree-Fock

 Orbital guess generated from atomic densities. Full valence occupancy:   57

 Initial occupancy:  45

 NELEC=   90   SYM=1   MS2= 0   THRE=1.0D-08   THRD=3.2D-06   THRG=3.2D-06  HFMA2=F  DIIS_START=2   DIIS_MAX=10   DIIS_INCORE=F

 Level shifts:    0.00 (CLOSED)    0.00 (OPEN)    0.30 (GAP_MIN)

 ITER           ETOT              DE          GRAD        DDIFF     DIIS  NEXP   TIME(IT)  TIME(TOT)  DIAG
   1    -1208.09100686   -1208.09100686     0.00D+00     0.53D-01     0     0       9.39     18.23    start
   2    -1208.26513635      -0.17412949     0.52D-02     0.79D-02     1     0       9.54     27.77    diag
   3    -1208.36196771      -0.09683135     0.34D-02     0.30D-02     2     0       9.53     37.30    diag
   4    -1208.36394761      -0.00197990     0.43D-03     0.52D-03     3     0       9.52     46.82    diag
   5    -1208.36423690      -0.00028930     0.17D-03     0.20D-03     4     0       9.45     56.27    diag
   6    -1208.36425554      -0.00001864     0.35D-04     0.45D-04     5     0       9.52     65.79    diag
   7    -1208.36425732      -0.00000178     0.79D-05     0.15D-04     6     0       9.46     75.25    diag
   8    -1208.36425744      -0.00000012     0.22D-05     0.39D-05     7     0       9.50     84.75    fixocc
   9    -1208.36425745      -0.00000001     0.77D-06     0.13D-05     8     0       9.50     94.25    diag
  10    -1208.36425746      -0.00000000     0.29D-06     0.44D-06     9     0       9.46    103.71    diag/orth
  11    -1208.36425746      -0.00000000     0.10D-06     0.15D-06     0     0       9.54    113.25    diag

 Final occupancy:  45

 !RHF STATE 1.1 Energy              -1208.364257456093
  RHF One-electron energy           -3216.740509831032
  RHF Two-electron energy            1231.781041752715
  RHF Kinetic energy                 1207.040822069475
  RHF Nuclear energy                  776.595210622224
  RHF Virial quotient                  -1.001096429684

 !RHF STATE 1.1 Dipole moment          -1.25462305    -0.30331218    -1.20510816
 Dipole moment /Debye                  -3.18893371    -0.77094266    -3.06307941

 Orbital energies:

           1.1          2.1          3.1          4.1          5.1          6.1          7.1          8.1          9.1         10.1
    -80.154769   -80.127856   -20.643724   -20.640504   -20.639577   -20.618450   -20.600362   -20.557378   -20.523451    -7.671590

          11.1         12.1         13.1         14.1         15.1         16.1         17.1         18.1         19.1         20.1
     -7.644793    -5.570028    -5.569892    -5.568856    -5.543573    -5.542634    -5.541675    -1.503140    -1.459463    -1.421648

          21.1         22.1         23.1         24.1         25.1         26.1         27.1         28.1         29.1         30.1
     -1.407306    -1.390861    -1.346507    -1.310905    -0.916519    -0.857661    -0.799067    -0.793547    -0.762777    -0.715218

          31.1         32.1         33.1         34.1         35.1         36.1         37.1         38.1         39.1         40.1
     -0.687754    -0.671012    -0.658423    -0.641002    -0.619921    -0.605740    -0.592702    -0.589962    -0.570684    -0.564155

          41.1         42.1         43.1         44.1         45.1         46.1         47.1
     -0.542697    -0.520250    -0.513568    -0.486671    -0.480979     0.100010     0.132269


 HOMO     45.1    -0.480979 =     -13.0881eV
 LUMO     46.1     0.100010 =       2.7214eV
 LUMO-HOMO         0.580989 =      15.8095eV

 Orbitals saved in record  2100.2


 **********************************************************************************************************************************
 DATASETS  * FILE   NREC   LENGTH (MB)   RECORD NAMES
              1      19     3191.88       500      610      700      900      950      970     1000      129      960     1100   
                                          VAR    BASINP    GEOM    SYMINP    ZMAT    AOBASIS   BASIS     P2S    ABASIS      S 
                                         1400     1410     1200     1210     1080     1600     1650     1300     1700   
                                           T        V       H0       H01     AOSYM     SMH    MOLCAS    ERIS     OPER   

              2       4        2.34       700     1000      520     2100   
                                         GEOM     BASIS   MCVARS     RHF  

 PROGRAMS   *        TOTAL    HF-SCF       INT
 CPU TIMES  *       188.08    113.27     74.71
 REAL TIME  *       347.74 SEC
 DISK USED  *        15.22 GB
 **********************************************************************************************************************************


 PROGRAM * CCSD (Closed-shell coupled cluster)     Authors: C. Hampel, H.-J. Werner, 1991, M. Deegan, P.J. Knowles, 1992


 Convergence thresholds:  THRVAR = 1.00D-08  THRDEN = 1.00D-06

 CCSD(T)     terms to be evaluated (factor= 1.000)


 Number of core orbitals:          17 (  17 )
 Number of closed-shell orbitals:  28 (  28 )
 Number of external orbitals:     289 ( 289 )

 Molecular orbitals read from record     2100.2  Type=RHF/CANONICAL  

 Number of N-1 electron functions:              28
 Number of N-2 electron functions:             406
 Number of singly external CSFs:              8092
 Number of doubly external CSFs:          32744278
 Total number of CSFs:                    32752371

 Length of J-op  integral file:               0.00 MB
 Length of K-op  integral file:               7.72 MB
 Length of 3-ext integral record:             0.00 MB

 Memory could be reduced to 812.69 Mwords without degradation in triples

 Integral transformation finished. Total CPU: 133.29 sec, npass=  1  Memory used: 616.37 MW

 Reference energy:                  -1208.36425746

 MP2 singlet pair energy:              -1.17993698
 MP2 triplet pair energy:              -0.77975079
 MP2 correlation energy:               -1.95968777
 MP2 total energy:                  -1210.32394523

 SCS-MP2 correlation energy:           -1.90110264   (PS=  1.200000  PT=  0.333333)
 SCS-MP2 total energy:              -1210.26536010

 ITER.      SQ.NORM     CORR.ENERGY   TOTAL ENERGY   ENERGY CHANGE        DEN1      VAR(S)    VAR(P)  DIIS     TIME  TIME/IT
   1      1.46053703    -1.96116958 -1210.32542704    -0.00148181     0.04705830  0.12D-01  0.85D-02  1  1   765.28   443.94
   2      1.48975779    -1.96045520 -1210.32471265     0.00071438    -0.03906601  0.15D-03  0.11D-02  2  2  1231.00   472.73
   3      1.50113343    -1.96081788 -1210.32507534    -0.00036269    -0.00603415  0.21D-03  0.45D-04  3  3  1697.29   472.32
   4      1.50568820    -1.96049480 -1210.32475226     0.00032308    -0.00211626  0.13D-04  0.73D-05  4  4  2168.94   473.47
   5      1.50733575    -1.96044131 -1210.32469877     0.00005349    -0.00049747  0.21D-05  0.53D-06  5  5  2641.02   473.95
   6      1.50768405    -1.96040751 -1210.32466497     0.00003380    -0.00004685  0.22D-06  0.84D-07  6  6  3112.63   474.21
   7      1.50778211    -1.96039954 -1210.32465700     0.00000797    -0.00001404  0.23D-07  0.13D-07  6  2  3580.63   477.94
   8      1.50779547    -1.96040005 -1210.32465750    -0.00000051     0.00000191  0.30D-08  0.14D-08  6  1  4041.83   482.25
   9      1.50779746    -1.96040007 -1210.32465752    -0.00000002     0.00000234  0.44D-09  0.18D-09  6  3  4491.49   478.97

 Norm of t1 vector:      0.14328698      S-energy:    -0.00000028      T1 diagnostic:  0.01353935
                                                                       D1 diagnostic:  0.04179165
                                                                       D2 diagnostic:  0.13529506 (internal)

   CPU time for triples:   1886.82 sec for i =  1 - 15 / 28 (~  16.5 % done)
   CPU time for triples:   1822.91 sec for i = 16 - 19 / 28 (~  32.5 % done)
   CPU time for triples:   1888.41 sec for i = 20 - 22 / 28 (~  49.7 % done)
   CPU time for triples:   2452.90 sec for i = 23 - 25 / 28 (~  71.9 % done)
   CPU time for triples:   1886.30 sec for i = 26 - 27 / 28 (~  90.0 % done)
   CPU time for triples:   1050.54 sec for i = 28 - 28 / 28 (  100.0 % done)

 Total CPU time for triples:  10987.88 sec


 RESULTS
 =======

  Reference energy                  -1208.364257456094
  CCSD singlet pair energy             -1.271454013424
  CCSD triplet pair energy             -0.688945767894
  CCSD correlation energy              -1.960400066193

  Triples (T) contribution             -0.078573055129
  Total correlation energy             -2.038973121323

  CCSD total energy                 -1210.324657522287
  CCSD[T] energy                    -1210.407009731612
  CCSD-T energy                     -1210.401415137309
 !CCSD(T) total energy              -1210.403230577417

 Timing summary (sec):

 STEP                 CPU(USER)    SYS     CPU(TOT)    WALL
 Transformation        136.19      7.76    143.95    144.34
 CCSD iterations      4359.82     31.05   4390.87   4315.46
 Triples             10987.88    168.81  11156.69  11157.25

 Program statistics:

 Available memory in ccsd:              1073738643
 Min. memory needed in ccsd:              75791165
 Max. memory used in ccsd:               106585215
 Max. memory used in cckext:              92176592 ( 9 integral passes)



 **********************************************************************************************************************************
 DATASETS  * FILE   NREC   LENGTH (MB)   RECORD NAMES
              1      20     6299.52       500      610      700      900      950      970     1000      129      960     1100   
                                          VAR    BASINP    GEOM    SYMINP    ZMAT    AOBASIS   BASIS     P2S    ABASIS      S 
                                         1400     1410     1200     1210     1080     1600     1650     1300     1700     1380   
                                           T        V       H0       H01     AOSYM     SMH    MOLCAS    ERIS     OPER     JKOP   

              2       4        2.34       700     1000      520     2100   
                                         GEOM     BASIS   MCVARS     RHF  

 PROGRAMS   *        TOTAL   CCSD(T)    HF-SCF       INT
 CPU TIMES  *     15483.56  15295.47    113.27     74.71
 REAL TIME  *     15965.46 SEC
 DISK USED  *        15.22 GB
 **********************************************************************************************************************************

 Dump information in style XML to xml output                                                                      

 Orbitals will not be exported.

 **********************************************************************************************************************************

 CCSD(T)/cc-pVTZ energy=  -1210.403230577417

         CCSD(T)          HF-SCF
  -1210.40323058  -1208.36425746
 **********************************************************************************************************************************
 Molpro calculation terminated
