
 Working directory              : /var/folders/2v/xbgp75_9785319ghcgb4zr4r0000gp/T//molpro.7fxyuMQaqx/
 Global scratch directory       : /var/folders/2v/xbgp75_9785319ghcgb4zr4r0000gp/T//molpro.7fxyuMQaqx/
 Wavefunction directory         : /Users/sacpjk/wfu/
 Main file repository           : /var/folders/2v/xbgp75_9785319ghcgb4zr4r0000gp/T//molpro.7fxyuMQaqx/

 id        : peterk

 Nodes                        nprocs
 Cardiff-University-G34YLXT77Y    1
 GA implementation: MPI file
 GA implementation (serial work in mppx): MPI file

 Using customized tuning parameters: mindgm=1; mindgv=20; mindgc=4; mindgr=1; noblas=0; minvec=7
 default implementation of scratch files=df  


 Variables initialized (1037), CPU time= 0.00 sec
 
 symmetry,nosym
 
 
 geometry={
 15
  c         -0.229401415863   -0.511489757080    1.911948217716
  h          0.830221507792   -0.436497182116    1.681262709762
  h         -0.456793433104   -1.518543546161    2.253731820877
  h         -0.474724617927    0.171366517018    2.721845733409
  c         -1.120031782123   -0.193983184151    0.732149327679
  o         -2.342420646795   -0.221576018914    0.822213133681
  n         -0.458517144910    0.117041642661   -0.412739437064
  h          0.548711828246    0.117879558850   -0.408559862332
  c         -1.163220748890    0.443539649843   -1.630472700318
  h         -2.225468745770    0.370390506687   -1.418572339089
  h         -0.935401706776    1.456408698943   -1.960013485146
  h         -0.910722883901   -0.250889109954   -2.430503225191
  o          2.597680295940    0.135039093705   -0.526996327265
  h          3.162657580160   -0.577919527129   -0.832195733378
  h          3.177431914185    0.899232657906   -0.503097833394
 }
 basis=aug-cc-pVTZ
 
 
 
 hf; hf; papt; mp4; counterpoise
 
 
 
 {put,xml;noorbitals,nobasis}
 Commands initialized (841), CPU time= 0.00 sec, 716 directives.
 Default parameters read. Elapsed time= 0.07 sec

 Checking input...
 Passed
1


                                         ***  PROGRAM SYSTEM MOLPRO  ***
                                       Copyright, TTI GmbH Stuttgart, 2015
                                    Version 2023.1 linked Fri Jul 14 07:57:55 2023


 **********************************************************************************************************************************
 LABEL *                                                                                                                                                                 
  64 bit serial version                                                                  DATE: 14-Jul-23          TIME: 13:21:36  
 **********************************************************************************************************************************

 SHA1:             8f90ea6339eadc8ec4622dc21e4296b0c92029f5
 **********************************************************************************************************************************

 Memory per process:      1573 MW
 Total memory per node:   2097 MW
 Total GA space:           524 MW

 GA preallocation disabled
 GA check enabled

 Variable memory set to 1572.9 MW

 ZSYMEL=NOSYM


 Geometry recognized as XYZ

 SETTING BASIS          =    AUG-CC-PVTZ


 Recomputing integrals since basis changed


 Using spherical harmonics

 Library entry C      S aug-cc-pVTZ          selected for orbital group  1
 Library entry C      P aug-cc-pVTZ          selected for orbital group  1
 Library entry C      D aug-cc-pVTZ          selected for orbital group  1
 Library entry C      F aug-cc-pVTZ          selected for orbital group  1
 Library entry H      S aug-cc-pVTZ          selected for orbital group  2
 Library entry H      P aug-cc-pVTZ          selected for orbital group  2
 Library entry H      D aug-cc-pVTZ          selected for orbital group  2
 Library entry O      S aug-cc-pVTZ          selected for orbital group  4
 Library entry O      P aug-cc-pVTZ          selected for orbital group  4
 Library entry O      D aug-cc-pVTZ          selected for orbital group  4
 Library entry O      F aug-cc-pVTZ          selected for orbital group  4
 Library entry N      S aug-cc-pVTZ          selected for orbital group  5
 Library entry N      P aug-cc-pVTZ          selected for orbital group  5
 Library entry N      D aug-cc-pVTZ          selected for orbital group  5
 Library entry N      F aug-cc-pVTZ          selected for orbital group  5


 PROGRAM * SEWARD (Integral evaluation for generally contracted gaussian basis sets)     Author: Roland Lindh, 1990

 Geometry written to block  1 of record 700


 Point group  C1  



 ATOMIC COORDINATES

 NR  ATOM    CHARGE       X              Y              Z

   1  C       6.00   -0.433505849   -0.966575556    3.613058496
   2  H       1.00    1.568891273   -0.824860128    3.177126065
   3  H       1.00   -0.863214484   -2.869631411    4.258935900
   4  H       1.00   -0.897099512    0.323835784    5.143542990
   5  C       6.00   -2.116553319   -0.366575091    1.383561712
   6  O       8.00   -4.426533491   -0.418717992    1.553757639
   7  N       7.00   -0.866471827    0.221176650   -0.779964497
   8  H       1.00    1.036915077    0.222760082   -0.772066245
   9  C       6.00   -2.198168638    0.838168464   -3.081146857
  10  H       1.00   -4.205526428    0.699936617   -2.680713209
  11  H       1.00   -1.767653042    2.752213567   -3.703888687
  12  H       1.00   -1.721016826   -0.474111705   -4.592985441
  13  O       8.00    4.908904319    0.255186903   -0.995878727
  14  H       1.00    5.976556652   -1.092109628   -1.572622018
  15  H       1.00    6.004476097    1.699303446   -0.950717119

 Bond lengths in Bohr (Angstrom)

 1-2  2.054194386  1-3  2.055098225  1-4  2.054863328  1-5  2.857149849  5-6  2.316828421
     ( 1.087032856)     ( 1.087511147)     ( 1.087386845)     ( 1.511938588)     ( 1.226012802)

  5- 7  2.566905043   7- 8  1.903403950   7- 9  2.729383731   9-10  2.051570240   9-11  2.058329352
       ( 1.358347651)       ( 1.007237993)       ( 1.444327670)       ( 1.085644218)       ( 1.089220986)

  9-12  2.058010932  13-14  1.813207730  13-15  1.813226318
       ( 1.089052485)       ( 0.959508210)       ( 0.959518046)

 Bond angles

  1-5-6  121.68673501   1-5-7  114.76561876   2-1-3  109.53613120   2-1-4  109.55165806

  2-1-5  113.21157163   3-1-4  107.47361178   3-1-5  108.45340172   4-1-5  108.44650049

  5- 7- 8  118.92656064   5- 7- 9  121.65278092   6- 5- 7  123.54762817   7- 9-10  107.31367469

  7- 9-11  111.29936160   7- 9-12  111.22895924   8- 7- 9  119.42062152  10- 9-11  109.04787910

 10- 9-12  109.10347795  11- 9-12  108.79598226  14-13-15  104.11910811

 NUCLEAR CHARGE:                   50
 NUMBER OF PRIMITIVE AOS:         645
 NUMBER OF SYMMETRY AOS:          573
 NUMBER OF CONTRACTIONS:          483   (  483A   )
 NUMBER OF INNER CORE ORBITALS:     0   (    0A   )
 NUMBER OF OUTER CORE ORBITALS:     6   (    6A   )
 NUMBER OF VALENCE ORBITALS:       33   (   33A   )


 NUCLEAR REPULSION ENERGY  243.51194113


 Eigenvalues of metric

         1 0.105E-04 0.121E-04 0.155E-04 0.241E-04 0.267E-04 0.295E-04 0.365E-04 0.505E-04


 Contracted 2-electron integrals neglected if value below      1.0D-12
 AO integral compression algorithm  1   Integral accuracy      1.0D-12

     25267.798 MB (compressed) written to integral file ( 43.2%)


 NUMBER OF SORTED TWO-ELECTRON INTEGRALS: 6831226941.     BUFFER LENGTH:  32768
 NUMBER OF SEGMENTS: 143  SEGMENT LENGTH:   47999545      RECORD LENGTH: 262144

 Memory used in sort:      48.29 MW

 SORT1 READ  7318818882. AND WROTE  5912897034. INTEGRALS IN  33905 RECORDS. CPU TIME:    51.64 SEC, REAL TIME:    68.32 SEC
 SORT2 READ  5912897034. AND WROTE  6831226941. INTEGRALS IN  96389 RECORDS. CPU TIME:    30.04 SEC, REAL TIME:    75.47 SEC

 FILE SIZES:   FILE 1: 25306.6 MBYTE,  FILE 4: 71104.0 MBYTE,   TOTAL:  96410.6 MBYTE

 OPERATOR DM      FOR CENTER  0  COORDINATES:    0.000000    0.000000    0.000000


 **********************************************************************************************************************************
 DATASETS  * FILE   NREC   LENGTH (MB)   RECORD NAMES
              1      19    22580.07       500      610      700      900      950      970     1000      129      960     1100   
                                          VAR    BASINP    GEOM    SYMINP    ZMAT    AOBASIS   BASIS     P2S    ABASIS      S 
                                         1400     1410     1200     1210     1080     1600     1650     1300     1700   
                                           T        V       H0       H01     AOSYM     SMH    MOLCAS    ERIS     OPER   

 PROGRAMS   *        TOTAL       INT
 CPU TIMES  *       193.64    193.55
 REAL TIME  *       273.65 SEC
 DISK USED  *        89.79 GB
 **********************************************************************************************************************************


 Program * Restricted Hartree-Fock

 Orbital guess generated from atomic densities. Full valence occupancy:   39

 Initial occupancy:  25

 NELEC=   50   SYM=1   MS2= 0   THRE=1.0D-08   THRD=3.2D-06   THRG=3.2D-06  HFMA2=F  DIIS_START=2   DIIS_MAX=10   DIIS_INCORE=F

 Level shifts:    0.00 (CLOSED)    0.00 (OPEN)    0.30 (GAP_MIN)

 ITER           ETOT              DE          GRAD        DDIFF     DIIS  NEXP   TIME(IT)  TIME(TOT)  DIAG
   1     -323.02770257    -323.02770257     0.00D+00     0.29D-01     0     0      23.97     46.02    start
   2     -323.11804301      -0.09034045     0.35D-02     0.42D-02     1     0      24.22     70.24    diag
   3     -323.16558447      -0.04754145     0.25D-02     0.16D-02     2     0      24.00     94.24    diag
   4     -323.16813522      -0.00255076     0.40D-03     0.44D-03     3     0      23.98    118.22    diag
   5     -323.16848622      -0.00035100     0.15D-03     0.16D-03     4     0      24.15    142.37    diag
   6     -323.16853762      -0.00005140     0.47D-04     0.60D-04     5     0      24.08    166.45    diag
   7     -323.16854666      -0.00000904     0.17D-04     0.27D-04     6     0      23.91    190.36    diag
   8     -323.16854807      -0.00000141     0.67D-05     0.99D-05     7     0      24.16    214.52    fixocc
   9     -323.16854829      -0.00000022     0.24D-05     0.47D-05     8     0      23.68    238.20    diag
  10     -323.16854830      -0.00000001     0.64D-06     0.12D-05     9     0      24.21    262.41    diag/orth
  11     -323.16854830      -0.00000000     0.26D-06     0.32D-06     9     0      23.65    286.06    diag
  12     -323.16854830      -0.00000000     0.72D-07     0.11D-06     0     0      23.91    309.97    diag

 Final occupancy:  25

 !RHF STATE 1.1 Energy               -323.168548301680
  RHF One-electron energy            -924.524344745460
  RHF Two-electron energy             357.843855312009
  RHF Kinetic energy                  322.726182356029
  RHF Nuclear energy                  243.511941131770
  RHF Virial quotient                  -1.001370716012

 !RHF STATE 1.1 Dipole moment           2.64373017     0.16508911    -0.66282244
 Dipole moment /Debye                   6.71969184     0.41961465    -1.68472660

 Orbital energies:

           1.1          2.1          3.1          4.1          5.1          6.1          7.1          8.1          9.1         10.1
    -20.600791   -20.494544   -15.564181   -11.330616   -11.241478   -11.219125    -1.388047    -1.356777    -1.211844    -1.002760

          11.1         12.1         13.1         14.1         15.1         16.1         17.1         18.1         19.1         20.1
     -0.916290    -0.772844    -0.749938    -0.675928    -0.639977    -0.622787    -0.617324    -0.572702    -0.562464    -0.548046

          21.1         22.1         23.1         24.1         25.1         26.1         27.1
     -0.535791    -0.527203    -0.489094    -0.404444    -0.373322     0.013144     0.034701


 HOMO     25.1    -0.373322 =     -10.1586eV
 LUMO     26.1     0.013144 =       0.3577eV
 LUMO-HOMO         0.386466 =      10.5163eV

 Orbitals saved in record  2100.2


 **********************************************************************************************************************************
 DATASETS  * FILE   NREC   LENGTH (MB)   RECORD NAMES
              1      19    22580.07       500      610      700      900      950      970     1000      129      960     1100   
                                          VAR    BASINP    GEOM    SYMINP    ZMAT    AOBASIS   BASIS     P2S    ABASIS      S 
                                         1400     1410     1200     1210     1080     1600     1650     1300     1700   
                                           T        V       H0       H01     AOSYM     SMH    MOLCAS    ERIS     OPER   

              2       4        4.25       700     1000      520     2100   
                                         GEOM     BASIS   MCVARS     RHF  

 PROGRAMS   *        TOTAL    HF-SCF       INT
 CPU TIMES  *       503.61    309.97    193.55
 REAL TIME  *       622.90 SEC
 DISK USED  *        89.79 GB
 **********************************************************************************************************************************


 Program * Restricted Hartree-Fock

 Molecular orbitals read from record     2100.2  Type=RHF/CANONICAL  

 Initial occupancy:  25

 NELEC=   50   SYM=1   MS2= 0   THRE=1.0D-08   THRD=3.2D-06   THRG=3.2D-06  HFMA2=F  DIIS_START=2   DIIS_MAX=10   DIIS_INCORE=F

 Level shifts:    0.00 (CLOSED)    0.00 (OPEN)    0.30 (GAP_MIN)

 ITER           ETOT              DE          GRAD        DDIFF     DIIS  NEXP   TIME(IT)  TIME(TOT)  DIAG
   1     -323.16854830    -323.16854830     0.00D+00     0.30D-01     0     0      24.02     24.02    start
   2     -323.16854830      -0.00000000     0.38D-07     0.46D-07     1     0      23.78     47.80    diag

 Final occupancy:  25

 !RHF STATE 1.1 Energy               -323.168548301705
  RHF One-electron energy            -924.524343329620
  RHF Two-electron energy             357.843853896145
  RHF Kinetic energy                  322.726180196432
  RHF Nuclear energy                  243.511941131770
  RHF Virial quotient                  -1.001370722713

 !RHF STATE 1.1 Dipole moment           2.64372469     0.16508879    -0.66282133
 Dipole moment /Debye                   6.71967790     0.41961384    -1.68472377

 Orbital energies:

           1.1          2.1          3.1          4.1          5.1          6.1          7.1          8.1          9.1         10.1
    -20.600788   -20.494544   -15.564188   -11.330615   -11.241480   -11.219121    -1.388047    -1.356777    -1.211845    -1.002759

          11.1         12.1         13.1         14.1         15.1         16.1         17.1         18.1         19.1         20.1
     -0.916291    -0.772845    -0.749937    -0.675928    -0.639977    -0.622786    -0.617324    -0.572701    -0.562464    -0.548045

          21.1         22.1         23.1         24.1         25.1         26.1         27.1
     -0.535791    -0.527203    -0.489094    -0.404444    -0.373322     0.013144     0.034701


 HOMO     25.1    -0.373322 =     -10.1586eV
 LUMO     26.1     0.013144 =       0.3577eV
 LUMO-HOMO         0.386466 =      10.5163eV

 Orbitals saved in record  2101.2


 **********************************************************************************************************************************
 DATASETS  * FILE   NREC   LENGTH (MB)   RECORD NAMES
              1      19    22580.07       500      610      700      900      950      970     1000      129      960     1100   
                                          VAR    BASINP    GEOM    SYMINP    ZMAT    AOBASIS   BASIS     P2S    ABASIS      S 
                                         1400     1410     1200     1210     1080     1600     1650     1300     1700   
                                           T        V       H0       H01     AOSYM     SMH    MOLCAS    ERIS     OPER   

              2       5       10.59       700     1000      520     2100     2101   
                                         GEOM     BASIS   MCVARS     RHF      RHF  

 PROGRAMS   *        TOTAL    HF-SCF    HF-SCF       INT
 CPU TIMES  *       551.43     47.82    309.97    193.55
 REAL TIME  *       676.65 SEC
 DISK USED  *        89.79 GB
 **********************************************************************************************************************************


 PROGRAM * PAPT (Closed-shell)     Authors: C. Hampel, H.-J. Werner, 1991, P.J. Knowles, 2021


 Convergence thresholds:  THRVAR = 1.00D-08  THRDEN = 1.00D-06

 Number of core orbitals:           6 (   6 )
 Number of closed-shell orbitals:  19 (  19 )
 Number of external orbitals:     458 ( 458 )

 Molecular orbitals read from record     2101.2  Type=RHF/CANONICAL  

 Number of N-1 electron functions:              19
 Number of N-2 electron functions:             190
 Number of singly external CSFs:              8702
 Number of doubly external CSFs:          37866753
 Total number of CSFs:                    37875456

 Length of J-op  integral file:               0.00 MB
 Length of K-op  integral file:              16.08 MB

 Integral transformation finished. Total CPU:  67.06 sec, npass=  1  Memory used:  76.95 MW

 Reference energy:                   -323.16854830

                        CORR.ENERGY   TOTAL ENERGY   ENERGY CHANGE
 MP2:                   -1.23974679  -324.40829510    -1.23974679

 SCS-MP2 correlation energy:           -1.22824887   (PS=  1.200000  PT=  0.333333)
 SCS-MP2 total energy:               -324.39679717
 Iteration:   1     0.2246D+00
 Iteration:   2     0.2974D+00
 Iteration:   3     0.9573D-01
 Iteration:   4     0.1068D+00
 Iteration:   5     0.2828D+00
 Iteration:   6     0.1334D+00
 Iteration:   7     0.1644D+01
 Iteration:   8     0.1762D+00
 Iteration:   9     0.1822D+00
 Iteration:  10     0.1893D+00
 Iteration:  11     0.9969D-01
 Iteration:  12     0.2049D+00
 Iteration:  13     0.3442D-01
 Iteration:  14     0.5318D-01
 Iteration:  15     0.1828D-01
 Iteration:  16     0.1132D-01
 Iteration:  17     0.3044D-01
 Iteration:  18     0.5197D-02
 Iteration:  19     0.1363D-01
 Iteration:  20     0.3574D-02
 Iteration:  21     0.2238D-02
 Iteration:  22     0.2453D-01
 Iteration:  23     0.8128D-03
 Iteration:  24     0.9268D-03
 Iteration:  25     0.6422D-03
 Iteration:  26     0.2376D-03
 Iteration:  27     0.1138D-02
 Iteration:  28     0.1404D-03
 Iteration:  29     0.2361D-03
 Iteration:  30     0.1059D-03
 Iteration:  31     0.9226D-04
 PAPT operator written to  7000.1
 PAPT orbitals and eigenvalues written to  7000.2

 MP3(D):                -1.26560308  -324.43415138    -0.02585628



 RESULTS
 =======

  Reference energy                   -323.168548301708
  MP3 singlet pair energy              -0.851000788548
  MP3 triplet pair energy              -0.414602290906
  MP3 correlation energy               -1.265603079454

 !MP3 total energy                   -324.434151381162

 Timing summary (sec):

 STEP                 CPU(USER)    SYS     CPU(TOT)    WALL
 Transformation         68.91      6.32     75.23     74.75
 CCSD iterations       938.60     14.94    953.54    361.10

 Program statistics:

 Available memory in ccsd:              1572862531
 Min. memory needed in ccsd:              88598334
 Max. memory used in ccsd:               124029705
 Max. memory used in cckext:              90829265 ( 1 integral passes)



 **********************************************************************************************************************************
 DATASETS  * FILE   NREC   LENGTH (MB)   RECORD NAMES
              1      21    23092.14       500      610      700      900      950      970     1000      129      960     1100   
                                          VAR    BASINP    GEOM    SYMINP    ZMAT    AOBASIS   BASIS     P2S    ABASIS      S 
                                         1400     1410     1200     1210     1080     1600     1650     1300     1700     1380   
                                           T        V       H0       H01     AOSYM     SMH    MOLCAS    ERIS     OPER     JKOP   
                                         7000   
                                        PAPT AO    

              2       6       16.04       700     1000      520     2100     2101     7000   
                                         GEOM     BASIS   MCVARS     RHF      RHF     PAPT   

 PROGRAMS   *        TOTAL      PAPT    HF-SCF    HF-SCF       INT
 CPU TIMES  *      1007.44    456.01     47.82    309.97    193.55
 REAL TIME  *      1112.68 SEC
 DISK USED  *        89.79 GB
 **********************************************************************************************************************************


 PROGRAM * MP4 (Closed-shell)     Authors: C. Hampel, H.-J. Werner, 1991, M. Deegan, P.J. Knowles, 1992


 Convergence thresholds:  THRVAR = 1.00D-08  THRDEN = 1.00D-06

 MP4(T)     terms to be evaluated (factor= 0.000)


 Number of core orbitals:           6 (   6 )
 Number of closed-shell orbitals:  19 (  19 )
 Number of external orbitals:     458 ( 458 )

 Molecular orbitals read from record     7000.2  Type=PAPT/CANONICAL (state 1.1)

 Number of N-1 electron functions:              19
 Number of N-2 electron functions:             190
 Number of singly external CSFs:              8702
 Number of doubly external CSFs:          37866753
 Total number of CSFs:                    37875456

 Length of J-op  integral file:               0.00 MB
 Length of K-op  integral file:              16.08 MB

 For full I/O caching in triples, increase memory by 583.71 Mwords to 2156.63 Mwords.

 Integral transformation finished. Total CPU: 162.00 sec, npass=  1  Memory used:1206.07 MW
 Orbital energies read from record       7000.2  Type=PAPT/CANONICAL (state 1.1)

 Reference energy:                   -323.16854830

                        CORR.ENERGY   TOTAL ENERGY   ENERGY CHANGE
 MP2:                   -1.27709209  -324.44564040    -1.27709209

 SCS-MP2 correlation energy:           -1.27080746   (PS=  1.200000  PT=  0.333333)
 SCS-MP2 total energy:               -324.43935576

 MP3(D):                -1.27751084  -324.44605915    -0.00041875
 MP4(DQ):               -1.26294304  -324.43149134     0.01456781
 MP4(SDQ):              -1.27306915  -324.44161745    -0.01012611

 Norm of t1 vector:      0.08546982      S-energy:    -0.01012611      T1 diagnostic:  0.00980406

 Largest off-diagonal element in interal  block of Fock matrix:  0.11D+00
 Largest off-diagonal element in external block of Fock matrix:  0.43D+00

   CPU time for triples:   1995.79 sec for i =  1 - 12 / 19 (~  26.8 % done)
   CPU time for triples:   2475.60 sec for i = 13 - 16 / 19 (~  61.0 % done)
   CPU time for triples:   1842.39 sec for i = 17 - 18 / 19 (~  85.6 % done)
   CPU time for triples:   1101.71 sec for i = 19 - 19 / 19 (  100.0 % done)

 Total CPU time for triples:   7415.49 sec


 RESULTS
 =======

  Reference energy                   -323.168548301706
  MP4(SDQ) singlet pair energy         -0.849456365657
  MP4(SDQ) triplet pair energy         -0.413486672967
  MP4(SDQ) correlation energy          -1.273069153220

  Triples contribution                 -0.057552110961
  Total correlation energy             -1.330621264181

  MP4(SDQ) total energy              -324.441617454926
 !MP4(SDTQ) total energy             -324.499169565888

 Timing summary (sec):

 STEP                 CPU(USER)    SYS     CPU(TOT)    WALL
 Transformation        188.49     29.08    217.57    214.46
 CCSD iterations      1279.04     13.66   1292.70    234.93
 Triples              7415.49    271.70   7687.19   6596.59

 Program statistics:

 Available memory in ccsd:              1572862531
 Min. memory needed in ccsd:              88598334
 Max. memory used in ccsd:               124029705
 Max. memory used in cckext:              90829265 ( 1 integral passes)



 **********************************************************************************************************************************
 DATASETS  * FILE   NREC   LENGTH (MB)   RECORD NAMES
              1      22    30070.57       500      610      700      900      950      970     1000      129      960     1100   
                                          VAR    BASINP    GEOM    SYMINP    ZMAT    AOBASIS   BASIS     P2S    ABASIS      S 
                                         1400     1410     1200     1210     1080     1600     1650     1300     1700     1380   
                                           T        V       H0       H01     AOSYM     SMH    MOLCAS    ERIS     OPER     JKOP   
                                         7000     1380(1)
                                        PAPT AO   JKOP   

              2       6       16.04       700     1000      520     2100     2101     7000   
                                         GEOM     BASIS   MCVARS     RHF      RHF     PAPT   

 PROGRAMS   *        TOTAL       MP4      PAPT    HF-SCF    HF-SCF       INT
 CPU TIMES  *      8882.95   7875.51    456.01     47.82    309.97    193.55
 REAL TIME  *      8158.81 SEC
 DISK USED  *        89.79 GB
 **********************************************************************************************************************************

 Counterpoise: absolute minimum monomer separation=    -1.000 Bragg radius scale factor=     1.400 Number of monomers= 2

 Counterpoise  MP4  energy

 Running default procedure: HF-SCF001  PAPT  MP4

 Assignment of unique atoms to monomers:
1-15     1     1     1     1     1     1     1     1     1     1     1     1     2     2     2

 *** Long output written to logfile /Users/sacpjk/current/PAPT/S66/311b63cc/16.molpro/run/1.molpro/1.log ***


 Description                       ENERGY          ENERGR          ENERGC
 Raw                        -324.49916957   -323.16854830   -324.44161745
 Dimer basis, monomer 1     -248.14770369   -247.10261046   -248.10016063
 Dimer basis, monomer 2      -76.34355048    -76.06052472    -76.33398138
 Monomer basis, monomer 1   -248.14726012   -247.10253308   -248.09974344
 Monomer basis, monomer 2    -76.34299332    -76.06042499    -76.33346189
 Counterpoise correction       0.00100073      0.00017711      0.00093667
 Counterpoise corrected     -324.49816884   -323.16837119   -324.44068078


 **********************************************************************************************************************************
 DATASETS  * FILE   NREC   LENGTH (MB)   RECORD NAMES
              1      19    22580.07       500      610      700      900      950      970     1000      129      960     1100   
                                          VAR    BASINP    GEOM    SYMINP    ZMAT    AOBASIS   BASIS     P2S    ABASIS      S 
                                         1400     1410     1200     1210     1080     1600     1650     1300     1700   
                                           T        V       H0       H01     AOSYM     SMH    MOLCAS    ERIS     OPER   

              2      14       41.75       700     1000      520     2100     2101     2102     2103      701     1001     2104   
                                         GEOM     BASIS   MCVARS     RHF      RHF      RHF      RHF     GEOM     BASIS     RHF  
                                          702     1002     2105     7000   
                                         GEOM     BASIS     RHF     PAPT   

 PROGRAMS   *        TOTALCOUNTERPOI      PAPT    HF-SCF       INT       MP4      PAPT    HF-SCF       INT       MP4      PAPT
 CPU TIMES  *     16079.85    192.33      0.19      0.45      0.36   1762.83    121.62    131.45     85.23    190.89     56.04
 REAL TIME  *     14781.75 SEC
 DISK USED  *        89.83 GB
 **********************************************************************************************************************************

 Dump information in style XML to xml output                                                                      

 Orbitals will not be exported.

 **********************************************************************************************************************************

 MP4/aug-cc-pVTZ energy=   -324.498168839336

             MP4            PAPT          HF-SCF             MP4            PAPT          HF-SCF             MP4            PAPT
    -76.34299332    -76.33162418    -76.06042499   -248.14726012   -248.09375061   -247.10253308    -76.34355048    -76.33215154
 **********************************************************************************************************************************
 Molpro calculation terminated
