
 Working directory              : /var/folders/2v/xbgp75_9785319ghcgb4zr4r0000gp/T//molpro.PjspyOkXVq/
 Global scratch directory       : /var/folders/2v/xbgp75_9785319ghcgb4zr4r0000gp/T//molpro.PjspyOkXVq/
 Wavefunction directory         : /Users/sacpjk/wfu/
 Main file repository           : /var/folders/2v/xbgp75_9785319ghcgb4zr4r0000gp/T//molpro.PjspyOkXVq/

 id        : peterk

 Nodes                        nprocs
 Cardiff-University-G34YLXT77Y    1
 GA implementation: MPI file
 GA implementation (serial work in mppx): MPI file

 Using customized tuning parameters: mindgm=1; mindgv=20; mindgc=4; mindgr=1; noblas=0; minvec=7
 default implementation of scratch files=df  


 Variables initialized (1032), CPU time= 0.01 sec
 
 symmetry,nosym
 
 
 geometry={
           10
     H          0.00000000     -1.42064151      1.71659501
     C          0.00000000      0.67017024      0.92994073
     C          0.00000000     -0.67017024      0.92994073
     C          0.00000000      0.78631128     -0.58457581
     C          0.00000000     -0.78631128     -0.58457581
     H          0.89010932     -1.24659944     -1.03097997
     H         -0.89010932     -1.24659944     -1.03097997
     H          0.00000000      1.42064151      1.71659501
     H         -0.89010932      1.24659944     -1.03097997
     H          0.89010932      1.24659944     -1.03097997
 }
 basis=cc-pVTZ
 
 
 
 hf
 
 
 
 {put,xml;noorbitals,nobasis}
 Commands initialized (841), CPU time= 0.00 sec, 704 directives.
 Default parameters read. Elapsed time= 1.34 sec

 Checking input...
 Passed
1


                                         ***  PROGRAM SYSTEM MOLPRO  ***
                                       Copyright, TTI GmbH Stuttgart, 2015
                                    Version 2023.1 linked Tue Jun  6 09:54:11 2023


 **********************************************************************************************************************************
 LABEL *                                                                                                                                                                 
  64 bit serial version                                                                  DATE: 10-Jun-23          TIME: 14:48:18  
 **********************************************************************************************************************************

 SHA1:             8ebb0dd001088a5c915591db1a321413035db0b1
 **********************************************************************************************************************************

 Memory per process:       805 MW
 Total memory per node:   1074 MW
 Total GA space:           268 MW

 GA preallocation disabled
 GA check enabled

 Variable memory set to 805.3 MW

 ZSYMEL=NOSYM


 Geometry recognized as XYZ

 SETTING BASIS          =    CC-PVTZ


 Recomputing integrals since basis changed


 Using spherical harmonics

 Library entry H      S cc-pVTZ              selected for orbital group  1
 Library entry H      P cc-pVTZ              selected for orbital group  1
 Library entry H      D cc-pVTZ              selected for orbital group  1
 Library entry C      S cc-pVTZ              selected for orbital group  2
 Library entry C      P cc-pVTZ              selected for orbital group  2
 Library entry C      D cc-pVTZ              selected for orbital group  2
 Library entry C      F cc-pVTZ              selected for orbital group  2


 PROGRAM * SEWARD (Integral evaluation for generally contracted gaussian basis sets)     Author: Roland Lindh, 1990

 Geometry written to block  1 of record 700


 Point group  C1  



 ATOMIC COORDINATES

 NR  ATOM    CHARGE       X              Y              Z

   1  H       1.00    0.000000000   -2.684623375    3.243894436
   2  C       6.00    0.000000000    1.266438210    1.757333292
   3  C       6.00    0.000000000   -1.266438210    1.757333292
   4  C       6.00    0.000000000    1.485912968   -1.104688180
   5  C       6.00    0.000000000   -1.485912968   -1.104688180
   6  H       1.00    1.682062836   -2.355731529   -1.948269783
   7  H       1.00   -1.682062836   -2.355731529   -1.948269783
   8  H       1.00    0.000000000    2.684623375    3.243894436
   9  H       1.00   -1.682062836    2.355731529   -1.948269783
  10  H       1.00    1.682062836    2.355731529   -1.948269783

 Bond lengths in Bohr (Angstrom)

 1-3  2.054534788  2-3  2.532876421  2-4  2.870424372  2-5  3.970718312  2-8  2.054534788
     ( 1.087212989)     ( 1.340340480)     ( 1.518963163)     ( 2.101213642)     ( 1.087212989)

  3- 4  3.970718312   3- 5  2.870424372   4- 5  2.971825936   4- 9  2.073053215   4-10  2.073053215
       ( 2.101213642)       ( 1.518963163)       ( 1.572622560)       ( 1.097012519)       ( 1.097012519)

 5-6  2.073053215  5-7  2.073053215
     ( 1.097012519)     ( 1.097012519)

 Bond angles

  1-3-2  133.65154087   1-3-4  179.77060551   1-3-5  131.96330183   2-3-4   46.11906464

  2-3-5   94.38515730   2-4-3   39.49577806   2-4-5   85.61484270   2-4-9  115.96471444

  2- 4-10  115.96471444   2- 5- 3   39.49577806   2- 5- 4   46.11906464   2- 5- 6  125.74260410

  2-5-7  125.74260410   3-2-4   94.38515730   3-2-5   46.11906464   3-2-8  133.65154087

  3- 4- 5   46.11906464   3- 4- 9  125.74260410   3- 4-10  125.74260410   3- 5- 4   85.61484270

  3-5-6  115.96471444   3-5-7  115.96471444   4-2-5   48.26609266   4-2-8  131.96330183

  4-3-5   48.26609266   4-5-6  114.80828385   4-5-7  114.80828385   5-2-8  179.77060551

  5- 4- 9  114.80828385   5- 4-10  114.80828385   6- 5- 7  108.46469695   9- 4-10  108.46469695

 NUCLEAR CHARGE:                   30
 NUMBER OF PRIMITIVE AOS:         290
 NUMBER OF SYMMETRY AOS:          264
 NUMBER OF CONTRACTIONS:          204   (  204A   )
 NUMBER OF INNER CORE ORBITALS:     0   (    0A   )
 NUMBER OF OUTER CORE ORBITALS:     4   (    4A   )
 NUMBER OF VALENCE ORBITALS:       22   (   22A   )


 NUCLEAR REPULSION ENERGY  112.98875052


 Eigenvalues of metric

         1 0.110E-03 0.825E-03 0.106E-02 0.115E-02 0.133E-02 0.142E-02 0.143E-02 0.151E-02


 Contracted 2-electron integrals neglected if value below      1.0D-11
 AO integral compression algorithm  1   Integral accuracy      1.0D-11

     767.558 MB (compressed) written to integral file ( 40.2%)


 NUMBER OF SORTED TWO-ELECTRON INTEGRALS:  218624505.     BUFFER LENGTH:  32768
 NUMBER OF SEGMENTS:  14  SEGMENT LENGTH:   15999503      RECORD LENGTH: 524288

 Memory used in sort:      16.56 MW

 SORT1 READ   238659226. AND WROTE   178052952. INTEGRALS IN    517 RECORDS. CPU TIME:     1.79 SEC, REAL TIME:     3.25 SEC
 SORT2 READ   178052952. AND WROTE   218624505. INTEGRALS IN   2928 RECORDS. CPU TIME:     1.41 SEC, REAL TIME:     2.92 SEC

 FILE SIZES:   FILE 1:   799.3 MBYTE,  FILE 4:  2168.5 MBYTE,   TOTAL:   2967.8 MBYTE

 OPERATOR DM      FOR CENTER  0  COORDINATES:    0.000000    0.000000    0.000000


 **********************************************************************************************************************************
 DATASETS  * FILE   NREC   LENGTH (MB)   RECORD NAMES
              1      19      705.95       500      610      700      900      950      970     1000      129      960     1100   
                                          VAR    BASINP    GEOM    SYMINP    ZMAT    AOBASIS   BASIS     P2S    ABASIS      S 
                                         1400     1410     1200     1210     1080     1600     1650     1300     1700   
                                           T        V       H0       H01     AOSYM     SMH    MOLCAS    ERIS     OPER   

 PROGRAMS   *        TOTAL       INT
 CPU TIMES  *         9.13      9.02
 REAL TIME  *        18.98 SEC
 DISK USED  *         2.76 GB
 **********************************************************************************************************************************


 Program * Restricted Hartree-Fock

 Orbital guess generated from atomic densities. Full valence occupancy:   26

 Initial occupancy:  15

 NELEC=   30   SYM=1   MS2= 0   THRE=1.0D-08   THRD=3.2D-06   THRG=3.2D-06  HFMA2=F  DIIS_START=2   DIIS_MAX=10   DIIS_INCORE=F

 Level shifts:    0.00 (CLOSED)    0.00 (OPEN)    0.30 (GAP_MIN)

 ITER           ETOT              DE          GRAD        DDIFF     DIIS  NEXP   TIME(IT)  TIME(TOT)  DIAG
   1     -154.90705470    -154.90705470     0.00D+00     0.51D-01     0     0       0.98      1.86    start
   2     -154.94627748      -0.03922278     0.32D-02     0.43D-02     1     0       1.00      2.86    diag
   3     -154.95163636      -0.00535889     0.13D-02     0.15D-02     2     0       0.99      3.85    diag
   4     -154.95258158      -0.00094522     0.45D-03     0.56D-03     3     0       0.94      4.79    diag
   5     -154.95260544      -0.00002385     0.55D-04     0.15D-03     4     0       1.03      5.82    diag
   6     -154.95260664      -0.00000120     0.16D-04     0.28D-04     5     0       1.03      6.85    diag
   7     -154.95260675      -0.00000012     0.44D-05     0.95D-05     6     0       0.98      7.83    diag
   8     -154.95260676      -0.00000000     0.80D-06     0.16D-05     7     0       1.01      8.84    fixocc
   9     -154.95260676      -0.00000000     0.18D-06     0.38D-06     0     0       0.97      9.81    diag

 Final occupancy:  15

 !RHF STATE 1.1 Energy               -154.952606757948
  RHF One-electron energy            -431.644129413057
  RHF Two-electron energy             163.702772130393
  RHF Kinetic energy                  154.665244716812
  RHF Nuclear energy                  112.988750524717
  RHF Virial quotient                  -1.001857961313

 !RHF STATE 1.1 Dipole moment           0.00000000     0.00000000    -0.02630490
 Dipole moment /Debye                   0.00000000     0.00000000    -0.06686040

 Orbital energies:

           1.1          2.1          3.1          4.1          5.1          6.1          7.1          8.1          9.1         10.1
    -11.228166   -11.227468   -11.227267   -11.226221    -1.142205    -0.895362    -0.874743    -0.705627    -0.671769    -0.619700

          11.1         12.1         13.1         14.1         15.1         16.1         17.1
     -0.531498    -0.503828    -0.461442    -0.454236    -0.349758     0.152241     0.165400


 HOMO     15.1    -0.349758 =      -9.5174eV
 LUMO     16.1     0.152241 =       4.1427eV
 LUMO-HOMO         0.501999 =      13.6601eV

 Orbitals saved in record  2100.2


 **********************************************************************************************************************************
 DATASETS  * FILE   NREC   LENGTH (MB)   RECORD NAMES
              1      19      705.95       500      610      700      900      950      970     1000      129      960     1100   
                                          VAR    BASINP    GEOM    SYMINP    ZMAT    AOBASIS   BASIS     P2S    ABASIS      S 
                                         1400     1410     1200     1210     1080     1600     1650     1300     1700   
                                           T        V       H0       H01     AOSYM     SMH    MOLCAS    ERIS     OPER   

              2       4        1.19       700     1000      520     2100   
                                         GEOM     BASIS   MCVARS     RHF  

 PROGRAMS   *        TOTAL    HF-SCF       INT
 CPU TIMES  *        18.95      9.81      9.02
 REAL TIME  *        32.82 SEC
 DISK USED  *         2.76 GB
 **********************************************************************************************************************************

 Dump information in style XML to xml output                                                                      

 Orbitals will not be exported.

 **********************************************************************************************************************************

 HF/cc-pVTZ energy=   -154.952606757948

          HF-SCF
   -154.95260676
 **********************************************************************************************************************************
 Molpro calculation terminated
