
 Working directory              : /var/folders/2v/xbgp75_9785319ghcgb4zr4r0000gp/T//molpro.OPMr54e9zh/
 Global scratch directory       : /var/folders/2v/xbgp75_9785319ghcgb4zr4r0000gp/T//molpro.OPMr54e9zh/
 Wavefunction directory         : /Users/sacpjk/wfu/
 Main file repository           : /var/folders/2v/xbgp75_9785319ghcgb4zr4r0000gp/T//molpro.OPMr54e9zh/

 id        : peterk

 Nodes                        nprocs
 Cardiff-University-G34YLXT77Y    1
 GA implementation: MPI file
 GA implementation (serial work in mppx): MPI file

 Using customized tuning parameters: mindgm=1; mindgv=20; mindgc=4; mindgr=1; noblas=0; minvec=7
 default implementation of scratch files=df  


 Variables initialized (1032), CPU time= 0.00 sec
 
 core,small
 angstrom
 
 geometry={
 H1;C1,H1,1.06209557;C2,C1,1.20366063,H1,180;H2,C2,1.06209557,C1,180,H1,0
 }
 basis=cc-pCVDZ
 
 
 
 hf; hf; papt; mp4
 
 
 
 {put,xml;noorbitals,nobasis}
 Commands initialized (841), CPU time= 0.01 sec, 704 directives.
 Default parameters read. Elapsed time= 0.27 sec

 Checking input...
 Passed
1


                                         ***  PROGRAM SYSTEM MOLPRO  ***
                                       Copyright, TTI GmbH Stuttgart, 2015
                                    Version 2023.1 linked Tue Jun  6 09:54:11 2023


 **********************************************************************************************************************************
 LABEL *                                                                                                                                                                 
  64 bit serial version                                                                  DATE: 12-Jun-23          TIME: 09:40:29  
 **********************************************************************************************************************************

 SHA1:             8ebb0dd001088a5c915591db1a321413035db0b1
 **********************************************************************************************************************************

 Memory per process:       393 MW
 Total memory per node:    524 MW
 Total GA space:           131 MW

 GA preallocation disabled
 GA check enabled

 Variable memory set to 393.2 MW

 ZUNIT=ANG

 SETTING BASIS          =    CC-PCVDZ


 Recomputing integrals since basis changed


 Using spherical harmonics

 Library entry H      S cc-pVDZ              selected for orbital group  1
 Library entry H      P cc-pVDZ              selected for orbital group  1
 Library entry C      S cc-pCVDZ             selected for orbital group  2
 Library entry C      P cc-pCVDZ             selected for orbital group  2
 Library entry C      D cc-pCVDZ             selected for orbital group  2


 PROGRAM * SEWARD (Integral evaluation for generally contracted gaussian basis sets)     Author: Roland Lindh, 1990

 Geometry written to block  1 of record 700

 Orientation using atomic masses  
 Molecule type: Linear
 Symmetry elements: X,Y,Z
 Rotational constants:      35.3856639     35.3856639      0.0000000 GHz  (calculated with average atomic masses)

 Point group  D2h 



 ATOMIC COORDINATES

 NR  ATOM    CHARGE       X              Y              Z

   1  H1      1.00    0.000000000    0.000000000   -3.144364214
   2  H2      1.00    0.000000000    0.000000000    3.144364214
   3  C1      6.00    0.000000000    0.000000000   -1.137294469
   4  C2      6.00    0.000000000    0.000000000    1.137294469

 Bond lengths in Bohr (Angstrom)

 1-3  2.007069745  2-4  2.007069745  3-4  2.274588938
     ( 1.062095570)     ( 1.062095570)     ( 1.203660630)

 Bond angles

  1-3-4  179.99999879   2-4-3  179.99999879

 NUCLEAR CHARGE:                   14
 NUMBER OF PRIMITIVE AOS:          76
 NUMBER OF SYMMETRY AOS:           74
 NUMBER OF CONTRACTIONS:           46   (   12Ag  +    5B3u +    5B2u +    1B1g +   12B1u +    5B2g +    5B3g +    1Au  )
 NUMBER OF INNER CORE ORBITALS:     0   (    0Ag  +    0B3u +    0B2u +    0B1g +    0B1u +    0B2g +    0B3g +    0Au  )
 NUMBER OF OUTER CORE ORBITALS:     2   (    1Ag  +    0B3u +    0B2u +    0B1g +    1B1u +    0B2g +    0B3g +    0Au  )
 NUMBER OF VALENCE ORBITALS:       10   (    3Ag  +    1B3u +    1B2u +    0B1g +    3B1u +    1B2g +    1B3g +    0Au  )


 NUCLEAR REPULSION ENERGY   24.76756786

 EXTRA SYMMETRY OF AOS IN SYMMETRY 1:   1 1 1 1 1 1 1 1 1 1   1 2
 EXTRA SYMMETRY OF AOS IN SYMMETRY 5:   1 1 1 1 1 1 1 1 1 1   1 2

 Eigenvalues of metric

         1 0.152E-01 0.279E-01 0.428E-01 0.770E-01 0.128E+00 0.864E+00 0.104E+01 0.115E+01
         2 0.174E+00 0.555E+00 0.101E+01 0.173E+01 0.306E+01
         3 0.174E+00 0.555E+00 0.101E+01 0.173E+01 0.306E+01
         4 0.124E+01
         5 0.846E-03 0.107E-01 0.320E-01 0.570E-01 0.760E-01 0.119E+00 0.759E+00 0.979E+00
         6 0.101E+00 0.176E+00 0.510E+00 0.102E+01 0.167E+01
         7 0.101E+00 0.176E+00 0.510E+00 0.102E+01 0.167E+01
         8 0.759E+00


 Contracted 2-electron integrals neglected if value below      1.0D-11
 AO integral compression algorithm  1   Integral accuracy      1.0D-11

     1.049 MB (compressed) written to integral file ( 63.8%)


 NUMBER OF SORTED TWO-ELECTRON INTEGRALS:      89582.     BUFFER LENGTH:  32768
 NUMBER OF SEGMENTS:   1  SEGMENT LENGTH:      89582      RECORD LENGTH: 524288

 Memory used in sort:       0.65 MW

 SORT1 READ      167304. AND WROTE       83288. INTEGRALS IN      1 RECORDS. CPU TIME:     0.01 SEC, REAL TIME:     0.00 SEC
 SORT2 READ       83288. AND WROTE       89582. INTEGRALS IN      4 RECORDS. CPU TIME:     0.01 SEC, REAL TIME:     0.02 SEC

 FILE SIZES:   FILE 1:    31.1 MBYTE,  FILE 4:     4.3 MBYTE,   TOTAL:     35.4 MBYTE

 OPERATOR DM      FOR CENTER  0  COORDINATES:    0.000000    0.000000    0.000000


 **********************************************************************************************************************************
 DATASETS  * FILE   NREC   LENGTH (MB)   RECORD NAMES
              1      19       29.11       500      610      700      900      950      970     1000      129      960     1100   
                                          VAR    BASINP    GEOM    SYMINP    ZMAT    AOBASIS   BASIS     P2S    ABASIS      S 
                                         1400     1410     1200     1210     1080     1600     1650     1300     1700   
                                           T        V       H0       H01     AOSYM     SMH    MOLCAS    ERIS     OPER   

 PROGRAMS   *        TOTAL       INT
 CPU TIMES  *         0.20      0.10
 REAL TIME  *         2.21 SEC
 DISK USED  *        34.07 MB
 **********************************************************************************************************************************


 Program * Restricted Hartree-Fock

 Orbital guess generated from atomic densities. Full valence occupancy:    4   1   1   0   4   1   1   0


 Initial occupancy:   3   1   1   0   2   0   0   0

 NELEC=   14   SYM=1   MS2= 0   THRE=1.0D-08   THRD=3.2D-06   THRG=3.2D-06  HFMA2=F  DIIS_START=2   DIIS_MAX=10   DIIS_INCORE=F

 Level shifts:    0.00 (CLOSED)    0.00 (OPEN)    0.30 (GAP_MIN)

 ITER           ETOT              DE          GRAD        DDIFF     DIIS  NEXP   TIME(IT)  TIME(TOT)  DIAG
   1      -76.81401827     -76.81401827     0.00D+00     0.33D+00     0     0       0.00      0.00    start
   2      -76.82616475      -0.01214647     0.14D-01     0.28D-01     1     0       0.00      0.00    diag
   3      -76.82705044      -0.00088569     0.37D-02     0.76D-02     2     0       0.01      0.01    diag
   4      -76.82713406      -0.00008362     0.86D-03     0.29D-02     3     0       0.00      0.01    diag
   5      -76.82713675      -0.00000269     0.16D-03     0.46D-03     4     0       0.00      0.01    diag
   6      -76.82713683      -0.00000008     0.26D-04     0.82D-04     5     0       0.00      0.01    diag
   7      -76.82713683      -0.00000000     0.29D-05     0.11D-04     6     0       0.00      0.01    diag
   8      -76.82713683      -0.00000000     0.41D-06     0.15D-05     7     0       0.00      0.01    fixocc
   9      -76.82713683      -0.00000000     0.23D-07     0.76D-07     0     0       0.00      0.01    diag

 Final occupancy:   3   1   1   0   2   0   0   0

 !RHF STATE 1.1 Energy                -76.827136833591
  RHF One-electron energy            -151.635528790529
  RHF Two-electron energy              50.040824098023
  RHF Kinetic energy                   76.609269054489
  RHF Nuclear energy                   24.767567858915
  RHF Virial quotient                  -1.002843882755

 !RHF STATE 1.1 Dipole moment           0.00000000     0.00000000     0.00000000
 Dipole moment /Debye                   0.00000000     0.00000000     0.00000000

 Orbital energies:

           1.1          2.1          3.1          4.1          5.1
    -11.249763    -1.027669    -0.676119     0.222069     0.522581

           1.2          2.2          3.2
     -0.406684     0.659210     1.228040

           1.3          2.3          3.3
     -0.406684     0.659210     1.228040

           1.4
      1.252731

           1.5          2.5          3.5          4.5
    -11.246074    -0.763947     0.191845     0.492115

           1.6          2.6
      0.199097     0.816790

           1.7          2.7
      0.199097     0.816790

           1.8
      1.681014


 HOMO      1.3    -0.406684 =     -11.0664eV
 LUMO      3.5     0.191845 =       5.2204eV
 LUMO-HOMO         0.598530 =      16.2868eV

 Orbitals saved in record  2100.2


 **********************************************************************************************************************************
 DATASETS  * FILE   NREC   LENGTH (MB)   RECORD NAMES
              1      19       29.11       500      610      700      900      950      970     1000      129      960     1100   
                                          VAR    BASINP    GEOM    SYMINP    ZMAT    AOBASIS   BASIS     P2S    ABASIS      S 
                                         1400     1410     1200     1210     1080     1600     1650     1300     1700   
                                           T        V       H0       H01     AOSYM     SMH    MOLCAS    ERIS     OPER   

              2       4        0.41       700     1000      520     2100   
                                         GEOM     BASIS   MCVARS     RHF  

 PROGRAMS   *        TOTAL    HF-SCF       INT
 CPU TIMES  *         0.21      0.01      0.10
 REAL TIME  *         3.00 SEC
 DISK USED  *        34.07 MB
 **********************************************************************************************************************************


 Program * Restricted Hartree-Fock

 Molecular orbitals read from record     2100.2  Type=RHF/CANONICAL  

 Initial occupancy:   3   1   1   0   2   0   0   0

 NELEC=   14   SYM=1   MS2= 0   THRE=1.0D-08   THRD=3.2D-06   THRG=3.2D-06  HFMA2=F  DIIS_START=2   DIIS_MAX=10   DIIS_INCORE=F

 Level shifts:    0.00 (CLOSED)    0.00 (OPEN)    0.30 (GAP_MIN)

 ITER           ETOT              DE          GRAD        DDIFF     DIIS  NEXP   TIME(IT)  TIME(TOT)  DIAG
   1      -76.82713683     -76.82713683     0.00D+00     0.33D+00     0     0       0.00      0.00    start
   2      -76.82713683      -0.00000000     0.66D-08     0.20D-07     1     0       0.00      0.00    diag

 Final occupancy:   3   1   1   0   2   0   0   0

 !RHF STATE 1.1 Energy                -76.827136833591
  RHF One-electron energy            -151.635528939970
  RHF Two-electron energy              50.040824247464
  RHF Kinetic energy                   76.609269186176
  RHF Nuclear energy                   24.767567858915
  RHF Virial quotient                  -1.002843881031

 !RHF STATE 1.1 Dipole moment           0.00000000     0.00000000     0.00000000
 Dipole moment /Debye                   0.00000000     0.00000000     0.00000000

 Orbital energies:

           1.1          2.1          3.1          4.1          5.1
    -11.249763    -1.027669    -0.676119     0.222069     0.522581

           1.2          2.2          3.2
     -0.406684     0.659210     1.228039

           1.3          2.3          3.3
     -0.406684     0.659210     1.228039

           1.4
      1.252731

           1.5          2.5          3.5          4.5
    -11.246074    -0.763947     0.191845     0.492115

           1.6          2.6
      0.199097     0.816790

           1.7          2.7
      0.199097     0.816790

           1.8
      1.681014


 HOMO      1.3    -0.406684 =     -11.0664eV
 LUMO      3.5     0.191845 =       5.2204eV
 LUMO-HOMO         0.598530 =      16.2868eV

 Orbitals saved in record  2101.2


 **********************************************************************************************************************************
 DATASETS  * FILE   NREC   LENGTH (MB)   RECORD NAMES
              1      19       29.11       500      610      700      900      950      970     1000      129      960     1100   
                                          VAR    BASINP    GEOM    SYMINP    ZMAT    AOBASIS   BASIS     P2S    ABASIS      S 
                                         1400     1410     1200     1210     1080     1600     1650     1300     1700   
                                           T        V       H0       H01     AOSYM     SMH    MOLCAS    ERIS     OPER   

              2       5        0.52       700     1000      520     2100     2101   
                                         GEOM     BASIS   MCVARS     RHF      RHF  

 PROGRAMS   *        TOTAL    HF-SCF    HF-SCF       INT
 CPU TIMES  *         0.22      0.01      0.01      0.10
 REAL TIME  *         3.59 SEC
 DISK USED  *        34.07 MB
 **********************************************************************************************************************************


 PROGRAM * PAPT (Closed-shell)     Authors: C. Hampel, H.-J. Werner, 1991, P.J. Knowles, 2021


 CORETYPE=SMALL

 Convergence thresholds:  THRVAR = 1.00D-08  THRDEN = 1.00D-06

 Number of closed-shell orbitals:   7 (   3   1   1   0   2   0   0   0 )
 Number of external orbitals:      39 (   9   4   4   1  10   5   5   1 )

 Molecular orbitals read from record     2101.2  Type=RHF/CANONICAL  

 Number of N-1 electron functions:               7
 Number of N-2 electron functions:              28
 Number of singly external CSFs:                55
 Number of doubly external CSFs:              5708
 Total number of CSFs:                        5764

 Length of J-op  integral file:               0.00 MB
 Length of K-op  integral file:               0.09 MB

 Integral transformation finished. Total CPU:   0.00 sec, npass=  1  Memory used:   0.07 MW

 Reference energy:                    -76.82713683

                        CORR.ENERGY   TOTAL ENERGY   ENERGY CHANGE
 MP2:                   -0.32828333   -77.15542017    -0.32828333

 SCS-MP2 correlation energy:           -0.33608710   (PS=  1.200000  PT=  0.333333)
 SCS-MP2 total energy:                -77.16322393
 Iteration:   1     0.4442D+00
 Iteration:   2     0.7323D+01
 Iteration:   3     0.3526D+00
 Iteration:   4     0.1216D+00
 Iteration:   5     0.2169D+00
 Iteration:   6     0.4136D-01
 Iteration:   7     0.1363D+00
 Iteration:   8     0.7152D-02
 Iteration:   9     0.3088D-02
 Iteration:  10     0.1458D-01
 Iteration:  11     0.9182D-03
 Iteration:  12     0.1677D-03
 Iteration:  13     0.3192D-03
 Iteration:  14     0.5121D-04
 PAPT operator written to  7000.1
 PAPT orbitals and eigenvalues written to  7000.2

 MP3(D):                -0.34393948   -77.17107631    -0.01565614



 RESULTS
 =======

  Reference energy                    -76.827136833591

  Correlated core orbitals:             1.1       1.5
  Orbital energies:                   -11.2498  -11.2461

  MP3 core-core energy                 -0.062970201471
  MP3 core-valence energy              -0.011535798766
  MP3 valence correlation energy       -0.269433475458

  MP3 singlet pair energy              -0.251961473275
  MP3 triplet pair energy              -0.091978002421
  MP3 correlation energy               -0.343939475696

 !MP3 total energy                    -77.171076309286

 Timing summary (sec):

 STEP                 CPU(USER)    SYS     CPU(TOT)    WALL
 CCSD iterations         0.35      0.01      0.36      0.65

 Program statistics:

 Available memory in ccsd:               393215801
 Min. memory needed in ccsd:                 22104
 Max. memory used in ccsd:                   26188
 Max. memory used in cckext:                 56005 ( 1 integral passes)



 **********************************************************************************************************************************
 DATASETS  * FILE   NREC   LENGTH (MB)   RECORD NAMES
              1      21       29.23       500      610      700      900      950      970     1000      129      960     1100   
                                          VAR    BASINP    GEOM    SYMINP    ZMAT    AOBASIS   BASIS     P2S    ABASIS      S 
                                         1400     1410     1200     1210     1080     1600     1650     1300     1700     1380   
                                           T        V       H0       H01     AOSYM     SMH    MOLCAS    ERIS     OPER     JKOP   
                                         7000   
                                        PAPT AO    

              2       6        0.62       700     1000      520     2100     2101     7000   
                                         GEOM     BASIS   MCVARS     RHF      RHF     PAPT   

 PROGRAMS   *        TOTAL      PAPT    HF-SCF    HF-SCF       INT
 CPU TIMES  *         0.27      0.05      0.01      0.01      0.10
 REAL TIME  *         4.53 SEC
 DISK USED  *        34.07 MB
 **********************************************************************************************************************************


 PROGRAM * MP4 (Closed-shell)     Authors: C. Hampel, H.-J. Werner, 1991, M. Deegan, P.J. Knowles, 1992


 CORETYPE=SMALL

 Convergence thresholds:  THRVAR = 1.00D-08  THRDEN = 1.00D-06

 MP4(T)     terms to be evaluated (factor= 0.000)


 Number of closed-shell orbitals:   7 (   3   1   1   0   2   0   0   0 )
 Number of external orbitals:      39 (   9   4   4   1  10   5   5   1 )

 Molecular orbitals read from record     7000.2  Type=PAPT/CANONICAL (state 1.1)

 Number of N-1 electron functions:               7
 Number of N-2 electron functions:              28
 Number of singly external CSFs:                55
 Number of doubly external CSFs:              5708
 Total number of CSFs:                        5764

 Length of J-op  integral file:               0.00 MB
 Length of K-op  integral file:               0.09 MB

 Memory could be reduced to 0.15 Mwords without degradation in triples

 Integral transformation finished. Total CPU:   0.00 sec, npass=  1  Memory used:   0.09 MW
 Orbital energies read from record       7000.2  Type=PAPT/CANONICAL (state 1.1)

 Reference energy:                    -76.82713683

                        CORR.ENERGY   TOTAL ENERGY   ENERGY CHANGE
 MP2:                   -0.34765424   -77.17479107    -0.34765424

 SCS-MP2 correlation energy:           -0.35798238   (PS=  1.200000  PT=  0.333333)
 SCS-MP2 total energy:                -77.18511922

 MP3(D):                -0.34771784   -77.17485467    -0.00006360
 MP4(DQ):               -0.34500377   -77.17214060     0.00271407
 MP4(SDQ):              -0.34805074   -77.17518757    -0.00304697

 Norm of t1 vector:      0.04616408      S-energy:    -0.00304697      T1 diagnostic:  0.00872419

 Largest off-diagonal element in interal  block of Fock matrix:  0.15D+00
 Largest off-diagonal element in external block of Fock matrix:  0.15D+00


 Total CPU time for triples:      0.01 sec


 RESULTS
 =======

  Reference energy                    -76.827136833591

  Correlated core orbitals:             1.1       1.5
  Orbital energies:                   -10.4241  -10.4006

  MP4(SDQ) core-core energy            -0.063482075851
  MP4(SDQ) core-valence energy         -0.011343341662
  MP4(SDQ) valence correlation ener    -0.273225322138

  MP4(SDQ) singlet pair energy         -0.252721090658
  MP4(SDQ) triplet pair energy         -0.092282679469
  MP4(SDQ) correlation energy          -0.348050739651

  Triples contribution                 -0.013204930305
  Total correlation energy             -0.361255669956

  MP4(SDQ) total energy               -77.175187573242
 !MP4(SDTQ) total energy              -77.188392503547

 Timing summary (sec):

 STEP                 CPU(USER)    SYS     CPU(TOT)    WALL
 CCSD iterations         0.40      0.00      0.40      0.17
 Triples                 0.01      0.00      0.01      0.02

 Program statistics:

 Available memory in ccsd:               393215801
 Min. memory needed in ccsd:                 22104
 Max. memory used in ccsd:                   26188
 Max. memory used in cckext:                 56005 ( 1 integral passes)



 **********************************************************************************************************************************
 DATASETS  * FILE   NREC   LENGTH (MB)   RECORD NAMES
              1      22       29.46       500      610      700      900      950      970     1000      129      960     1100   
                                          VAR    BASINP    GEOM    SYMINP    ZMAT    AOBASIS   BASIS     P2S    ABASIS      S 
                                         1400     1410     1200     1210     1080     1600     1650     1300     1700     1380   
                                           T        V       H0       H01     AOSYM     SMH    MOLCAS    ERIS     OPER     JKOP   
                                         7000     1380(1)
                                        PAPT AO   JKOP   

              2       6        0.62       700     1000      520     2100     2101     7000   
                                         GEOM     BASIS   MCVARS     RHF      RHF     PAPT   

 PROGRAMS   *        TOTAL       MP4      PAPT    HF-SCF    HF-SCF       INT
 CPU TIMES  *         0.32      0.05      0.05      0.01      0.01      0.10
 REAL TIME  *         5.19 SEC
 DISK USED  *        34.07 MB
 **********************************************************************************************************************************

 Dump information in style XML to xml output                                                                      

 Orbitals will not be exported.

 **********************************************************************************************************************************

 MP4/cc-pCVDZ energy=    -77.188392503547

             MP4            PAPT          HF-SCF          HF-SCF
    -77.18839250    -77.17107631    -76.82713683    -76.82713683
 **********************************************************************************************************************************
 Molpro calculation terminated
