
 Working directory              : /tmp/peterk/molpro.45bO6pyb6R/
 Global scratch directory       : /tmp/peterk/molpro.45bO6pyb6R/
 Wavefunction directory         : /home/peterk/wfu/
 Main file repository           : /tmp/peterk/molpro.45bO6pyb6R/

 id        : peterk

 Nodes     nprocs
 marat        1
 GA implementation: MPI file
 GA implementation (serial work in mppx): MPI file

 Using customized tuning parameters: mindgm=1; mindgv=20; mindgc=4; mindgr=1; noblas=0; minvec=7
 default implementation of scratch files=df  


 Variables initialized (1032), CPU time= 0.00 sec
 
 symmetry,nosym
 
 
 geometry={
            3
     C          0.00000000      0.00000000     -0.02902643
     N          0.00000000      0.00000000      1.12397830
     H          0.00000000      0.00000000     -1.09495187
 }
 basis=cc-pVQZ
 
 
 
 hf; hf; papt; mp2
 
 
 
 {put,xml;noorbitals,nobasis}
 Commands initialized (841), CPU time= 0.00 sec, 708 directives.
 Default parameters read. Elapsed time= 0.05 sec

 Checking input...
 Passed
1


                                         ***  PROGRAM SYSTEM MOLPRO  ***
                                       Copyright, TTI GmbH Stuttgart, 2015
                                    Version 2023.1 linked Sat Jun 10 08:01:27 2023


 **********************************************************************************************************************************
 LABEL *                                                                                                                                                                 
  (16 PROC) 64 bit serial version                                                        DATE: 11-Jun-23          TIME: 08:47:24  
 **********************************************************************************************************************************

 SHA1:             8376d659ba1296ca7ee514c57770fe2c96af278c
 **********************************************************************************************************************************

 Memory per process:      1074 MW
 Total memory per node:   1074 MW

 GA preallocation disabled
 GA check disabled

 Variable memory set to 1073.7 MW

 ZSYMEL=NOSYM


 Geometry recognized as XYZ

 SETTING BASIS          =    CC-PVQZ


 Recomputing integrals since basis changed


 Using spherical harmonics

 Library entry C      S cc-pVQZ              selected for orbital group  1
 Library entry C      P cc-pVQZ              selected for orbital group  1
 Library entry C      D cc-pVQZ              selected for orbital group  1
 Library entry C      F cc-pVQZ              selected for orbital group  1
 Library entry C      G cc-pVQZ              selected for orbital group  1
 Library entry N      S cc-pVQZ              selected for orbital group  2
 Library entry N      P cc-pVQZ              selected for orbital group  2
 Library entry N      D cc-pVQZ              selected for orbital group  2
 Library entry N      F cc-pVQZ              selected for orbital group  2
 Library entry N      G cc-pVQZ              selected for orbital group  2
 Library entry H      S cc-pVQZ              selected for orbital group  3
 Library entry H      P cc-pVQZ              selected for orbital group  3
 Library entry H      D cc-pVQZ              selected for orbital group  3
 Library entry H      F cc-pVQZ              selected for orbital group  3


 PROGRAM * SEWARD (Integral evaluation for generally contracted gaussian basis sets)     Author: Roland Lindh, 1990

 Geometry written to block  1 of record 700


 Point group  C1  



 ATOMIC COORDINATES

 NR  ATOM    CHARGE       X              Y              Z

   1  C       6.00    0.000000000    0.000000000   -0.054852003
   2  N       7.00    0.000000000    0.000000000    2.124011157
   3  H       1.00    0.000000000    0.000000000   -2.069159154

 Bond lengths in Bohr (Angstrom)

 1-2  2.178863160  1-3  2.014307151
     ( 1.153004730)     ( 1.065925440)

 Bond angles

  2-1-3  180.00000000

 NUCLEAR CHARGE:                   14
 NUMBER OF PRIMITIVE AOS:         203
 NUMBER OF SYMMETRY AOS:          168
 NUMBER OF CONTRACTIONS:          140   (  140A   )
 NUMBER OF INNER CORE ORBITALS:     0   (    0A   )
 NUMBER OF OUTER CORE ORBITALS:     2   (    2A   )
 NUMBER OF VALENCE ORBITALS:        9   (    9A   )


 NUCLEAR REPULSION ENERGY   23.92418025

 EXTRA SYMMETRY OF AOS IN SYMMETRY 1:   1 1 1 1 1 2 3 1 2 3   1 2 3 1 2 3 1 1 4 2   5 3 1 4 2 5 3 1 4 2   5 3 2 3 1 6 4 7 5 2
                                        3 1 6 4 7 5 1 4 2 8   3 5 9 6 7 1 1 1 1 1   2 3 1 2 3 1 2 3 1 2   3 1 1 4 2 5 3 1 4 2
                                        5 3 1 4 2 5 3 2 3 1   6 4 7 5 2 3 1 6 4 7   5 1 4 2 8 3 5 9 6 7   1 1 1 1 2 3 1 2 3 1
                                        2 3 1 1 4 2 5 3 1 4   2 5 3 2 3 1 6 4 7 5

 Eigenvalues of metric

         1 0.173E-03 0.207E-03 0.452E-03 0.569E-03 0.138E-02 0.178E-02 0.242E-02 0.242E-02


 Contracted 2-electron integrals neglected if value below      1.0D-11
 AO integral compression algorithm  1   Integral accuracy      1.0D-11

     63.177 MB (compressed) written to integral file ( 13.4%)


 NUMBER OF SORTED TWO-ELECTRON INTEGRALS:   48713385.     BUFFER LENGTH:  32768
 NUMBER OF SEGMENTS:   4  SEGMENT LENGTH:   15999503      RECORD LENGTH: 524288

 Memory used in sort:      16.56 MW

 SORT1 READ    59152906. AND WROTE     9378160. INTEGRALS IN     29 RECORDS. CPU TIME:     0.19 SEC, REAL TIME:     0.27 SEC
 SORT2 READ     9378160. AND WROTE    48713385. INTEGRALS IN    241 RECORDS. CPU TIME:     0.36 SEC, REAL TIME:     0.41 SEC

 FILE SIZES:   FILE 1:    93.9 MBYTE,  FILE 4:   121.7 MBYTE,   TOTAL:    215.6 MBYTE

 OPERATOR DM      FOR CENTER  0  COORDINATES:    0.000000    0.000000    0.000000


 **********************************************************************************************************************************
 DATASETS  * FILE   NREC   LENGTH (MB)   RECORD NAMES
              1      19       74.34       500      610      700      900      950      970     1000      129      960     1100   
                                          VAR    BASINP    GEOM    SYMINP    ZMAT    AOBASIS   BASIS     P2S    ABASIS      S 
                                         1400     1410     1200     1210     1080     1600     1650     1300     1700   
                                           T        V       H0       H01     AOSYM     SMH    MOLCAS    ERIS     OPER   

 PROGRAMS   *        TOTAL       INT
 CPU TIMES  *         2.49      2.37
 REAL TIME  *         3.31 SEC
 DISK USED  *       206.04 MB
 **********************************************************************************************************************************


 Program * Restricted Hartree-Fock

 Orbital guess generated from atomic densities. Full valence occupancy:   11

 Initial occupancy:   7

 NELEC=   14   SYM=1   MS2= 0   THRE=1.0D-08   THRD=3.2D-06   THRG=3.2D-06  HFMA2=F  DIIS_START=2   DIIS_MAX=10   DIIS_INCORE=F

 Level shifts:    0.00 (CLOSED)    0.00 (OPEN)    0.30 (GAP_MIN)

 ITER           ETOT              DE          GRAD        DDIFF     DIIS  NEXP   TIME(IT)  TIME(TOT)  DIAG
   1      -92.88990545     -92.88990545     0.00D+00     0.51D-01     0     0       0.22      0.44    start
   2      -92.89892515      -0.00901970     0.50D-02     0.54D-02     1     0       0.22      0.66    diag
   3      -92.91414839      -0.01522324     0.45D-02     0.29D-02     2     0       0.23      0.89    diag
   4      -92.91437484      -0.00022646     0.37D-03     0.44D-03     3     0       0.22      1.11    diag
   5      -92.91438781      -0.00001297     0.80D-04     0.13D-03     4     0       0.23      1.34    diag
   6      -92.91438858      -0.00000076     0.22D-04     0.30D-04     5     0       0.24      1.58    diag
   7      -92.91438865      -0.00000007     0.77D-05     0.10D-04     6     0       0.23      1.81    diag
   8      -92.91438865      -0.00000000     0.16D-05     0.19D-05     7     0       0.23      2.04    fixocc
   9      -92.91438865      -0.00000000     0.18D-06     0.20D-06     0     0       0.22      2.26    diag

 Final occupancy:   7

 !RHF STATE 1.1 Energy                -92.914388653414
  RHF One-electron energy            -172.651973420074
  RHF Two-electron energy              55.813404517792
  RHF Kinetic energy                   92.725634574815
  RHF Nuclear energy                   23.924180248868
  RHF Virial quotient                  -1.002035619163

 !RHF STATE 1.1 Dipole moment           0.00000000     0.00000000    -1.29102315
 Dipole moment /Debye                   0.00000000     0.00000000    -3.28145353

 Orbital energies:

           1.1          2.1          3.1          4.1          5.1          6.1          7.1          8.1          9.1
    -15.597789   -11.290615    -1.236193    -0.812684    -0.581944    -0.496681    -0.496681     0.116596     0.152361


 HOMO      7.1    -0.496681 =     -13.5154eV
 LUMO      8.1     0.116596 =       3.1727eV
 LUMO-HOMO         0.613277 =      16.6881eV

 Orbitals saved in record  2100.2


 **********************************************************************************************************************************
 DATASETS  * FILE   NREC   LENGTH (MB)   RECORD NAMES
              1      19       74.34       500      610      700      900      950      970     1000      129      960     1100   
                                          VAR    BASINP    GEOM    SYMINP    ZMAT    AOBASIS   BASIS     P2S    ABASIS      S 
                                         1400     1410     1200     1210     1080     1600     1650     1300     1700   
                                           T        V       H0       H01     AOSYM     SMH    MOLCAS    ERIS     OPER   

              2       4        0.73       700     1000      520     2100   
                                         GEOM     BASIS   MCVARS     RHF  

 PROGRAMS   *        TOTAL    HF-SCF       INT
 CPU TIMES  *         4.76      2.27      2.37
 REAL TIME  *         5.65 SEC
 DISK USED  *       206.04 MB
 **********************************************************************************************************************************


 Program * Restricted Hartree-Fock

 Molecular orbitals read from record     2100.2  Type=RHF/CANONICAL  

 Initial occupancy:   7

 NELEC=   14   SYM=1   MS2= 0   THRE=1.0D-08   THRD=3.2D-06   THRG=3.2D-06  HFMA2=F  DIIS_START=2   DIIS_MAX=10   DIIS_INCORE=F

 Level shifts:    0.00 (CLOSED)    0.00 (OPEN)    0.30 (GAP_MIN)

 ITER           ETOT              DE          GRAD        DDIFF     DIIS  NEXP   TIME(IT)  TIME(TOT)  DIAG
   1      -92.91438865     -92.91438865     0.00D+00     0.52D-01     0     0       0.22      0.22    start
   2      -92.91438865      -0.00000000     0.76D-07     0.98D-07     1     0       0.21      0.43    diag

 Final occupancy:   7

 !RHF STATE 1.1 Energy                -92.914388653420
  RHF One-electron energy            -172.651964215182
  RHF Two-electron energy              55.813395312894
  RHF Kinetic energy                   92.725626012639
  RHF Nuclear energy                   23.924180248868
  RHF Virial quotient                  -1.002035711689

 !RHF STATE 1.1 Dipole moment           0.00000000     0.00000000    -1.29100926
 Dipole moment /Debye                   0.00000000     0.00000000    -3.28141824

 Orbital energies:

           1.1          2.1          3.1          4.1          5.1          6.1          7.1          8.1          9.1
    -15.597784   -11.290617    -1.236192    -0.812684    -0.581943    -0.496681    -0.496681     0.116596     0.152361


 HOMO      7.1    -0.496681 =     -13.5154eV
 LUMO      8.1     0.116596 =       3.1727eV
 LUMO-HOMO         0.613276 =      16.6881eV

 Orbitals saved in record  2101.2


 **********************************************************************************************************************************
 DATASETS  * FILE   NREC   LENGTH (MB)   RECORD NAMES
              1      19       74.34       500      610      700      900      950      970     1000      129      960     1100   
                                          VAR    BASINP    GEOM    SYMINP    ZMAT    AOBASIS   BASIS     P2S    ABASIS      S 
                                         1400     1410     1200     1210     1080     1600     1650     1300     1700   
                                           T        V       H0       H01     AOSYM     SMH    MOLCAS    ERIS     OPER   

              2       5        1.36       700     1000      520     2100     2101   
                                         GEOM     BASIS   MCVARS     RHF      RHF  

 PROGRAMS   *        TOTAL    HF-SCF    HF-SCF       INT
 CPU TIMES  *         5.20      0.44      2.27      2.37
 REAL TIME  *         6.12 SEC
 DISK USED  *       206.04 MB
 **********************************************************************************************************************************


 PROGRAM * PAPT (Closed-shell)     Authors: C. Hampel, H.-J. Werner, 1991, P.J. Knowles, 2021


 Convergence thresholds:  THRVAR = 1.00D-08  THRDEN = 1.00D-06

 Number of core orbitals:           2 (   2 )
 Number of closed-shell orbitals:   5 (   5 )
 Number of external orbitals:     133 ( 133 )

 Molecular orbitals read from record     2101.2  Type=RHF/CANONICAL  

 Number of N-1 electron functions:               5
 Number of N-2 electron functions:              15
 Number of singly external CSFs:               665
 Number of doubly external CSFs:            221445
 Total number of CSFs:                      222111

 Length of J-op  integral file:               0.00 MB
 Length of K-op  integral file:               1.41 MB

 Integral transformation finished. Total CPU:   0.31 sec, npass=  1  Memory used:   0.91 MW

 Reference energy:                    -92.91438865

                        CORR.ENERGY   TOTAL ENERGY   ENERGY CHANGE
 MP2:                   -0.36739323   -93.28178188    -0.36739323

 SCS-MP2 correlation energy:           -0.36487966   (PS=  1.200000  PT=  0.333333)
 SCS-MP2 total energy:                -93.27926831
 Iteration:   1     0.2573D+00
 Iteration:   2     0.3213D+00
 Iteration:   3     0.8420D-01
 Iteration:   4     0.5250D-01
 Iteration:   5     0.7068D-01
 Iteration:   6     0.1546D-01
 Iteration:   7     0.2339D-01
 Iteration:   8     0.5897D-02
 Iteration:   9     0.3957D-02
 Iteration:  10     0.6299D-02
 Iteration:  11     0.4339D-03
 Iteration:  12     0.1843D-03
 Iteration:  13     0.4734D-03
 Iteration:  14     0.4552D-04
 PAPT operator written to  7000.1
 PAPT orbitals and eigenvalues written to  7000.2

 MP3(D):                -0.36365585   -93.27804450     0.00373738



 RESULTS
 =======

  Reference energy                    -92.914388653420
  MP3 singlet pair energy              -0.248720862036
  MP3 triplet pair energy              -0.114934987851
  MP3 correlation energy               -0.363655849887

 !MP3 total energy                    -93.278044503307

 Timing summary (sec):

 STEP                 CPU(USER)    SYS     CPU(TOT)    WALL
 Transformation          0.32      0.01      0.33      0.34
 CCSD iterations         6.27      0.02      6.29      0.79

 Program statistics:

 Available memory in ccsd:              1073741717
 Min. memory needed in ccsd:                868917
 Max. memory used in ccsd:                 1036917
 Max. memory used in cckext:                738158 ( 1 integral passes)



 **********************************************************************************************************************************
 DATASETS  * FILE   NREC   LENGTH (MB)   RECORD NAMES
              1      21       78.09       500      610      700      900      950      970     1000      129      960     1100   
                                          VAR    BASINP    GEOM    SYMINP    ZMAT    AOBASIS   BASIS     P2S    ABASIS      S 
                                         1400     1410     1200     1210     1080     1600     1650     1300     1700     1380   
                                           T        V       H0       H01     AOSYM     SMH    MOLCAS    ERIS     OPER     JKOP   
                                         7000   
                                        PAPT AO    

              2       6        1.90       700     1000      520     2100     2101     7000   
                                         GEOM     BASIS   MCVARS     RHF      RHF     PAPT   

 PROGRAMS   *        TOTAL      PAPT    HF-SCF    HF-SCF       INT
 CPU TIMES  *         6.29      1.09      0.44      2.27      2.37
 REAL TIME  *         7.29 SEC
 DISK USED  *       206.04 MB
 **********************************************************************************************************************************


 PROGRAM * MP2 (Closed-shell)     Authors: C. Hampel, H.-J. Werner, 1991, M. Deegan, P.J. Knowles, 1992


 Convergence thresholds:  THRVAR = 1.00D-08  THRDEN = 1.00D-06

 Number of core orbitals:           2 (   2 )
 Number of closed-shell orbitals:   5 (   5 )
 Number of external orbitals:     133 ( 133 )

 Molecular orbitals read from record     7000.2  Type=PAPT/CANONICAL (state 1.1)

 Number of N-1 electron functions:               5
 Number of N-2 electron functions:              15
 Number of singly external CSFs:               665
 Number of doubly external CSFs:            221445
 Total number of CSFs:                      222111

 Length of J-op  integral file:               0.00 MB
 Length of K-op  integral file:               1.41 MB

 Integral transformation finished. Total CPU:   0.31 sec, npass=  1  Memory used:   0.91 MW
 Orbital energies read from record       7000.2  Type=PAPT/CANONICAL (state 1.1)

 Memory needed for MP2:                      0.10 MW

 SCS-MP2 correlation energy:           -0.368170617322   (PS=  1.200000  PT=  0.333333)
 SCS-MP2 total energy:                -93.282559270742


  Reference energy                    -92.914388653420
  MP2 singlet pair energy              -0.240314342326
  MP2 triplet pair energy              -0.128239403353
  MP2 correlation energy               -0.368553745679

 !MP2 total energy                    -93.282942399099


 **********************************************************************************************************************************
 DATASETS  * FILE   NREC   LENGTH (MB)   RECORD NAMES
              1      21       78.09       500      610      700      900      950      970     1000      129      960     1100   
                                          VAR    BASINP    GEOM    SYMINP    ZMAT    AOBASIS   BASIS     P2S    ABASIS      S 
                                         1400     1410     1200     1210     1080     1600     1650     1300     1700     1380   
                                           T        V       H0       H01     AOSYM     SMH    MOLCAS    ERIS     OPER     JKOP   
                                         7000   
                                        PAPT AO    

              2       6        1.90       700     1000      520     2100     2101     7000   
                                         GEOM     BASIS   MCVARS     RHF      RHF     PAPT   

 PROGRAMS   *        TOTAL       MP2      PAPT    HF-SCF    HF-SCF       INT
 CPU TIMES  *         6.87      0.57      1.09      0.44      2.27      2.37
 REAL TIME  *         7.89 SEC
 DISK USED  *       206.04 MB
 **********************************************************************************************************************************

 Dump information in style XML to xml output                                                                      

 Orbitals will not be exported.

 **********************************************************************************************************************************

 MP2/cc-pVQZ energy=    -93.282942399099

             MP2            PAPT          HF-SCF          HF-SCF
    -93.28294240    -93.27804450    -92.91438865    -92.91438865
 **********************************************************************************************************************************
 Molpro calculation terminated
