
 Working directory              : /var/folders/2v/xbgp75_9785319ghcgb4zr4r0000gp/T//molpro.Lsw6KRax8B/
 Global scratch directory       : /var/folders/2v/xbgp75_9785319ghcgb4zr4r0000gp/T//molpro.Lsw6KRax8B/
 Wavefunction directory         : /Users/sacpjk/wfu/
 Main file repository           : /var/folders/2v/xbgp75_9785319ghcgb4zr4r0000gp/T//molpro.Lsw6KRax8B/

 id        : peterk

 Nodes                        nprocs
 Cardiff-University-G34YLXT77Y    1
 GA implementation: MPI file
 GA implementation (serial work in mppx): MPI file

 Using customized tuning parameters: mindgm=1; mindgv=20; mindgc=4; mindgr=1; noblas=0; minvec=7
 default implementation of scratch files=df  


 Variables initialized (1032), CPU time= 0.00 sec
 
 symmetry,nosym
 
 
 geometry={
           10
     P         -0.29583691     -1.58651577      0.00000000
     C         -0.08286083     -0.32282431      1.28601846
     C         -0.08286083     -0.32282431     -1.28601846
     C         -0.08286083      0.90939312      0.72894826
     C         -0.08286083      0.90939312     -0.72894826
     H          0.99164355     -2.19229798      0.00000000
     H         -0.09867284     -0.52734039      2.34781184
     H         -0.09867284     -0.52734039     -2.34781184
     H         -0.08350883      1.83017845      1.30240546
     H         -0.08350883      1.83017845     -1.30240546
 }
 basis=cc-pVDZ
 
 
 
 hf; hf; papt; mp4
 
 
 
 {put,xml;noorbitals,nobasis}
 Commands initialized (841), CPU time= 0.01 sec, 704 directives.
 Default parameters read. Elapsed time= 1.00 sec

 Checking input...
 Passed
1


                                         ***  PROGRAM SYSTEM MOLPRO  ***
                                       Copyright, TTI GmbH Stuttgart, 2015
                                    Version 2023.1 linked Tue Jun  6 09:54:11 2023


 **********************************************************************************************************************************
 LABEL *                                                                                                                                                                 
  64 bit serial version                                                                  DATE: 11-Jun-23          TIME: 13:51:46  
 **********************************************************************************************************************************

 SHA1:             8ebb0dd001088a5c915591db1a321413035db0b1
 **********************************************************************************************************************************

 Memory per process:       393 MW
 Total memory per node:    524 MW
 Total GA space:           131 MW

 GA preallocation disabled
 GA check enabled

 Variable memory set to 393.2 MW

 ZSYMEL=NOSYM


 Geometry recognized as XYZ

 SETTING BASIS          =    CC-PVDZ


 Recomputing integrals since basis changed


 Using spherical harmonics

 Library entry P      S cc-pVDZ              selected for orbital group  1
 Library entry P      P cc-pVDZ              selected for orbital group  1
 Library entry P      D cc-pVDZ              selected for orbital group  1
 Library entry C      S cc-pVDZ              selected for orbital group  2
 Library entry C      P cc-pVDZ              selected for orbital group  2
 Library entry C      D cc-pVDZ              selected for orbital group  2
 Library entry H      S cc-pVDZ              selected for orbital group  3
 Library entry H      P cc-pVDZ              selected for orbital group  3


 PROGRAM * SEWARD (Integral evaluation for generally contracted gaussian basis sets)     Author: Roland Lindh, 1990

 Geometry written to block  1 of record 700


 Point group  C1  



 ATOMIC COORDINATES

 NR  ATOM    CHARGE       X              Y              Z

   1  P      15.00   -0.559050737   -2.998080298    0.000000000
   2  C       6.00   -0.156584275   -0.610049532    2.430222681
   3  C       6.00   -0.156584275   -0.610049532   -2.430222681
   4  C       6.00   -0.156584275    1.718503936    1.377512570
   5  C       6.00   -0.156584275    1.718503936   -1.377512570
   6  H       1.00    1.873934723   -4.142842766    0.000000000
   7  H       1.00   -0.186464644   -0.996528912    4.436721370
   8  H       1.00   -0.186464644   -0.996528912   -4.436721370
   9  H       1.00   -0.157808818    3.458536030    2.461189623
  10  H       1.00   -0.157808818    3.458536030   -2.461189623

 Bond lengths in Bohr (Angstrom)

 1-2  3.430838450  1-3  3.430838450  1-6  2.688847217  2-4  2.555456874  2-7  2.043598820
     ( 1.815521522)     ( 1.815521522)     ( 1.422876671)     ( 1.352289541)     ( 1.081425924)

  3- 5  2.555456874   3- 8  2.043598820   4- 5  2.755025141   4- 9  2.049894909   5-10  2.049894909
       ( 1.352289541)       ( 1.081425924)       ( 1.457896520)       ( 1.084757671)       ( 1.084757671)

 Bond angles

  1-2-4  110.02589884   1-2-7  124.20372387   1-3-5  110.02589884   1-3-8  124.20372387

  2-1-3   90.20109447   2-1-6  100.96406309   2-4-5  114.32713511   2-4-9  123.75856205

  3- 1- 6  100.96406309   3- 5- 4  114.32713511   3- 5-10  123.75856205   4- 2- 7  125.22525031

  4- 5-10  121.91428964   5- 3- 8  125.22525031   5- 4- 9  121.91428964

 NUCLEAR CHARGE:                   44
 NUMBER OF PRIMITIVE AOS:         185
 NUMBER OF SYMMETRY AOS:          180
 NUMBER OF CONTRACTIONS:           99   (   99A   )
 NUMBER OF INNER CORE ORBITALS:     1   (    1A   )
 NUMBER OF OUTER CORE ORBITALS:     8   (    8A   )
 NUMBER OF VALENCE ORBITALS:       25   (   25A   )


 NUCLEAR REPULSION ENERGY  201.74589258


 Eigenvalues of metric

         1 0.111E-02 0.247E-02 0.436E-02 0.464E-02 0.142E-01 0.168E-01 0.174E-01 0.200E-01


 Contracted 2-electron integrals neglected if value below      1.0D-11
 AO integral compression algorithm  1   Integral accuracy      1.0D-11

     51.905 MB (compressed) written to integral file ( 47.3%)


 NUMBER OF SORTED TWO-ELECTRON INTEGRALS:   12253725.     BUFFER LENGTH:  32768
 NUMBER OF SEGMENTS:   1  SEGMENT LENGTH:   12253725      RECORD LENGTH: 524288

 Memory used in sort:      12.81 MW

 SORT1 READ    13692407. AND WROTE    11317595. INTEGRALS IN     33 RECORDS. CPU TIME:     0.08 SEC, REAL TIME:     0.11 SEC
 SORT2 READ    11317595. AND WROTE    12253725. INTEGRALS IN    198 RECORDS. CPU TIME:     0.12 SEC, REAL TIME:     0.14 SEC

 FILE SIZES:   FILE 1:    82.4 MBYTE,  FILE 4:   138.5 MBYTE,   TOTAL:    220.9 MBYTE

 OPERATOR DM      FOR CENTER  0  COORDINATES:    0.000000    0.000000    0.000000


 **********************************************************************************************************************************
 DATASETS  * FILE   NREC   LENGTH (MB)   RECORD NAMES
              1      19       73.22       500      610      700      900      950      970     1000      129      960     1100   
                                          VAR    BASINP    GEOM    SYMINP    ZMAT    AOBASIS   BASIS     P2S    ABASIS      S 
                                         1400     1410     1200     1210     1080     1600     1650     1300     1700   
                                           T        V       H0       H01     AOSYM     SMH    MOLCAS    ERIS     OPER   

 PROGRAMS   *        TOTAL       INT
 CPU TIMES  *         0.94      0.84
 REAL TIME  *         7.26 SEC
 DISK USED  *       211.16 MB
 **********************************************************************************************************************************


 Program * Restricted Hartree-Fock

 Orbital guess generated from atomic densities. Full valence occupancy:   34

 Initial occupancy:  22

 NELEC=   44   SYM=1   MS2= 0   THRE=1.0D-08   THRD=3.2D-06   THRG=3.2D-06  HFMA2=F  DIIS_START=2   DIIS_MAX=10   DIIS_INCORE=F

 Level shifts:    0.00 (CLOSED)    0.00 (OPEN)    0.30 (GAP_MIN)

 ITER           ETOT              DE          GRAD        DDIFF     DIIS  NEXP   TIME(IT)  TIME(TOT)  DIAG
   1     -495.01705180    -495.01705180     0.00D+00     0.12D+00     0     0       0.05      0.10    start
   2     -495.07343319      -0.05638139     0.46D-02     0.12D-01     1     0       0.06      0.16    diag
   3     -495.08626635      -0.01283316     0.24D-02     0.49D-02     2     0       0.05      0.21    diag
   4     -495.08874884      -0.00248249     0.71D-03     0.21D-02     3     0       0.05      0.26    diag
   5     -495.08900036      -0.00025152     0.24D-03     0.55D-03     4     0       0.06      0.32    diag
   6     -495.08908368      -0.00008332     0.97D-04     0.36D-03     5     0       0.05      0.37    diag
   7     -495.08909193      -0.00000826     0.32D-04     0.12D-03     6     0       0.06      0.43    diag
   8     -495.08909255      -0.00000061     0.91D-05     0.33D-04     7     0       0.05      0.48    fixocc
   9     -495.08909260      -0.00000005     0.26D-05     0.96D-05     8     0       0.06      0.54    diag
  10     -495.08909260      -0.00000000     0.75D-06     0.28D-05     9     0       0.05      0.59    diag/orth
  11     -495.08909260      -0.00000000     0.20D-06     0.51D-06     0     0       0.05      0.64    diag

 Final occupancy:  22

 !RHF STATE 1.1 Energy               -495.089092603864
  RHF One-electron energy           -1079.764062892822
  RHF Two-electron energy             382.929077709034
  RHF Kinetic energy                  494.929291951848
  RHF Nuclear energy                  201.745892579924
  RHF Virial quotient                  -1.000322875721

 !RHF STATE 1.1 Dipole moment           0.21757100     0.32040665     0.00000000
 Dipole moment /Debye                   0.55301033     0.81439247     0.00000000

 Orbital energies:

           1.1          2.1          3.1          4.1          5.1          6.1          7.1          8.1          9.1         10.1
    -79.947450   -11.248219   -11.247408   -11.240091   -11.240083    -7.489902    -5.384152    -5.383803    -5.382391    -1.129071

          11.1         12.1         13.1         14.1         15.1         16.1         17.1         18.1         19.1         20.1
     -0.977343    -0.899786    -0.744113    -0.721938    -0.682334    -0.571989    -0.546299    -0.518602    -0.476157    -0.451102

          21.1         22.1         23.1         24.1
     -0.347522    -0.323191     0.096757     0.183255


 HOMO     22.1    -0.323191 =      -8.7945eV
 LUMO     23.1     0.096757 =       2.6329eV
 LUMO-HOMO         0.419948 =      11.4274eV

 Orbitals saved in record  2100.2


 **********************************************************************************************************************************
 DATASETS  * FILE   NREC   LENGTH (MB)   RECORD NAMES
              1      19       73.22       500      610      700      900      950      970     1000      129      960     1100   
                                          VAR    BASINP    GEOM    SYMINP    ZMAT    AOBASIS   BASIS     P2S    ABASIS      S 
                                         1400     1410     1200     1210     1080     1600     1650     1300     1700   
                                           T        V       H0       H01     AOSYM     SMH    MOLCAS    ERIS     OPER   

              2       4        0.69       700     1000      520     2100   
                                         GEOM     BASIS   MCVARS     RHF  

 PROGRAMS   *        TOTAL    HF-SCF       INT
 CPU TIMES  *         1.59      0.65      0.84
 REAL TIME  *         9.47 SEC
 DISK USED  *       211.16 MB
 **********************************************************************************************************************************


 Program * Restricted Hartree-Fock

 Molecular orbitals read from record     2100.2  Type=RHF/CANONICAL  

 Initial occupancy:  22

 NELEC=   44   SYM=1   MS2= 0   THRE=1.0D-08   THRD=3.2D-06   THRG=3.2D-06  HFMA2=F  DIIS_START=2   DIIS_MAX=10   DIIS_INCORE=F

 Level shifts:    0.00 (CLOSED)    0.00 (OPEN)    0.30 (GAP_MIN)

 ITER           ETOT              DE          GRAD        DDIFF     DIIS  NEXP   TIME(IT)  TIME(TOT)  DIAG
   1     -495.08909260    -495.08909260     0.00D+00     0.12D+00     0     0       0.05      0.05    start
   2     -495.08909260      -0.00000000     0.95D-07     0.22D-06     1     0       0.06      0.11    diag

 Final occupancy:  22

 !RHF STATE 1.1 Energy               -495.089092603919
  RHF One-electron energy           -1079.764066806327
  RHF Two-electron energy             382.929081622484
  RHF Kinetic energy                  494.929293610218
  RHF Nuclear energy                  201.745892579924
  RHF Virial quotient                  -1.000322872369

 !RHF STATE 1.1 Dipole moment           0.21758126     0.32041043     0.00000000
 Dipole moment /Debye                   0.55303641     0.81440209     0.00000000

 Orbital energies:

           1.1          2.1          3.1          4.1          5.1          6.1          7.1          8.1          9.1         10.1
    -79.947452   -11.248219   -11.247408   -11.240090   -11.240082    -7.489904    -5.384153    -5.383805    -5.382393    -1.129071

          11.1         12.1         13.1         14.1         15.1         16.1         17.1         18.1         19.1         20.1
     -0.977343    -0.899786    -0.744113    -0.721938    -0.682334    -0.571989    -0.546299    -0.518602    -0.476157    -0.451102

          21.1         22.1         23.1         24.1
     -0.347523    -0.323191     0.096757     0.183255


 HOMO     22.1    -0.323191 =      -8.7945eV
 LUMO     23.1     0.096757 =       2.6329eV
 LUMO-HOMO         0.419948 =      11.4274eV

 Orbitals saved in record  2101.2


 **********************************************************************************************************************************
 DATASETS  * FILE   NREC   LENGTH (MB)   RECORD NAMES
              1      19       73.22       500      610      700      900      950      970     1000      129      960     1100   
                                          VAR    BASINP    GEOM    SYMINP    ZMAT    AOBASIS   BASIS     P2S    ABASIS      S 
                                         1400     1410     1200     1210     1080     1600     1650     1300     1700   
                                           T        V       H0       H01     AOSYM     SMH    MOLCAS    ERIS     OPER   

              2       5        1.05       700     1000      520     2100     2101   
                                         GEOM     BASIS   MCVARS     RHF      RHF  

 PROGRAMS   *        TOTAL    HF-SCF    HF-SCF       INT
 CPU TIMES  *         1.71      0.12      0.65      0.84
 REAL TIME  *        10.78 SEC
 DISK USED  *       211.16 MB
 **********************************************************************************************************************************


 PROGRAM * PAPT (Closed-shell)     Authors: C. Hampel, H.-J. Werner, 1991, P.J. Knowles, 2021


 Convergence thresholds:  THRVAR = 1.00D-08  THRDEN = 1.00D-06

 Number of core orbitals:           9 (   9 )
 Number of closed-shell orbitals:  13 (  13 )
 Number of external orbitals:      77 (  77 )

 Molecular orbitals read from record     2101.2  Type=RHF/CANONICAL  

 Number of N-1 electron functions:              13
 Number of N-2 electron functions:              91
 Number of singly external CSFs:              1001
 Number of doubly external CSFs:            501501
 Total number of CSFs:                      502503

 Length of J-op  integral file:               0.00 MB
 Length of K-op  integral file:               0.74 MB

 Integral transformation finished. Total CPU:   0.12 sec, npass=  1  Memory used:   1.70 MW

 Reference energy:                   -495.08909260

                        CORR.ENERGY   TOTAL ENERGY   ENERGY CHANGE
 MP2:                   -0.64361815  -495.73271076    -0.64361815

 SCS-MP2 correlation energy:           -0.63152388   (PS=  1.200000  PT=  0.333333)
 SCS-MP2 total energy:               -495.72061648
 Iteration:   1     0.2548D+00
 Iteration:   2     0.6358D+01
 Iteration:   3     0.8280D-01
 Iteration:   4     0.2192D+00
 Iteration:   5     0.3051D-01
 Iteration:   6     0.2822D-01
 Iteration:   7     0.2117D-01
 Iteration:   8     0.4999D-02
 Iteration:   9     0.8334D-01
 Iteration:  10     0.1115D-02
 Iteration:  11     0.1745D-02
 Iteration:  12     0.4495D-03
 Iteration:  13     0.2872D-03
 Iteration:  14     0.4875D-03
 Iteration:  15     0.7695D-04
 PAPT operator written to  7000.1
 PAPT orbitals and eigenvalues written to  7000.2

 MP3(D):                -0.68092610  -495.77001871    -0.03730795



 RESULTS
 =======

  Reference energy                   -495.089092603917
  MP3 singlet pair energy              -0.452385861700
  MP3 triplet pair energy              -0.228540241031
  MP3 correlation energy               -0.680926102730

 !MP3 total energy                   -495.770018706648

 Timing summary (sec):

 STEP                 CPU(USER)    SYS     CPU(TOT)    WALL
 Transformation          0.14      0.02      0.16      0.55
 CCSD iterations         3.22      0.05      3.27      4.08

 Program statistics:

 Available memory in ccsd:               393215302
 Min. memory needed in ccsd:               1417560
 Max. memory used in ccsd:                 1830687
 Max. memory used in cckext:               1907762 ( 1 integral passes)



 **********************************************************************************************************************************
 DATASETS  * FILE   NREC   LENGTH (MB)   RECORD NAMES
              1      21       83.65       500      610      700      900      950      970     1000      129      960     1100   
                                          VAR    BASINP    GEOM    SYMINP    ZMAT    AOBASIS   BASIS     P2S    ABASIS      S 
                                         1400     1410     1200     1210     1080     1600     1650     1300     1700     1380   
                                           T        V       H0       H01     AOSYM     SMH    MOLCAS    ERIS     OPER     JKOP   
                                         7000   
                                        PAPT AO    

              2       6        1.38       700     1000      520     2100     2101     7000   
                                         GEOM     BASIS   MCVARS     RHF      RHF     PAPT   

 PROGRAMS   *        TOTAL      PAPT    HF-SCF    HF-SCF       INT
 CPU TIMES  *         3.28      1.57      0.12      0.65      0.84
 REAL TIME  *        16.32 SEC
 DISK USED  *       211.16 MB
 **********************************************************************************************************************************


 PROGRAM * MP4 (Closed-shell)     Authors: C. Hampel, H.-J. Werner, 1991, M. Deegan, P.J. Knowles, 1992


 Convergence thresholds:  THRVAR = 1.00D-08  THRDEN = 1.00D-06

 MP4(T)     terms to be evaluated (factor= 0.000)


 Number of core orbitals:           9 (   9 )
 Number of closed-shell orbitals:  13 (  13 )
 Number of external orbitals:      77 (  77 )

 Molecular orbitals read from record     7000.2  Type=PAPT/CANONICAL (state 1.1)

 Number of N-1 electron functions:              13
 Number of N-2 electron functions:              91
 Number of singly external CSFs:              1001
 Number of doubly external CSFs:            501501
 Total number of CSFs:                      502503

 Length of J-op  integral file:               0.00 MB
 Length of K-op  integral file:               0.74 MB

 Memory could be reduced to 8.47 Mwords without degradation in triples

 Integral transformation finished. Total CPU:   0.29 sec, npass=  1  Memory used:   8.56 MW
 Orbital energies read from record       7000.2  Type=PAPT/CANONICAL (state 1.1)

 Reference energy:                   -495.08909260

                        CORR.ENERGY   TOTAL ENERGY   ENERGY CHANGE
 MP2:                   -0.68950897  -495.77860157    -0.68950897

 SCS-MP2 correlation energy:           -0.68160246   (PS=  1.200000  PT=  0.333333)
 SCS-MP2 total energy:               -495.77069507

 MP3(D):                -0.68992145  -495.77901406    -0.00041249
 MP4(DQ):               -0.68149451  -495.77058711     0.00842695
 MP4(SDQ):              -0.68793037  -495.77702298    -0.00643587

 Norm of t1 vector:      0.07854307      S-energy:    -0.00643587      T1 diagnostic:  0.01089196

 Largest off-diagonal element in interal  block of Fock matrix:  0.16D+00
 Largest off-diagonal element in external block of Fock matrix:  0.19D+00


 Total CPU time for triples:      3.53 sec


 RESULTS
 =======

  Reference energy                   -495.089092603916
  MP4(SDQ) singlet pair energy         -0.455071832947
  MP4(SDQ) triplet pair energy         -0.226422672906
  MP4(SDQ) correlation energy          -0.687930371318

  Triples contribution                 -0.034083513199
  Total correlation energy             -0.722013884516

  MP4(SDQ) total energy              -495.777022975234
 !MP4(SDTQ) total energy             -495.811106488433

 Timing summary (sec):

 STEP                 CPU(USER)    SYS     CPU(TOT)    WALL
 Transformation          0.35      0.04      0.39      0.64
 CCSD iterations         4.16      0.02      4.18      1.32
 Triples                 3.53      0.25      3.78      3.92

 Program statistics:

 Available memory in ccsd:               393215302
 Min. memory needed in ccsd:               1417560
 Max. memory used in ccsd:                 1830687
 Max. memory used in cckext:               1907762 ( 1 integral passes)



 **********************************************************************************************************************************
 DATASETS  * FILE   NREC   LENGTH (MB)   RECORD NAMES
              1      22      106.58       500      610      700      900      950      970     1000      129      960     1100   
                                          VAR    BASINP    GEOM    SYMINP    ZMAT    AOBASIS   BASIS     P2S    ABASIS      S 
                                         1400     1410     1200     1210     1080     1600     1650     1300     1700     1380   
                                           T        V       H0       H01     AOSYM     SMH    MOLCAS    ERIS     OPER     JKOP   
                                         7000     1380(1)
                                        PAPT AO   JKOP   

              2       6        1.38       700     1000      520     2100     2101     7000   
                                         GEOM     BASIS   MCVARS     RHF      RHF     PAPT   

 PROGRAMS   *        TOTAL       MP4      PAPT    HF-SCF    HF-SCF       INT
 CPU TIMES  *         7.96      4.68      1.57      0.12      0.65      0.84
 REAL TIME  *        23.02 SEC
 DISK USED  *       211.16 MB
 **********************************************************************************************************************************

 Dump information in style XML to xml output                                                                      

 Orbitals will not be exported.

 **********************************************************************************************************************************

 MP4/cc-pVDZ energy=   -495.811106488433

             MP4            PAPT          HF-SCF          HF-SCF
   -495.81110649   -495.77001871   -495.08909260   -495.08909260
 **********************************************************************************************************************************
 Molpro calculation terminated
