
 Working directory              : /var/folders/2v/xbgp75_9785319ghcgb4zr4r0000gp/T//molpro.072v2WYJxB/
 Global scratch directory       : /var/folders/2v/xbgp75_9785319ghcgb4zr4r0000gp/T//molpro.072v2WYJxB/
 Wavefunction directory         : /Users/sacpjk/wfu/
 Main file repository           : /var/folders/2v/xbgp75_9785319ghcgb4zr4r0000gp/T//molpro.072v2WYJxB/

 id        : peterk

 Nodes                        nprocs
 Cardiff-University-G34YLXT77Y    1
 GA implementation: MPI file
 GA implementation (serial work in mppx): MPI file

 Using customized tuning parameters: mindgm=1; mindgv=20; mindgc=4; mindgr=1; noblas=0; minvec=7
 default implementation of scratch files=df  


 Variables initialized (1032), CPU time= 0.00 sec
 
 symmetry,nosym
 
 
 geometry={
 12
  o         -1.527646102080    0.457973387505   -0.213561759716
  h         -0.583413802253    0.434177050244   -0.417697389935
  c         -2.043576580853   -0.830031984284   -0.478901532009
  h         -3.101456196792   -0.815009593660   -0.230205217635
  h         -1.948121413855   -1.111415060290   -1.530351686713
  h         -1.566346919749   -1.605016966448    0.126350368364
  o          1.318908103188    0.359134027225   -0.506263782018
  h          1.787697413109    0.973518551157   -1.075929735942
  c          1.827742028774    0.516152965156    0.815453542362
  h          1.274172948765   -0.172043461456    1.445584422194
  h          2.886738130918    0.265714066399    0.872176682935
  h          1.675302390722    1.526847018505    1.193346087954
 }
 basis=aug-cc-pVTZ
 
 
 
 hf; hf; papt; mp2
 
 
 
 {put,xml;noorbitals,nobasis}
 Commands initialized (841), CPU time= 0.01 sec, 704 directives.
 Default parameters read. Elapsed time= 0.06 sec

 Checking input...
 Passed
1


                                         ***  PROGRAM SYSTEM MOLPRO  ***
                                       Copyright, TTI GmbH Stuttgart, 2015
                                    Version 2023.1 linked Tue Jun  6 09:54:11 2023


 **********************************************************************************************************************************
 LABEL *                                                                                                                                                                 
  64 bit serial version                                                                  DATE: 09-Jun-23          TIME: 00:59:49  
 **********************************************************************************************************************************

 SHA1:             8ebb0dd001088a5c915591db1a321413035db0b1
 **********************************************************************************************************************************

 Memory per process:       805 MW
 Total memory per node:   1074 MW
 Total GA space:           268 MW

 GA preallocation disabled
 GA check enabled

 Variable memory set to 805.3 MW

 ZSYMEL=NOSYM


 Geometry recognized as XYZ

 SETTING BASIS          =    AUG-CC-PVTZ


 Recomputing integrals since basis changed


 Using spherical harmonics

 Library entry O      S aug-cc-pVTZ          selected for orbital group  1
 Library entry O      P aug-cc-pVTZ          selected for orbital group  1
 Library entry O      D aug-cc-pVTZ          selected for orbital group  1
 Library entry O      F aug-cc-pVTZ          selected for orbital group  1
 Library entry H      S aug-cc-pVTZ          selected for orbital group  2
 Library entry H      P aug-cc-pVTZ          selected for orbital group  2
 Library entry H      D aug-cc-pVTZ          selected for orbital group  2
 Library entry C      S aug-cc-pVTZ          selected for orbital group  3
 Library entry C      P aug-cc-pVTZ          selected for orbital group  3
 Library entry C      D aug-cc-pVTZ          selected for orbital group  3
 Library entry C      F aug-cc-pVTZ          selected for orbital group  3


 PROGRAM * SEWARD (Integral evaluation for generally contracted gaussian basis sets)     Author: Roland Lindh, 1990

 Geometry written to block  1 of record 700


 Point group  C1  



 ATOMIC COORDINATES

 NR  ATOM    CHARGE       X              Y              Z

   1  O       8.00   -2.886832748    0.865444275   -0.403573237
   2  H       1.00   -1.102492304    0.820475715   -0.789333670
   3  C       6.00   -3.861800053   -1.568533125   -0.904992736
   4  H       1.00   -5.860902799   -1.540144921   -0.435024814
   5  H       1.00   -3.681415930   -2.100270075   -2.891945562
   6  H       1.00   -2.959966694   -3.033042492    0.238767592
   7  O       8.00    2.492375099    0.678664953   -0.956699895
   8  H       1.00    3.378258504    1.839683439   -2.033212530
   9  C       6.00    3.453931861    0.975387743    1.540983862
  10  H       1.00    2.407837909   -0.325115024    2.731758648
  11  H       1.00    5.455144461    0.502126813    1.648175063
  12  H       1.00    3.165862694    2.885322699    2.255097278

 Bond lengths in Bohr (Angstrom)

 1-2  1.826117221  1-3  2.669499717  3-4  2.053798318  3-5  2.064767335  3-6  2.065497223
     ( 0.966339618)     ( 1.412638415)     ( 1.086823266)     ( 1.092627820)     ( 1.093014060)

  7- 8  1.814285751   7- 9  2.692779228   9-10  2.050259640   9-11  2.059203179   9-12  2.059318662
       ( 0.960078674)       ( 1.424957402)       ( 1.084950678)       ( 1.089683395)       ( 1.089744506)

 Bond angles

  1-3-4  107.45243548   1-3-5  112.56023933   1-3-6  112.51984284   2-1-3  107.14181272

  4- 3- 5  107.98697641   4- 3- 6  107.94343214   5- 3- 6  108.18798931   7- 9-10  106.65583751

  7- 9-11  111.71494432   7- 9-12  111.95602746   8- 7- 9  107.78761844  10- 9-11  108.65333214

 10- 9-12  108.39236687  11- 9-12  109.33255661

 NUCLEAR CHARGE:                   36
 NUMBER OF PRIMITIVE AOS:         484
 NUMBER OF SYMMETRY AOS:          432
 NUMBER OF CONTRACTIONS:          368   (  368A   )
 NUMBER OF INNER CORE ORBITALS:     0   (    0A   )
 NUMBER OF OUTER CORE ORBITALS:     4   (    4A   )
 NUMBER OF VALENCE ORBITALS:       24   (   24A   )


 NUCLEAR REPULSION ENERGY  129.52156890


 Eigenvalues of metric

         1 0.446E-04 0.467E-04 0.493E-04 0.555E-04 0.578E-04 0.723E-04 0.797E-04 0.113E-03


 Contracted 2-electron integrals neglected if value below      1.0D-12
 AO integral compression algorithm  1   Integral accuracy      1.0D-12

     9200.730 MB (compressed) written to integral file ( 45.8%)


 NUMBER OF SORTED TWO-ELECTRON INTEGRALS: 2304967356.     BUFFER LENGTH:  32768
 NUMBER OF SEGMENTS:  73  SEGMENT LENGTH:   31999951      RECORD LENGTH: 262144

 Memory used in sort:      32.29 MW

 SORT1 READ  2513827292. AND WROTE  2053062355. INTEGRALS IN  11782 RECORDS. CPU TIME:    19.39 SEC, REAL TIME:    33.74 SEC
 SORT2 READ  2053062355. AND WROTE  2304967356. INTEGRALS IN  35098 RECORDS. CPU TIME:    11.92 SEC, REAL TIME:    41.34 SEC

 FILE SIZES:   FILE 1:  9235.9 MBYTE,  FILE 4: 24708.7 MBYTE,   TOTAL:  33944.6 MBYTE

 OPERATOR DM      FOR CENTER  0  COORDINATES:    0.000000    0.000000    0.000000


 **********************************************************************************************************************************
 DATASETS  * FILE   NREC   LENGTH (MB)   RECORD NAMES
              1      19     8125.35       500      610      700      900      950      970     1000      129      960     1100   
                                          VAR    BASINP    GEOM    SYMINP    ZMAT    AOBASIS   BASIS     P2S    ABASIS      S 
                                         1400     1410     1200     1210     1080     1600     1650     1300     1700   
                                           T        V       H0       H01     AOSYM     SMH    MOLCAS    ERIS     OPER   

 PROGRAMS   *        TOTAL       INT
 CPU TIMES  *        73.52     73.43
 REAL TIME  *       127.95 SEC
 DISK USED  *        31.61 GB
 **********************************************************************************************************************************


 Program * Restricted Hartree-Fock

 Orbital guess generated from atomic densities. Full valence occupancy:   28

 Initial occupancy:  18

 NELEC=   36   SYM=1   MS2= 0   THRE=1.0D-08   THRD=3.2D-06   THRG=3.2D-06  HFMA2=F  DIIS_START=2   DIIS_MAX=10   DIIS_INCORE=F

 Level shifts:    0.00 (CLOSED)    0.00 (OPEN)    0.30 (GAP_MIN)

 ITER           ETOT              DE          GRAD        DDIFF     DIIS  NEXP   TIME(IT)  TIME(TOT)  DIAG
   1     -230.12334202    -230.12334202     0.00D+00     0.33D-01     0     0       9.27     17.95    start
   2     -230.17668636      -0.05334434     0.33D-02     0.38D-02     1     0       9.55     27.50    diag
   3     -230.18852121      -0.01183485     0.17D-02     0.11D-02     2     0      10.19     37.69    diag
   4     -230.18955422      -0.00103301     0.38D-03     0.34D-03     3     0      10.16     47.85    diag
   5     -230.18960958      -0.00005536     0.67D-04     0.72D-04     4     0       9.64     57.49    diag
   6     -230.18961229      -0.00000271     0.14D-04     0.19D-04     5     0       8.73     66.22    diag
   7     -230.18961244      -0.00000015     0.41D-05     0.45D-05     6     0       8.82     75.04    diag
   8     -230.18961246      -0.00000002     0.16D-05     0.18D-05     7     0       8.88     83.92    fixocc
   9     -230.18961247      -0.00000000     0.38D-06     0.51D-06     8     0       8.88     92.80    diag
  10     -230.18961247      -0.00000000     0.12D-06     0.13D-06     0     0       8.74    101.54    diag/orth

 Final occupancy:  18

 !RHF STATE 1.1 Energy               -230.189612465390
  RHF One-electron energy            -571.577506674560
  RHF Two-electron energy             211.866325308527
  RHF Kinetic energy                  229.882494784350
  RHF Nuclear energy                  129.521568900643
  RHF Virial quotient                  -1.001335976806

 !RHF STATE 1.1 Dipole moment           1.16038287    -0.03841510     0.01474157
 Dipole moment /Debye                   2.94939908    -0.09764144     0.03746934

 Orbital energies:

           1.1          2.1          3.1          4.1          5.1          6.1          7.1          8.1          9.1         10.1
    -20.582599   -20.528662   -11.283944   -11.251506    -1.382254    -1.332059    -0.942601    -0.905028    -0.716916    -0.673600

          11.1         12.1         13.1         14.1         15.1         16.1         17.1         18.1         19.1         20.1
     -0.635534    -0.610549    -0.599099    -0.571873    -0.526786    -0.486235    -0.467002    -0.426171     0.024702     0.039201


 HOMO     18.1    -0.426171 =     -11.5967eV
 LUMO     19.1     0.024702 =       0.6722eV
 LUMO-HOMO         0.450873 =      12.2689eV

 Orbitals saved in record  2100.2


 **********************************************************************************************************************************
 DATASETS  * FILE   NREC   LENGTH (MB)   RECORD NAMES
              1      19     8125.35       500      610      700      900      950      970     1000      129      960     1100   
                                          VAR    BASINP    GEOM    SYMINP    ZMAT    AOBASIS   BASIS     P2S    ABASIS      S 
                                         1400     1410     1200     1210     1080     1600     1650     1300     1700   
                                           T        V       H0       H01     AOSYM     SMH    MOLCAS    ERIS     OPER   

              2       4        2.68       700     1000      520     2100   
                                         GEOM     BASIS   MCVARS     RHF  

 PROGRAMS   *        TOTAL    HF-SCF       INT
 CPU TIMES  *       175.07    101.55     73.43
 REAL TIME  *       253.80 SEC
 DISK USED  *        31.61 GB
 **********************************************************************************************************************************


 Program * Restricted Hartree-Fock

 Molecular orbitals read from record     2100.2  Type=RHF/CANONICAL  

 Initial occupancy:  18

 NELEC=   36   SYM=1   MS2= 0   THRE=1.0D-08   THRD=3.2D-06   THRG=3.2D-06  HFMA2=F  DIIS_START=2   DIIS_MAX=10   DIIS_INCORE=F

 Level shifts:    0.00 (CLOSED)    0.00 (OPEN)    0.30 (GAP_MIN)

 ITER           ETOT              DE          GRAD        DDIFF     DIIS  NEXP   TIME(IT)  TIME(TOT)  DIAG
   1     -230.18961247    -230.18961247     0.00D+00     0.34D-01     0     0       9.08      9.08    start
   2     -230.18961247      -0.00000000     0.55D-07     0.59D-07     1     0       9.84     18.92    diag

 Final occupancy:  18

 !RHF STATE 1.1 Energy               -230.189612465416
  RHF One-electron energy            -571.577521039113
  RHF Two-electron energy             211.866339673054
  RHF Kinetic energy                  229.882507702849
  RHF Nuclear energy                  129.521568900643
  RHF Virial quotient                  -1.001335920535

 !RHF STATE 1.1 Dipole moment           1.16037957    -0.03841989     0.01474042
 Dipole moment /Debye                   2.94939067    -0.09765363     0.03746640

 Orbital energies:

           1.1          2.1          3.1          4.1          5.1          6.1          7.1          8.1          9.1         10.1
    -20.582594   -20.528669   -11.283940   -11.251513    -1.382251    -1.332062    -0.942599    -0.905030    -0.716914    -0.673601

          11.1         12.1         13.1         14.1         15.1         16.1         17.1         18.1         19.1         20.1
     -0.635533    -0.610548    -0.599101    -0.571876    -0.526784    -0.486236    -0.467002    -0.426174     0.024702     0.039201


 HOMO     18.1    -0.426174 =     -11.5968eV
 LUMO     19.1     0.024702 =       0.6722eV
 LUMO-HOMO         0.450876 =      12.2690eV

 Orbitals saved in record  2101.2


 **********************************************************************************************************************************
 DATASETS  * FILE   NREC   LENGTH (MB)   RECORD NAMES
              1      19     8125.35       500      610      700      900      950      970     1000      129      960     1100   
                                          VAR    BASINP    GEOM    SYMINP    ZMAT    AOBASIS   BASIS     P2S    ABASIS      S 
                                         1400     1410     1200     1210     1080     1600     1650     1300     1700   
                                           T        V       H0       H01     AOSYM     SMH    MOLCAS    ERIS     OPER   

              2       5        6.41       700     1000      520     2100     2101   
                                         GEOM     BASIS   MCVARS     RHF      RHF  

 PROGRAMS   *        TOTAL    HF-SCF    HF-SCF       INT
 CPU TIMES  *       194.01     18.94    101.55     73.43
 REAL TIME  *       278.13 SEC
 DISK USED  *        31.61 GB
 **********************************************************************************************************************************


 PROGRAM * PAPT (Closed-shell)     Authors: C. Hampel, H.-J. Werner, 1991, P.J. Knowles, 2021


 Convergence thresholds:  THRVAR = 1.00D-08  THRDEN = 1.00D-06

 Number of core orbitals:           4 (   4 )
 Number of closed-shell orbitals:  14 (  14 )
 Number of external orbitals:     350 ( 350 )

 Molecular orbitals read from record     2101.2  Type=RHF/CANONICAL  

 Number of N-1 electron functions:              14
 Number of N-2 electron functions:             105
 Number of singly external CSFs:              4900
 Number of doubly external CSFs:          12007450
 Total number of CSFs:                    12012351

 Length of J-op  integral file:               0.00 MB
 Length of K-op  integral file:               9.36 MB

 Integral transformation finished. Total CPU:  23.07 sec, npass=  1  Memory used:  26.38 MW

 Reference energy:                   -230.18961247

                        CORR.ENERGY   TOTAL ENERGY   ENERGY CHANGE
 MP2:                   -0.87808870  -231.06770116    -0.87808870

 SCS-MP2 correlation energy:           -0.87840762   (PS=  1.200000  PT=  0.333333)
 SCS-MP2 total energy:               -231.06802008
 Iteration:   1     0.2013D+00
 Iteration:   2     0.2388D+00
 Iteration:   3     0.5011D-01
 Iteration:   4     0.3302D-01
 Iteration:   5     0.2454D+00
 Iteration:   6     0.1192D-01
 Iteration:   7     0.1498D-01
 Iteration:   8     0.1010D-01
 Iteration:   9     0.3124D-02
 Iteration:  10     0.7045D-02
 Iteration:  11     0.2205D-02
 Iteration:  12     0.5541D-02
 Iteration:  13     0.1700D-02
 Iteration:  14     0.3677D-02
 Iteration:  15     0.1399D-02
 Iteration:  16     0.2172D-02
 Iteration:  17     0.7445D-03
 Iteration:  18     0.3456D-03
 Iteration:  19     0.8833D-02
 Iteration:  20     0.1514D-03
 Iteration:  21     0.2039D-03
 Iteration:  22     0.1138D-03
 Iteration:  23     0.4990D-04
 PAPT operator written to  7000.1
 PAPT orbitals and eigenvalues written to  7000.2

 MP3(D):                -0.90612428  -231.09573674    -0.02803558



 RESULTS
 =======

  Reference energy                   -230.189612465418
  MP3 singlet pair energy              -0.623099684538
  MP3 triplet pair energy              -0.283024594149
  MP3 correlation energy               -0.906124278688

 !MP3 total energy                   -231.095736744105

 Timing summary (sec):

 STEP                 CPU(USER)    SYS     CPU(TOT)    WALL
 Transformation         24.02      3.33     27.35     29.53
 CCSD iterations       300.32      5.97    306.29    113.62

 Program statistics:

 Available memory in ccsd:               805305566
 Min. memory needed in ccsd:              29746255
 Max. memory used in ccsd:                40717719
 Max. memory used in cckext:              29617287 ( 1 integral passes)



 **********************************************************************************************************************************
 DATASETS  * FILE   NREC   LENGTH (MB)   RECORD NAMES
              1      21     8290.82       500      610      700      900      950      970     1000      129      960     1100   
                                          VAR    BASINP    GEOM    SYMINP    ZMAT    AOBASIS   BASIS     P2S    ABASIS      S 
                                         1400     1410     1200     1210     1080     1600     1650     1300     1700     1380   
                                           T        V       H0       H01     AOSYM     SMH    MOLCAS    ERIS     OPER     JKOP   
                                         7000   
                                        PAPT AO    

              2       6        9.62       700     1000      520     2100     2101     7000   
                                         GEOM     BASIS   MCVARS     RHF      RHF     PAPT   

 PROGRAMS   *        TOTAL      PAPT    HF-SCF    HF-SCF       INT
 CPU TIMES  *       324.27    130.25     18.94    101.55     73.43
 REAL TIME  *       421.69 SEC
 DISK USED  *        31.61 GB
 **********************************************************************************************************************************


 PROGRAM * MP2 (Closed-shell)     Authors: C. Hampel, H.-J. Werner, 1991, M. Deegan, P.J. Knowles, 1992


 Convergence thresholds:  THRVAR = 1.00D-08  THRDEN = 1.00D-06

 Number of core orbitals:           4 (   4 )
 Number of closed-shell orbitals:  14 (  14 )
 Number of external orbitals:     350 ( 350 )

 Molecular orbitals read from record     7000.2  Type=PAPT/CANONICAL (state 1.1)

 Number of N-1 electron functions:              14
 Number of N-2 electron functions:             105
 Number of singly external CSFs:              4900
 Number of doubly external CSFs:          12007450
 Total number of CSFs:                    12012351

 Length of J-op  integral file:               0.00 MB
 Length of K-op  integral file:               9.36 MB

 Integral transformation finished. Total CPU:  22.38 sec, npass=  1  Memory used:  26.38 MW
 Orbital energies read from record       7000.2  Type=PAPT/CANONICAL (state 1.1)

 Memory needed for MP2:                      0.67 MW

 SCS-MP2 correlation energy:           -0.919946012840   (PS=  1.200000  PT=  0.333333)
 SCS-MP2 total energy:               -231.109558478257


  Reference energy                   -230.189612465417
  MP2 singlet pair energy              -0.606510224993
  MP2 triplet pair energy              -0.308786372435
  MP2 correlation energy               -0.915296597428

 !MP2 total energy                   -231.104909062845


 **********************************************************************************************************************************
 DATASETS  * FILE   NREC   LENGTH (MB)   RECORD NAMES
              1      21     8290.82       500      610      700      900      950      970     1000      129      960     1100   
                                          VAR    BASINP    GEOM    SYMINP    ZMAT    AOBASIS   BASIS     P2S    ABASIS      S 
                                         1400     1410     1200     1210     1080     1600     1650     1300     1700     1380   
                                           T        V       H0       H01     AOSYM     SMH    MOLCAS    ERIS     OPER     JKOP   
                                         7000   
                                        PAPT AO    

              2       6        9.62       700     1000      520     2100     2101     7000   
                                         GEOM     BASIS   MCVARS     RHF      RHF     PAPT   

 PROGRAMS   *        TOTAL       MP2      PAPT    HF-SCF    HF-SCF       INT
 CPU TIMES  *       358.08     33.81    130.25     18.94    101.55     73.43
 REAL TIME  *       465.38 SEC
 DISK USED  *        31.61 GB
 **********************************************************************************************************************************

 Dump information in style XML to xml output                                                                      

 Orbitals will not be exported.

 **********************************************************************************************************************************

 MP2/aug-cc-pVTZ energy=   -231.104909062845

             MP2            PAPT          HF-SCF          HF-SCF
   -231.10490906   -231.09573674   -230.18961247   -230.18961247
 **********************************************************************************************************************************
 Molpro calculation terminated
