
 Working directory              : /tmp/peterk/molpro.aLWrqMOuhQ/
 Global scratch directory       : /tmp/peterk/molpro.aLWrqMOuhQ/
 Wavefunction directory         : /home/peterk/wfu/
 Main file repository           : /tmp/peterk/molpro.aLWrqMOuhQ/

 id        : peterk

 Nodes     nprocs
 marat        1
 GA implementation: MPI file
 GA implementation (serial work in mppx): MPI file

 Using customized tuning parameters: mindgm=1; mindgv=20; mindgc=4; mindgr=1; noblas=0; minvec=7
 default implementation of scratch files=df  


 Variables initialized (1032), CPU time= 0.00 sec
 
 core,small
 angstrom
 
 geometry={
 H;O,H,0.95711647;H,O,0.95711647,H,104.22359713
 }
 basis=cc-pCVTZ
 
 
 
 hf
 
 
 
 {put,xml;noorbitals,nobasis}
 Commands initialized (841), CPU time= 0.00 sec, 708 directives.
 Default parameters read. Elapsed time= 0.05 sec

 Checking input...
 Passed
1


                                         ***  PROGRAM SYSTEM MOLPRO  ***
                                       Copyright, TTI GmbH Stuttgart, 2015
                                    Version 2023.1 linked Sat Jun 10 08:01:27 2023


 **********************************************************************************************************************************
 LABEL *                                                                                                                                                                 
  (16 PROC) 64 bit serial version                                                        DATE: 12-Jun-23          TIME: 10:21:30  
 **********************************************************************************************************************************

 SHA1:             8376d659ba1296ca7ee514c57770fe2c96af278c
 **********************************************************************************************************************************

 Memory per process:      1074 MW
 Total memory per node:   1074 MW

 GA preallocation disabled
 GA check disabled

 Variable memory set to 1073.7 MW

 ZUNIT=ANG

 SETTING BASIS          =    CC-PCVTZ


 Recomputing integrals since basis changed


 Using spherical harmonics

 Library entry H      S cc-pVTZ              selected for orbital group  1
 Library entry H      P cc-pVTZ              selected for orbital group  1
 Library entry H      D cc-pVTZ              selected for orbital group  1
 Library entry O      S cc-pCVTZ             selected for orbital group  2
 Library entry O      P cc-pCVTZ             selected for orbital group  2
 Library entry O      D cc-pCVTZ             selected for orbital group  2
 Library entry O      F cc-pCVTZ             selected for orbital group  2


 PROGRAM * SEWARD (Integral evaluation for generally contracted gaussian basis sets)     Author: Roland Lindh, 1990

 Geometry written to block  1 of record 700

 Orientation using atomic masses  
 Molecule type: Asymmetric top,     Order of principal axis = 2
 Symmetry elements: X,Y
 Rotational constants:     285.7255311    817.0524913    439.3768328 GHz  (calculated with average atomic masses)

 Point group  C2v 



 ATOMIC COORDINATES

 NR  ATOM    CHARGE       X              Y              Z

   1  H       1.00    0.000000000   -1.427435675    0.986464553
   2  H       1.00    0.000000000    1.427435675    0.986464553
   3  O       8.00    0.000000000    0.000000000   -0.124291796

 Bond lengths in Bohr (Angstrom)

 1-3  1.808687998  2-3  1.808687998
     ( 0.957116470)     ( 0.957116470)

 Bond angles

  1-3-2  104.22359713

 NUCLEAR CHARGE:                   10
 NUMBER OF PRIMITIVE AOS:          95
 NUMBER OF SYMMETRY AOS:           87
 NUMBER OF CONTRACTIONS:           71   (   29A1  +   14B1  +   20B2  +    8A2  )
 NUMBER OF INNER CORE ORBITALS:     0   (    0A1  +    0B1  +    0B2  +    0A2  )
 NUMBER OF OUTER CORE ORBITALS:     1   (    1A1  +    0B1  +    0B2  +    0A2  )
 NUMBER OF VALENCE ORBITALS:        6   (    3A1  +    1B1  +    2B2  +    0A2  )


 NUCLEAR REPULSION ENERGY    9.19646976

 Eigenvalues of metric

         1 0.224E-02 0.355E-02 0.100E-01 0.135E-01 0.272E-01 0.658E-01 0.803E-01 0.113E+00
         2 0.244E-01 0.104E+00 0.226E+00 0.387E+00 0.459E+00 0.504E+00 0.671E+00 0.980E+00
         3 0.445E-02 0.669E-02 0.352E-01 0.598E-01 0.915E-01 0.161E+00 0.271E+00 0.315E+00
         4 0.114E+00 0.316E+00 0.493E+00 0.834E+00 0.103E+01 0.121E+01 0.136E+01 0.231E+01


 Contracted 2-electron integrals neglected if value below      1.0D-11
 AO integral compression algorithm  1   Integral accuracy      1.0D-11

     5.767 MB (compressed) written to integral file ( 59.0%)


 NUMBER OF SORTED TWO-ELECTRON INTEGRALS:     876321.     BUFFER LENGTH:  32768
 NUMBER OF SEGMENTS:   1  SEGMENT LENGTH:     876321      RECORD LENGTH: 524288

 Memory used in sort:       1.43 MW

 SORT1 READ     1219671. AND WROTE      793618. INTEGRALS IN      3 RECORDS. CPU TIME:     0.02 SEC, REAL TIME:     0.02 SEC
 SORT2 READ      793618. AND WROTE      876321. INTEGRALS IN     22 RECORDS. CPU TIME:     0.03 SEC, REAL TIME:     0.04 SEC

 FILE SIZES:   FILE 1:    35.9 MBYTE,  FILE 4:    12.6 MBYTE,   TOTAL:     48.5 MBYTE

 OPERATOR DM      FOR CENTER  0  COORDINATES:    0.000000    0.000000    0.000000


 **********************************************************************************************************************************
 DATASETS  * FILE   NREC   LENGTH (MB)   RECORD NAMES
              1      19       32.38       500      610      700      900      950      970     1000      129      960     1100   
                                          VAR    BASINP    GEOM    SYMINP    ZMAT    AOBASIS   BASIS     P2S    ABASIS      S 
                                         1400     1410     1200     1210     1080     1600     1650     1300     1700   
                                           T        V       H0       H01     AOSYM     SMH    MOLCAS    ERIS     OPER   

 PROGRAMS   *        TOTAL       INT
 CPU TIMES  *         0.56      0.47
 REAL TIME  *         1.22 SEC
 DISK USED  *        46.62 MB
 **********************************************************************************************************************************


 Program * Restricted Hartree-Fock

 Orbital guess generated from atomic densities. Full valence occupancy:    4   1   2   0

 Initial occupancy:   3   1   1   0

 NELEC=   10   SYM=1   MS2= 0   THRE=1.0D-08   THRD=3.2D-06   THRG=3.2D-06  HFMA2=F  DIIS_START=2   DIIS_MAX=10   DIIS_INCORE=F

 Level shifts:    0.00 (CLOSED)    0.00 (OPEN)    0.30 (GAP_MIN)

 ITER           ETOT              DE          GRAD        DDIFF     DIIS  NEXP   TIME(IT)  TIME(TOT)  DIAG
   1      -76.01930436     -76.01930436     0.00D+00     0.15D+00     0     0       0.00      0.00    start
   2      -76.04720285      -0.02789849     0.21D-01     0.27D-01     1     0       0.01      0.01    diag
   3      -76.05713908      -0.00993623     0.12D-01     0.89D-02     2     0       0.00      0.01    diag
   4      -76.05732688      -0.00018780     0.12D-02     0.13D-02     3     0       0.00      0.01    diag
   5      -76.05734691      -0.00002003     0.34D-03     0.48D-03     4     0       0.01      0.02    diag
   6      -76.05734801      -0.00000110     0.65D-04     0.11D-03     5     0       0.00      0.02    diag
   7      -76.05734804      -0.00000004     0.12D-04     0.22D-04     6     0       0.00      0.02    diag
   8      -76.05734804      -0.00000000     0.19D-05     0.36D-05     7     0       0.00      0.02    fixocc
   9      -76.05734804      -0.00000000     0.19D-06     0.38D-06     8     0       0.01      0.03    diag
  10      -76.05734804      -0.00000000     0.35D-07     0.52D-07     0     0       0.00      0.03    diag/orth

 Final occupancy:   3   1   1   0

 !RHF STATE 1.1 Energy                -76.057348043640
  RHF One-electron energy            -123.122524473385
  RHF Two-electron energy              37.868706664928
  RHF Kinetic energy                   76.022298844735
  RHF Nuclear energy                    9.196469764817
  RHF Virial quotient                  -1.000461038398

 !RHF STATE 1.1 Dipole moment           0.00000000     0.00000000     0.79864635
 Dipole moment /Debye                   0.00000000     0.00000000     2.02995654

 Orbital energies:

           1.1          2.1          3.1          4.1          5.1
    -20.554118    -1.345911    -0.578460     0.140890     0.602597

           1.2          2.2          3.2
     -0.504695     0.784710     0.954021

           1.3          2.3          3.3
     -0.709372     0.204114     0.543563

           1.4          2.4
      0.861747     2.063451


 HOMO      1.2    -0.504695 =     -13.7334eV
 LUMO      4.1     0.140890 =       3.8338eV
 LUMO-HOMO         0.645584 =      17.5672eV

 Orbitals saved in record  2100.2


 **********************************************************************************************************************************
 DATASETS  * FILE   NREC   LENGTH (MB)   RECORD NAMES
              1      19       32.38       500      610      700      900      950      970     1000      129      960     1100   
                                          VAR    BASINP    GEOM    SYMINP    ZMAT    AOBASIS   BASIS     P2S    ABASIS      S 
                                         1400     1410     1200     1210     1080     1600     1650     1300     1700   
                                           T        V       H0       H01     AOSYM     SMH    MOLCAS    ERIS     OPER   

              2       4        0.42       700     1000      520     2100   
                                         GEOM     BASIS   MCVARS     RHF  

 PROGRAMS   *        TOTAL    HF-SCF       INT
 CPU TIMES  *         0.59      0.03      0.47
 REAL TIME  *         1.26 SEC
 DISK USED  *        46.62 MB
 **********************************************************************************************************************************

 Dump information in style XML to xml output                                                                      

 Orbitals will not be exported.

 **********************************************************************************************************************************

 HF/cc-pCVTZ energy=    -76.057348043640

          HF-SCF
    -76.05734804
 **********************************************************************************************************************************
 Molpro calculation terminated
