
 Working directory              : /tmp/peterk/molpro.6HCIcCToso/
 Global scratch directory       : /tmp/peterk/molpro.6HCIcCToso/
 Wavefunction directory         : /home/peterk/wfu/
 Main file repository           : /tmp/peterk/molpro.6HCIcCToso/

 id        : peterk

 Nodes     nprocs
 marat        1
 GA implementation: MPI file
 GA implementation (serial work in mppx): MPI file

 Using customized tuning parameters: mindgm=1; mindgv=20; mindgc=4; mindgr=1; noblas=0; minvec=7
 default implementation of scratch files=df  


 Variables initialized (1032), CPU time= 0.00 sec
 
 symmetry,nosym
 
 
 geometry={
            6
     F          0.00000000      0.00000000     -1.99680889
     C          0.00000000      0.00000000      0.05274751
     H         -0.53104260      0.91979276     -0.07385286
     H         -0.53104260     -0.91979276     -0.07385286
     H          1.06208520      0.00000000     -0.07385286
     CL         0.00000000      0.00000000      2.16561997
 }
 basis=cc-pVQZ
 
 charge=-1
 
 hf; hf; papt; mp4
 
 
 
 {put,xml;noorbitals,nobasis}
 Commands initialized (841), CPU time= 0.01 sec, 708 directives.
 Default parameters read. Elapsed time= 0.05 sec

 Checking input...
 Passed
1


                                         ***  PROGRAM SYSTEM MOLPRO  ***
                                       Copyright, TTI GmbH Stuttgart, 2015
                                    Version 2023.1 linked Sat Jun 10 08:01:27 2023


 **********************************************************************************************************************************
 LABEL *                                                                                                                                                                 
  (16 PROC) 64 bit serial version                                                        DATE: 11-Jun-23          TIME: 16:58:52  
 **********************************************************************************************************************************

 SHA1:             8376d659ba1296ca7ee514c57770fe2c96af278c
 **********************************************************************************************************************************

 Memory per process:      1074 MW
 Total memory per node:   1074 MW

 GA preallocation disabled
 GA check disabled

 Variable memory set to 1073.7 MW

 ZSYMEL=NOSYM


 Geometry recognized as XYZ

 SETTING BASIS          =    CC-PVQZ
 SETTING CHARGE         =        -1.00000000                                  


 Recomputing integrals since basis changed


 Using spherical harmonics

 Library entry F      S cc-pVQZ              selected for orbital group  1
 Library entry F      P cc-pVQZ              selected for orbital group  1
 Library entry F      D cc-pVQZ              selected for orbital group  1
 Library entry F      F cc-pVQZ              selected for orbital group  1
 Library entry F      G cc-pVQZ              selected for orbital group  1
 Library entry C      S cc-pVQZ              selected for orbital group  2
 Library entry C      P cc-pVQZ              selected for orbital group  2
 Library entry C      D cc-pVQZ              selected for orbital group  2
 Library entry C      F cc-pVQZ              selected for orbital group  2
 Library entry C      G cc-pVQZ              selected for orbital group  2
 Library entry H      S cc-pVQZ              selected for orbital group  3
 Library entry H      P cc-pVQZ              selected for orbital group  3
 Library entry H      D cc-pVQZ              selected for orbital group  3
 Library entry H      F cc-pVQZ              selected for orbital group  3
 Library entry CL     S cc-pVQZ              selected for orbital group  4
 Library entry CL     P cc-pVQZ              selected for orbital group  4
 Library entry CL     D cc-pVQZ              selected for orbital group  4
 Library entry CL     F cc-pVQZ              selected for orbital group  4
 Library entry CL     G cc-pVQZ              selected for orbital group  4


 PROGRAM * SEWARD (Integral evaluation for generally contracted gaussian basis sets)     Author: Roland Lindh, 1990

 Geometry written to block  1 of record 700


 Point group  C1  



 ATOMIC COORDINATES

 NR  ATOM    CHARGE       X              Y              Z

   1  F       9.00    0.000000000    0.000000000   -3.773421925
   2  C       6.00    0.000000000    0.000000000    0.099678348
   3  H       1.00   -1.003525075    1.738156408   -0.139561679
   4  H       1.00   -1.003525075   -1.738156408   -0.139561679
   5  H       1.00    2.007050149    0.000000000   -0.139561679
   6  CL     17.00    0.000000000    0.000000000    4.092428633

 Bond lengths in Bohr (Angstrom)

 2-3  2.021258535  2-4  2.021258535  2-5  2.021258541  2-6  3.992750286
     ( 1.069603954)     ( 1.069603954)     ( 1.069603957)     ( 2.112872460)

 Bond angles

  3-2-4  118.61917631   3-2-5  118.61917664   3-2-6   96.79757334   4-2-5  118.61917664

  4-2-6   96.79757334   5-2-6   96.79757331

 NUCLEAR CHARGE:                   35
 NUMBER OF PRIMITIVE AOS:         379
 NUMBER OF SYMMETRY AOS:          319
 NUMBER OF CONTRACTIONS:          259   (  259A   )
 NUMBER OF INNER CORE ORBITALS:     1   (    1A   )
 NUMBER OF OUTER CORE ORBITALS:     6   (    6A   )
 NUMBER OF VALENCE ORBITALS:       15   (   15A   )


 NUCLEAR REPULSION ENERGY   86.10071454


 Eigenvalues of metric

         1 0.146E-03 0.213E-03 0.255E-03 0.255E-03 0.313E-03 0.408E-03 0.408E-03 0.434E-03


 Contracted 2-electron integrals neglected if value below      1.0D-11
 AO integral compression algorithm  1   Integral accuracy      1.0D-11

     1559.233 MB (compressed) written to integral file ( 30.6%)


 NUMBER OF SORTED TWO-ELECTRON INTEGRALS:  566851285.     BUFFER LENGTH:  32768
 NUMBER OF SEGMENTS:  36  SEGMENT LENGTH:   15999762      RECORD LENGTH: 262144

 Memory used in sort:      16.29 MW

 SORT1 READ   637873682. AND WROTE   377002404. INTEGRALS IN   2176 RECORDS. CPU TIME:     4.31 SEC, REAL TIME:     7.08 SEC
 SORT2 READ   377002404. AND WROTE   566851285. INTEGRALS IN   5948 RECORDS. CPU TIME:     4.09 SEC, REAL TIME:     5.38 SEC

 FILE SIZES:   FILE 1:  1591.8 MBYTE,  FILE 4:  4563.5 MBYTE,   TOTAL:   6155.3 MBYTE

 OPERATOR DM      FOR CENTER  0  COORDINATES:    0.000000    0.000000    0.000000


 **********************************************************************************************************************************
 DATASETS  * FILE   NREC   LENGTH (MB)   RECORD NAMES
              1      19     1334.18       500      610      700      900      950      970     1000      129      960     1100   
                                          VAR    BASINP    GEOM    SYMINP    ZMAT    AOBASIS   BASIS     P2S    ABASIS      S 
                                         1400     1410     1200     1210     1080     1600     1650     1300     1700   
                                           T        V       H0       H01     AOSYM     SMH    MOLCAS    ERIS     OPER   

 PROGRAMS   *        TOTAL       INT
 CPU TIMES  *        24.97     24.84
 REAL TIME  *        31.50 SEC
 DISK USED  *         5.73 GB
 **********************************************************************************************************************************


 Program * Restricted Hartree-Fock

 Orbital guess generated from atomic densities. Full valence occupancy:   22

 Initial occupancy:  18

 NELEC=   36   SYM=1   MS2= 0   THRE=1.0D-08   THRD=3.2D-06   THRG=3.2D-06  HFMA2=F  DIIS_START=2   DIIS_MAX=10   DIIS_INCORE=F

 Level shifts:    0.00 (CLOSED)    0.00 (OPEN)    0.30 (GAP_MIN)

 ITER           ETOT              DE          GRAD        DDIFF     DIIS  NEXP   TIME(IT)  TIME(TOT)  DIAG
   1     -598.52544078    -598.52544078     0.00D+00     0.46D-01     0     0       3.32      6.46    start
   2     -598.57831866      -0.05287788     0.51D-02     0.64D-02     1     0       3.29      9.75    diag
   3     -598.62156850      -0.04324984     0.43D-02     0.25D-02     2     0       3.23     12.98    diag
   4     -598.62279451      -0.00122601     0.34D-03     0.58D-03     3     0       3.16     16.14    diag
   5     -598.62295634      -0.00016183     0.13D-03     0.29D-03     4     0       3.20     19.34    diag
   6     -598.62298210      -0.00002576     0.45D-04     0.95D-04     5     0       3.28     22.62    diag
   7     -598.62298468      -0.00000259     0.14D-04     0.35D-04     6     0       3.29     25.91    diag
   8     -598.62298489      -0.00000021     0.43D-05     0.83D-05     7     0       3.30     29.21    fixocc
   9     -598.62298491      -0.00000002     0.13D-05     0.29D-05     8     0       3.28     32.49    diag
  10     -598.62298491      -0.00000000     0.31D-06     0.68D-06     9     0       3.26     35.75    diag/orth
  11     -598.62298491      -0.00000000     0.10D-06     0.15D-06     0     0       3.24     38.99    diag

 Final occupancy:  18

 !RHF STATE 1.1 Energy               -598.622984912922
  RHF One-electron energy           -1008.306759744392
  RHF Two-electron energy             323.583060287635
  RHF Kinetic energy                  598.672148441883
  RHF Nuclear energy                   86.100714543835
  RHF Virial quotient                  -0.999917879044

 !RHF STATE 1.1 Dipole moment          -0.00000001    -0.00000000     0.39979207
 Dipole moment /Debye                  -0.00000002    -0.00000000     1.01617007

 Orbital energies:

           1.1          2.1          3.1          4.1          5.1          6.1          7.1          8.1          9.1         10.1
   -104.601310   -25.898235   -11.136594   -10.327491    -7.794160    -7.793425    -7.793425    -1.163159    -0.874777    -0.743662

          11.1         12.1         13.1         14.1         15.1         16.1         17.1         18.1         19.1         20.1
     -0.450135    -0.450135    -0.315034    -0.264629    -0.264629    -0.240422    -0.240422    -0.218684     0.271861     0.338647


 HOMO     18.1    -0.218684 =      -5.9507eV
 LUMO     19.1     0.271861 =       7.3977eV
 LUMO-HOMO         0.490545 =      13.3484eV

 Orbitals saved in record  2100.2


 **********************************************************************************************************************************
 DATASETS  * FILE   NREC   LENGTH (MB)   RECORD NAMES
              1      19     1334.18       500      610      700      900      950      970     1000      129      960     1100   
                                          VAR    BASINP    GEOM    SYMINP    ZMAT    AOBASIS   BASIS     P2S    ABASIS      S 
                                         1400     1410     1200     1210     1080     1600     1650     1300     1700   
                                           T        V       H0       H01     AOSYM     SMH    MOLCAS    ERIS     OPER   

              2       4        1.53       700     1000      520     2100   
                                         GEOM     BASIS   MCVARS     RHF  

 PROGRAMS   *        TOTAL    HF-SCF       INT
 CPU TIMES  *        63.97     38.99     24.84
 REAL TIME  *        72.62 SEC
 DISK USED  *         5.73 GB
 **********************************************************************************************************************************


 Program * Restricted Hartree-Fock

 Molecular orbitals read from record     2100.2  Type=RHF/CANONICAL  

 Initial occupancy:  18

 NELEC=   36   SYM=1   MS2= 0   THRE=1.0D-08   THRD=3.2D-06   THRG=3.2D-06  HFMA2=F  DIIS_START=2   DIIS_MAX=10   DIIS_INCORE=F

 Level shifts:    0.00 (CLOSED)    0.00 (OPEN)    0.30 (GAP_MIN)

 ITER           ETOT              DE          GRAD        DDIFF     DIIS  NEXP   TIME(IT)  TIME(TOT)  DIAG
   1     -598.62298491    -598.62298491     0.00D+00     0.45D-01     0     0       3.25      3.25    start
   2     -598.62298491      -0.00000000     0.50D-07     0.72D-07     1     0       3.23      6.48    diag

 Final occupancy:  18

 !RHF STATE 1.1 Energy               -598.622984912947
  RHF One-electron energy           -1008.306760492416
  RHF Two-electron energy             323.583061035635
  RHF Kinetic energy                  598.672155805207
  RHF Nuclear energy                   86.100714543835
  RHF Virial quotient                  -0.999917866746

 !RHF STATE 1.1 Dipole moment          -0.00000001     0.00000000     0.39978071
 Dipole moment /Debye                  -0.00000002     0.00000000     1.01614120

 Orbital energies:

           1.1          2.1          3.1          4.1          5.1          6.1          7.1          8.1          9.1         10.1
   -104.601308   -25.898238   -11.136593   -10.327489    -7.794158    -7.793423    -7.793423    -1.163160    -0.874776    -0.743661

          11.1         12.1         13.1         14.1         15.1         16.1         17.1         18.1         19.1         20.1
     -0.450134    -0.450134    -0.315034    -0.264631    -0.264631    -0.240421    -0.240421    -0.218684     0.271861     0.338648


 HOMO     18.1    -0.218684 =      -5.9507eV
 LUMO     19.1     0.271861 =       7.3977eV
 LUMO-HOMO         0.490545 =      13.3484eV

 Orbitals saved in record  2101.2


 **********************************************************************************************************************************
 DATASETS  * FILE   NREC   LENGTH (MB)   RECORD NAMES
              1      19     1334.18       500      610      700      900      950      970     1000      129      960     1100   
                                          VAR    BASINP    GEOM    SYMINP    ZMAT    AOBASIS   BASIS     P2S    ABASIS      S 
                                         1400     1410     1200     1210     1080     1600     1650     1300     1700   
                                           T        V       H0       H01     AOSYM     SMH    MOLCAS    ERIS     OPER   

              2       5        3.43       700     1000      520     2100     2101   
                                         GEOM     BASIS   MCVARS     RHF      RHF  

 PROGRAMS   *        TOTAL    HF-SCF    HF-SCF       INT
 CPU TIMES  *        70.46      6.49     38.99     24.84
 REAL TIME  *        79.52 SEC
 DISK USED  *         5.73 GB
 **********************************************************************************************************************************


 PROGRAM * PAPT (Closed-shell)     Authors: C. Hampel, H.-J. Werner, 1991, P.J. Knowles, 2021


 Convergence thresholds:  THRVAR = 1.00D-08  THRDEN = 1.00D-06

 Number of core orbitals:           7 (   7 )
 Number of closed-shell orbitals:  11 (  11 )
 Number of external orbitals:     241 ( 241 )

 Molecular orbitals read from record     2101.2  Type=RHF/CANONICAL  

 Number of N-1 electron functions:              11
 Number of N-2 electron functions:              66
 Number of singly external CSFs:              2651
 Number of doubly external CSFs:           3515226
 Total number of CSFs:                     3517878

 Length of J-op  integral file:               0.00 MB
 Length of K-op  integral file:               4.67 MB

 Integral transformation finished. Total CPU:   7.12 sec, npass=  1  Memory used:   8.84 MW

 Reference energy:                   -598.62298491

                        CORR.ENERGY   TOTAL ENERGY   ENERGY CHANGE
 MP2:                   -0.71097305  -599.33395797    -0.71097305

 SCS-MP2 correlation energy:           -0.70815788   (PS=  1.200000  PT=  0.333333)
 SCS-MP2 total energy:               -599.33114280
 Iteration:   1     0.3090D+00
 Iteration:   2     0.3146D+00
 Iteration:   3     0.2686D+00
 Iteration:   4     0.1583D+00
 Iteration:   5     0.1819D+01
 Iteration:   6     0.1046D+00
 Iteration:   7     0.9680D-01
 Iteration:   8     0.8397D-01
 Iteration:   9     0.3350D-01
 Iteration:  10     0.1583D+00
 Iteration:  11     0.1710D-01
 Iteration:  12     0.2043D-01
 Iteration:  13     0.1189D-01
 Iteration:  14     0.6221D-02
 Iteration:  15     0.5171D-02
 Iteration:  16     0.1273D-02
 Iteration:  17     0.8083D-02
 Iteration:  18     0.3222D-03
 Iteration:  19     0.2637D-03
 Iteration:  20     0.6545D-03
 Iteration:  21     0.6693D-04
 PAPT operator written to  7000.1
 PAPT orbitals and eigenvalues written to  7000.2

 MP3(D):                -0.72990646  -599.35289138    -0.01893341



 RESULTS
 =======

  Reference energy                   -598.622984912947
  MP3 singlet pair energy              -0.494745081218
  MP3 triplet pair energy              -0.235161381973
  MP3 correlation energy               -0.729906463192

 !MP3 total energy                   -599.352891376138

 Timing summary (sec):

 STEP                 CPU(USER)    SYS     CPU(TOT)    WALL
 Transformation          7.33      0.29      7.62      7.62
 CCSD iterations       101.25      0.46    101.71     30.91

 Program statistics:

 Available memory in ccsd:              1073741322
 Min. memory needed in ccsd:               9362003
 Max. memory used in ccsd:                12460109
 Max. memory used in cckext:               9425799 ( 1 integral passes)



 **********************************************************************************************************************************
 DATASETS  * FILE   NREC   LENGTH (MB)   RECORD NAMES
              1      21     1386.19       500      610      700      900      950      970     1000      129      960     1100   
                                          VAR    BASINP    GEOM    SYMINP    ZMAT    AOBASIS   BASIS     P2S    ABASIS      S 
                                         1400     1410     1200     1210     1080     1600     1650     1300     1700     1380   
                                           T        V       H0       H01     AOSYM     SMH    MOLCAS    ERIS     OPER     JKOP   
                                         7000   
                                        PAPT AO    

              2       6        5.07       700     1000      520     2100     2101     7000   
                                         GEOM     BASIS   MCVARS     RHF      RHF     PAPT   

 PROGRAMS   *        TOTAL      PAPT    HF-SCF    HF-SCF       INT
 CPU TIMES  *       108.27     37.81      6.49     38.99     24.84
 REAL TIME  *       118.10 SEC
 DISK USED  *         5.73 GB
 **********************************************************************************************************************************


 PROGRAM * MP4 (Closed-shell)     Authors: C. Hampel, H.-J. Werner, 1991, M. Deegan, P.J. Knowles, 1992


 Convergence thresholds:  THRVAR = 1.00D-08  THRDEN = 1.00D-06

 MP4(T)     terms to be evaluated (factor= 0.000)


 Number of core orbitals:           7 (   7 )
 Number of closed-shell orbitals:  11 (  11 )
 Number of external orbitals:     241 ( 241 )

 Molecular orbitals read from record     7000.2  Type=PAPT/CANONICAL (state 1.1)

 Number of N-1 electron functions:              11
 Number of N-2 electron functions:              66
 Number of singly external CSFs:              2651
 Number of doubly external CSFs:           3515226
 Total number of CSFs:                     3517878

 Length of J-op  integral file:               0.00 MB
 Length of K-op  integral file:               4.67 MB

 Memory could be reduced to 198.35 Mwords without degradation in triples

 Integral transformation finished. Total CPU:  16.66 sec, npass=  1  Memory used: 113.49 MW
 Orbital energies read from record       7000.2  Type=PAPT/CANONICAL (state 1.1)

 Reference energy:                   -598.62298491

                        CORR.ENERGY   TOTAL ENERGY   ENERGY CHANGE
 MP2:                   -0.73760167  -599.36058658    -0.73760167

 SCS-MP2 correlation energy:           -0.73709301   (PS=  1.200000  PT=  0.333333)
 SCS-MP2 total energy:               -599.36007792

 MP3(D):                -0.73749084  -599.36047576     0.00011083
 MP4(DQ):               -0.72733312  -599.35031803     0.01015772
 MP4(SDQ):              -0.73281950  -599.35580441    -0.00548638

 Norm of t1 vector:      0.06887889      S-energy:    -0.00548638      T1 diagnostic:  0.01038388

 Largest off-diagonal element in interal  block of Fock matrix:  0.89D-01
 Largest off-diagonal element in external block of Fock matrix:  0.98D+00


 Total CPU time for triples:    319.40 sec


 RESULTS
 =======

  Reference energy                   -598.622984912947
  MP4(SDQ) singlet pair energy         -0.494066359278
  MP4(SDQ) triplet pair energy         -0.233266761893
  MP4(SDQ) correlation energy          -0.732819499835

  Triples contribution                 -0.033043008379
  Total correlation energy             -0.765862508214

  MP4(SDQ) total energy              -599.355804412781
 !MP4(SDTQ) total energy             -599.388847421160

 Timing summary (sec):

 STEP                 CPU(USER)    SYS     CPU(TOT)    WALL
 Transformation         20.23      1.61     21.84     21.83
 CCSD iterations       131.90      0.27    132.17     23.58
 Triples               319.40      6.00    325.40    325.49

 Program statistics:

 Available memory in ccsd:              1073741322
 Min. memory needed in ccsd:               9362003
 Max. memory used in ccsd:                12460109
 Max. memory used in cckext:               9425799 ( 1 integral passes)



 **********************************************************************************************************************************
 DATASETS  * FILE   NREC   LENGTH (MB)   RECORD NAMES
              1      22     1975.99       500      610      700      900      950      970     1000      129      960     1100   
                                          VAR    BASINP    GEOM    SYMINP    ZMAT    AOBASIS   BASIS     P2S    ABASIS      S 
                                         1400     1410     1200     1210     1080     1600     1650     1300     1700     1380   
                                           T        V       H0       H01     AOSYM     SMH    MOLCAS    ERIS     OPER     JKOP   
                                         7000     1380(1)
                                        PAPT AO   JKOP   

              2       6        5.07       700     1000      520     2100     2101     7000   
                                         GEOM     BASIS   MCVARS     RHF      RHF     PAPT   

 PROGRAMS   *        TOTAL       MP4      PAPT    HF-SCF    HF-SCF       INT
 CPU TIMES  *       471.22    362.95     37.81      6.49     38.99     24.84
 REAL TIME  *       489.08 SEC
 DISK USED  *         5.73 GB
 **********************************************************************************************************************************

 Dump information in style XML to xml output                                                                      

 Orbitals will not be exported.

 **********************************************************************************************************************************

 MP4/cc-pVQZ energy=   -599.388847421160

             MP4            PAPT          HF-SCF          HF-SCF
   -599.38884742   -599.35289138   -598.62298491   -598.62298491
 **********************************************************************************************************************************
 Molpro calculation terminated
