
 Working directory              : /var/folders/2v/xbgp75_9785319ghcgb4zr4r0000gp/T//molpro.51B7KVj8fW/
 Global scratch directory       : /var/folders/2v/xbgp75_9785319ghcgb4zr4r0000gp/T//molpro.51B7KVj8fW/
 Wavefunction directory         : /Users/sacpjk/wfu/
 Main file repository           : /var/folders/2v/xbgp75_9785319ghcgb4zr4r0000gp/T//molpro.51B7KVj8fW/

 id        : peterk

 Nodes                        nprocs
 Cardiff-University-G34YLXT77Y    1
 GA implementation: MPI file
 GA implementation (serial work in mppx): MPI file

 Using customized tuning parameters: mindgm=1; mindgv=20; mindgc=4; mindgr=1; noblas=0; minvec=7
 default implementation of scratch files=df  


 Variables initialized (1032), CPU time= 0.00 sec
 
 symmetry,nosym
 
 
 geometry={
            8
     N         -0.77907197      0.10994832      0.00000000
     N         -0.03149962      0.01698457      1.22272462
     N         -0.03149962      0.01698457     -1.22272462
     H          0.73807619     -0.65953384     -1.13084901
     H          0.38903766      0.93051636     -1.38896889
     H          0.73807619     -0.65953384      1.13084901
     H          0.38903766      0.93051636      1.38896889
     H         -1.41215648     -0.68588250      0.00000000
 }
 basis=cc-pVDZ
 
 
 
 hf; mp4
 
 
 
 {put,xml;noorbitals,nobasis}
 Commands initialized (841), CPU time= 0.01 sec, 704 directives.
 Default parameters read. Elapsed time= 1.71 sec

 Checking input...
 Passed
1


                                         ***  PROGRAM SYSTEM MOLPRO  ***
                                       Copyright, TTI GmbH Stuttgart, 2015
                                    Version 2023.1 linked Tue Jun  6 09:54:11 2023


 **********************************************************************************************************************************
 LABEL *                                                                                                                                                                 
  64 bit serial version                                                                  DATE: 13-Jun-23          TIME: 00:08:01  
 **********************************************************************************************************************************

 SHA1:             8ebb0dd001088a5c915591db1a321413035db0b1
 **********************************************************************************************************************************

 Memory per process:       393 MW
 Total memory per node:    524 MW
 Total GA space:           131 MW

 GA preallocation disabled
 GA check enabled

 Variable memory set to 393.2 MW

 ZSYMEL=NOSYM


 Geometry recognized as XYZ

 SETTING BASIS          =    CC-PVDZ


 Recomputing integrals since basis changed


 Using spherical harmonics

 Library entry N      S cc-pVDZ              selected for orbital group  1
 Library entry N      P cc-pVDZ              selected for orbital group  1
 Library entry N      D cc-pVDZ              selected for orbital group  1
 Library entry H      S cc-pVDZ              selected for orbital group  2
 Library entry H      P cc-pVDZ              selected for orbital group  2


 PROGRAM * SEWARD (Integral evaluation for generally contracted gaussian basis sets)     Author: Roland Lindh, 1990

 Geometry written to block  1 of record 700


 Point group  C1  



 ATOMIC COORDINATES

 NR  ATOM    CHARGE       X              Y              Z

   1  N       7.00   -1.472232655    0.207772213    0.000000000
   2  N       7.00   -0.059525655    0.032096186    2.310614658
   3  N       7.00   -0.059525655    0.032096186   -2.310614658
   4  H       1.00    1.394761858   -1.246338328   -2.136994917
   5  H       1.00    0.735174630    1.758421075   -2.624770798
   6  H       1.00    1.394761858   -1.246338328    2.136994917
   7  H       1.00    0.735174630    1.758421075    2.624770798
   8  H       1.00   -2.668588992   -1.296130079    0.000000000

 Bond lengths in Bohr (Angstrom)

 1-2  2.713953432  1-3  2.713953432  1-8  1.921715533  2-6  1.944091250  2-7  1.926250307
     ( 1.436162308)     ( 1.436162308)     ( 1.016928066)     ( 1.028768786)     ( 1.019327765)

 3-4  1.944091250  3-5  1.926250307
     ( 1.028768786)     ( 1.019327765)

 Bond angles

  1-2-6  110.84993942   1-2-7  107.19322767   1-3-4  110.84993942   1-3-5  107.19322767

  2-1-3  116.72489227   2-1-8  105.86666820   3-1-8  105.86666820   4-3-5  107.17509527

  6-2-7  107.17509527

 NUCLEAR CHARGE:                   26
 NUMBER OF PRIMITIVE AOS:         116
 NUMBER OF SYMMETRY AOS:          113
 NUMBER OF CONTRACTIONS:           67   (   67A   )
 NUMBER OF INNER CORE ORBITALS:     0   (    0A   )
 NUMBER OF OUTER CORE ORBITALS:     3   (    3A   )
 NUMBER OF VALENCE ORBITALS:       17   (   17A   )


 NUCLEAR REPULSION ENERGY   83.69244272


 Eigenvalues of metric

         1 0.550E-02 0.928E-02 0.213E-01 0.314E-01 0.337E-01 0.392E-01 0.397E-01 0.444E-01


 Contracted 2-electron integrals neglected if value below      1.0D-11
 AO integral compression algorithm  1   Integral accuracy      1.0D-11

     13.107 MB (compressed) written to integral file ( 54.3%)


 NUMBER OF SORTED TWO-ELECTRON INTEGRALS:    2595781.     BUFFER LENGTH:  32768
 NUMBER OF SEGMENTS:   1  SEGMENT LENGTH:    2595781      RECORD LENGTH: 524288

 Memory used in sort:       3.15 MW

 SORT1 READ     2997588. AND WROTE     2516703. INTEGRALS IN      8 RECORDS. CPU TIME:     0.02 SEC, REAL TIME:     0.03 SEC
 SORT2 READ     2516703. AND WROTE     2595781. INTEGRALS IN     50 RECORDS. CPU TIME:     0.04 SEC, REAL TIME:     0.04 SEC

 FILE SIZES:   FILE 1:    43.4 MBYTE,  FILE 4:    33.6 MBYTE,   TOTAL:     77.0 MBYTE

 OPERATOR DM      FOR CENTER  0  COORDINATES:    0.000000    0.000000    0.000000


 **********************************************************************************************************************************
 DATASETS  * FILE   NREC   LENGTH (MB)   RECORD NAMES
              1      19       39.59       500      610      700      900      950      970     1000      129      960     1100   
                                          VAR    BASINP    GEOM    SYMINP    ZMAT    AOBASIS   BASIS     P2S    ABASIS      S 
                                         1400     1410     1200     1210     1080     1600     1650     1300     1700   
                                           T        V       H0       H01     AOSYM     SMH    MOLCAS    ERIS     OPER   

 PROGRAMS   *        TOTAL       INT
 CPU TIMES  *         0.33      0.24
 REAL TIME  *         3.75 SEC
 DISK USED  *        73.88 MB
 **********************************************************************************************************************************


 Program * Restricted Hartree-Fock

 Orbital guess generated from atomic densities. Full valence occupancy:   20

 Initial occupancy:  13

 NELEC=   26   SYM=1   MS2= 0   THRE=1.0D-08   THRD=3.2D-06   THRG=3.2D-06  HFMA2=F  DIIS_START=2   DIIS_MAX=10   DIIS_INCORE=F

 Level shifts:    0.00 (CLOSED)    0.00 (OPEN)    0.30 (GAP_MIN)

 ITER           ETOT              DE          GRAD        DDIFF     DIIS  NEXP   TIME(IT)  TIME(TOT)  DIAG
   1     -166.14888538    -166.14888538     0.00D+00     0.14D+00     0     0       0.01      0.02    start
   2     -166.18575539      -0.03687001     0.72D-02     0.14D-01     1     0       0.01      0.03    diag
   3     -166.18863606      -0.00288067     0.21D-02     0.37D-02     2     0       0.02      0.05    diag
   4     -166.18906623      -0.00043017     0.73D-03     0.13D-02     3     0       0.01      0.06    diag
   5     -166.18910378      -0.00003755     0.21D-03     0.38D-03     4     0       0.01      0.07    diag
   6     -166.18910650      -0.00000272     0.39D-04     0.98D-04     5     0       0.01      0.08    diag
   7     -166.18910682      -0.00000032     0.15D-04     0.33D-04     6     0       0.01      0.09    diag
   8     -166.18910687      -0.00000004     0.44D-05     0.14D-04     7     0       0.01      0.10    fixocc
   9     -166.18910687      -0.00000000     0.83D-06     0.26D-05     8     0       0.01      0.11    diag
  10     -166.18910687      -0.00000000     0.15D-06     0.34D-06     0     0       0.02      0.13    diag/orth

 Final occupancy:  13

 !RHF STATE 1.1 Energy               -166.189106869311
  RHF One-electron energy            -391.789766036220
  RHF Two-electron energy             141.908216451686
  RHF Kinetic energy                  165.882039156989
  RHF Nuclear energy                   83.692442715223
  RHF Virial quotient                  -1.001851120916

 !RHF STATE 1.1 Dipole moment           0.98136227    -0.16921709     0.00000000
 Dipole moment /Debye                   2.49437409    -0.43010694     0.00000000

 Orbital energies:

           1.1          2.1          3.1          4.1          5.1          6.1          7.1          8.1          9.1         10.1
    -15.600887   -15.575682   -15.575641    -1.303304    -1.133199    -0.954802    -0.701647    -0.650257    -0.623754    -0.618361

          11.1         12.1         13.1         14.1         15.1
     -0.452321    -0.403210    -0.393603     0.174886     0.222596


 HOMO     13.1    -0.393603 =     -10.7105eV
 LUMO     14.1     0.174886 =       4.7589eV
 LUMO-HOMO         0.568489 =      15.4694eV

 Orbitals saved in record  2100.2


 **********************************************************************************************************************************
 DATASETS  * FILE   NREC   LENGTH (MB)   RECORD NAMES
              1      19       39.59       500      610      700      900      950      970     1000      129      960     1100   
                                          VAR    BASINP    GEOM    SYMINP    ZMAT    AOBASIS   BASIS     P2S    ABASIS      S 
                                         1400     1410     1200     1210     1080     1600     1650     1300     1700   
                                           T        V       H0       H01     AOSYM     SMH    MOLCAS    ERIS     OPER   

              2       4        0.57       700     1000      520     2100   
                                         GEOM     BASIS   MCVARS     RHF  

 PROGRAMS   *        TOTAL    HF-SCF       INT
 CPU TIMES  *         0.46      0.13      0.24
 REAL TIME  *         4.77 SEC
 DISK USED  *        73.88 MB
 **********************************************************************************************************************************


 PROGRAM * MP4 (Closed-shell)     Authors: C. Hampel, H.-J. Werner, 1991, M. Deegan, P.J. Knowles, 1992


 Convergence thresholds:  THRVAR = 1.00D-08  THRDEN = 1.00D-06

 MP4(T)     terms to be evaluated (factor= 0.000)


 Number of core orbitals:           3 (   3 )
 Number of closed-shell orbitals:  10 (  10 )
 Number of external orbitals:      54 (  54 )

 Molecular orbitals read from record     2100.2  Type=RHF/CANONICAL  

 Number of N-1 electron functions:              10
 Number of N-2 electron functions:              55
 Number of singly external CSFs:               540
 Number of doubly external CSFs:            146070
 Total number of CSFs:                      146611

 Length of J-op  integral file:               0.00 MB
 Length of K-op  integral file:               0.37 MB

 Memory could be reduced to 2.44 Mwords without degradation in triples

 Integral transformation finished. Total CPU:   0.05 sec, npass=  1  Memory used:   2.23 MW

 Reference energy:                   -166.18910687

                        CORR.ENERGY   TOTAL ENERGY   ENERGY CHANGE
 MP2:                   -0.52054841  -166.70965528    -0.52054841

 SCS-MP2 correlation energy:           -0.51292830   (PS=  1.200000  PT=  0.333333)
 SCS-MP2 total energy:               -166.70203517

 MP3(D):                -0.54604059  -166.73514746    -0.02549218
 MP4(DQ):               -0.54887547  -166.73798234    -0.00283487
 MP4(SDQ):              -0.55192797  -166.74103484    -0.00305250

 Norm of t1 vector:      0.04332809      S-energy:    -0.00305250      T1 diagnostic:  0.00685077


 Total CPU time for triples:      0.44 sec


 RESULTS
 =======

  Reference energy                   -166.189106869311
  MP4(SDQ) singlet pair energy         -0.367742735505
  MP4(SDQ) triplet pair energy         -0.181132731596
  MP4(SDQ) correlation energy          -0.551927965895

  Triples contribution                 -0.014637538815
  Total correlation energy             -0.566565504710

  MP4(SDQ) total energy              -166.741034835206
 !MP4(SDTQ) total energy             -166.755672374021

 Timing summary (sec):

 STEP                 CPU(USER)    SYS     CPU(TOT)    WALL
 Transformation          0.05      0.01      0.06      0.12
 CCSD iterations         0.72      0.00      0.72      0.58
 Triples                 0.44      0.04      0.48      0.50

 Program statistics:

 Available memory in ccsd:               393215587
 Min. memory needed in ccsd:                450951
 Max. memory used in ccsd:                  566981
 Max. memory used in cckext:                565726 ( 1 integral passes)



 **********************************************************************************************************************************
 DATASETS  * FILE   NREC   LENGTH (MB)   RECORD NAMES
              1      20       48.62       500      610      700      900      950      970     1000      129      960     1100   
                                          VAR    BASINP    GEOM    SYMINP    ZMAT    AOBASIS   BASIS     P2S    ABASIS      S 
                                         1400     1410     1200     1210     1080     1600     1650     1300     1700     1380   
                                           T        V       H0       H01     AOSYM     SMH    MOLCAS    ERIS     OPER     JKOP   

              2       4        0.57       700     1000      520     2100   
                                         GEOM     BASIS   MCVARS     RHF  

 PROGRAMS   *        TOTAL       MP4    HF-SCF       INT
 CPU TIMES  *         1.13      0.67      0.13      0.24
 REAL TIME  *         6.49 SEC
 DISK USED  *        73.88 MB
 **********************************************************************************************************************************

 Dump information in style XML to xml output                                                                      

 Orbitals will not be exported.

 **********************************************************************************************************************************

 MP4/cc-pVDZ energy=   -166.755672374021

             MP4          HF-SCF
   -166.75567237   -166.18910687
 **********************************************************************************************************************************
 Molpro calculation terminated
