
 Working directory              : /var/folders/2v/xbgp75_9785319ghcgb4zr4r0000gp/T//molpro.VeIJMXXvTA/
 Global scratch directory       : /var/folders/2v/xbgp75_9785319ghcgb4zr4r0000gp/T//molpro.VeIJMXXvTA/
 Wavefunction directory         : /Users/sacpjk/wfu/
 Main file repository           : /var/folders/2v/xbgp75_9785319ghcgb4zr4r0000gp/T//molpro.VeIJMXXvTA/

 id        : peterk

 Nodes                        nprocs
 Cardiff-University-G34YLXT77Y    1
 GA implementation: MPI file
 GA implementation (serial work in mppx): MPI file

 Using customized tuning parameters: mindgm=1; mindgv=20; mindgc=4; mindgr=1; noblas=0; minvec=7
 default implementation of scratch files=df  


 Variables initialized (1032), CPU time= 0.00 sec
 
 symmetry,nosym
 
 
 geometry={
           12
     C         -1.11892819     -0.39300694      0.06045902
     C         -1.06961559      0.98569179     -0.03334154
     O          1.04351911      1.35627307     -0.21429353
     N          1.47852950      0.22573745      0.22941624
     C          0.95782302     -0.89868106     -0.27213199
     H         -1.24594514     -0.86133041      1.03067153
     H         -1.48801729     -0.97414862     -0.77721283
     H         -1.09461977      1.61014793      0.84916022
     H         -1.26644925      1.48844296     -0.97025939
     H          1.75317167      0.20428368      1.21443326
     H          0.82089701     -0.92013135     -1.34318470
     H          1.22963493     -1.82327849      0.22628373
 }
 basis=cc-pVTZ
 
 
 
 hf; mp4
 
 
 
 {put,xml;noorbitals,nobasis}
 Commands initialized (841), CPU time= 0.01 sec, 704 directives.
 Default parameters read. Elapsed time= 0.08 sec

 Checking input...
 Passed
1


                                         ***  PROGRAM SYSTEM MOLPRO  ***
                                       Copyright, TTI GmbH Stuttgart, 2015
                                    Version 2023.1 linked Tue Jun  6 09:54:11 2023


 **********************************************************************************************************************************
 LABEL *                                                                                                                                                                 
  64 bit serial version                                                                  DATE: 10-Jun-23          TIME: 21:51:32  
 **********************************************************************************************************************************

 SHA1:             8ebb0dd001088a5c915591db1a321413035db0b1
 **********************************************************************************************************************************

 Memory per process:       805 MW
 Total memory per node:   1074 MW
 Total GA space:           268 MW

 GA preallocation disabled
 GA check enabled

 Variable memory set to 805.3 MW

 ZSYMEL=NOSYM


 Geometry recognized as XYZ

 SETTING BASIS          =    CC-PVTZ


 Recomputing integrals since basis changed


 Using spherical harmonics

 Library entry C      S cc-pVTZ              selected for orbital group  1
 Library entry C      P cc-pVTZ              selected for orbital group  1
 Library entry C      D cc-pVTZ              selected for orbital group  1
 Library entry C      F cc-pVTZ              selected for orbital group  1
 Library entry O      S cc-pVTZ              selected for orbital group  2
 Library entry O      P cc-pVTZ              selected for orbital group  2
 Library entry O      D cc-pVTZ              selected for orbital group  2
 Library entry O      F cc-pVTZ              selected for orbital group  2
 Library entry N      S cc-pVTZ              selected for orbital group  3
 Library entry N      P cc-pVTZ              selected for orbital group  3
 Library entry N      D cc-pVTZ              selected for orbital group  3
 Library entry N      F cc-pVTZ              selected for orbital group  3
 Library entry H      S cc-pVTZ              selected for orbital group  5
 Library entry H      P cc-pVTZ              selected for orbital group  5
 Library entry H      D cc-pVTZ              selected for orbital group  5


 PROGRAM * SEWARD (Integral evaluation for generally contracted gaussian basis sets)     Author: Roland Lindh, 1990

 Geometry written to block  1 of record 700


 Point group  C1  



 ATOMIC COORDINATES

 NR  ATOM    CHARGE       X              Y              Z

   1  C       6.00   -2.114467832   -0.742675482    0.114250990
   2  C       6.00   -2.021280524    1.862687526   -0.063006379
   3  O       8.00    1.971965324    2.562984653   -0.404956082
   4  N       7.00    2.794015822    0.426581957    0.433533862
   5  C       6.00    1.810023184   -1.698261077   -0.514254931
   6  H       1.00   -2.354495081   -1.627678578    1.947686916
   7  H       1.00   -2.811945147   -1.840874096   -1.468719389
   8  H       1.00   -2.068531576    3.042738608    1.604680252
   9  H       1.00   -2.393242233    2.812749547   -1.833524517
  10  H       1.00    3.313014306    0.386040207    2.294946258
  11  H       1.00    1.551270525   -1.738796250   -2.538251218
  12  H       1.00    2.323673251   -3.445496995    0.427614276

 Bond lengths in Bohr (Angstrom)

 1-2  2.613048115  1-6  2.049958745  1-7  2.048977799  2-8  2.043509705  2-9  2.043454876
     ( 1.382765514)     ( 1.084791451)     ( 1.084272357)     ( 1.081378766)     ( 1.081349752)

  3- 4  2.437836928   4- 5  2.526163697   4-10  1.932837077   5-11  2.040871629   5-12  2.050313963
       ( 1.290047746)       ( 1.336788260)       ( 1.022813334)       ( 1.079982757)       ( 1.084979425)

 Bond angles

  1-2-8  121.30409335   1-2-9  121.05397866   2-1-6  119.68913623   2-1-7  119.61238021

  3- 4- 5  118.47242249   3- 4-10  116.11441286   4- 5-11  115.98772127   4- 5-12  116.54242229

  5- 4-10  116.63301031   6- 1- 7  114.81681703   8- 2- 9  115.74705984  11- 5-12  118.06133276

 NUCLEAR CHARGE:                   40
 NUMBER OF PRIMITIVE AOS:         354
 NUMBER OF SYMMETRY AOS:          322
 NUMBER OF CONTRACTIONS:          248   (  248A   )
 NUMBER OF INNER CORE ORBITALS:     0   (    0A   )
 NUMBER OF OUTER CORE ORBITALS:     5   (    5A   )
 NUMBER OF VALENCE ORBITALS:       27   (   27A   )


 NUCLEAR REPULSION ENERGY  180.61848696


 Eigenvalues of metric

         1 0.440E-03 0.839E-03 0.946E-03 0.119E-02 0.131E-02 0.139E-02 0.146E-02 0.170E-02


 Contracted 2-electron integrals neglected if value below      1.0D-11
 AO integral compression algorithm  1   Integral accuracy      1.0D-11

     1755.054 MB (compressed) written to integral file ( 43.0%)


 NUMBER OF SORTED TWO-ELECTRON INTEGRALS:  476679126.     BUFFER LENGTH:  32768
 NUMBER OF SEGMENTS:  30  SEGMENT LENGTH:   15999762      RECORD LENGTH: 524288

 Memory used in sort:      16.56 MW

 SORT1 READ   510246327. AND WROTE   437196681. INTEGRALS IN   1265 RECORDS. CPU TIME:     4.10 SEC, REAL TIME:     9.44 SEC
 SORT2 READ   437196681. AND WROTE   476679126. INTEGRALS IN   6695 RECORDS. CPU TIME:     2.94 SEC, REAL TIME:     7.19 SEC

 FILE SIZES:   FILE 1:  1787.5 MBYTE,  FILE 4:  5305.9 MBYTE,   TOTAL:   7093.4 MBYTE

 OPERATOR DM      FOR CENTER  0  COORDINATES:    0.000000    0.000000    0.000000


 **********************************************************************************************************************************
 DATASETS  * FILE   NREC   LENGTH (MB)   RECORD NAMES
              1      19     1579.03       500      610      700      900      950      970     1000      129      960     1100   
                                          VAR    BASINP    GEOM    SYMINP    ZMAT    AOBASIS   BASIS     P2S    ABASIS      S 
                                         1400     1410     1200     1210     1080     1600     1650     1300     1700   
                                           T        V       H0       H01     AOSYM     SMH    MOLCAS    ERIS     OPER   

 PROGRAMS   *        TOTAL       INT
 CPU TIMES  *        19.09     18.99
 REAL TIME  *        40.88 SEC
 DISK USED  *         6.61 GB
 **********************************************************************************************************************************


 Program * Restricted Hartree-Fock

 Orbital guess generated from atomic densities. Full valence occupancy:   32

 Initial occupancy:  20

 NELEC=   40   SYM=1   MS2= 0   THRE=1.0D-08   THRD=3.2D-06   THRG=3.2D-06  HFMA2=F  DIIS_START=2   DIIS_MAX=10   DIIS_INCORE=F

 Level shifts:    0.00 (CLOSED)    0.00 (OPEN)    0.30 (GAP_MIN)

 ITER           ETOT              DE          GRAD        DDIFF     DIIS  NEXP   TIME(IT)  TIME(TOT)  DIAG
   1     -246.78512118    -246.78512118     0.00D+00     0.48D-01     0     0       3.04      5.72    start
   2     -246.84474348      -0.05962230     0.46D-02     0.64D-02     1     0       3.04      8.76    diag
   3     -246.88893479      -0.04419131     0.36D-02     0.27D-02     2     0       3.04     11.80    diag
   4     -246.89093034      -0.00199556     0.53D-03     0.71D-03     3     0       2.97     14.77    diag
   5     -246.89130101      -0.00037066     0.21D-03     0.29D-03     4     0       2.97     17.74    diag
   6     -246.89143067      -0.00012966     0.12D-03     0.15D-03     5     0       2.95     20.69    diag
   7     -246.89148761      -0.00005694     0.47D-04     0.14D-03     6     0       3.05     23.74    diag
   8     -246.89149834      -0.00001073     0.23D-04     0.68D-04     7     0       3.04     26.78    fixocc
   9     -246.89149937      -0.00000103     0.73D-05     0.22D-04     8     0       3.07     29.85    diag
  10     -246.89149944      -0.00000007     0.22D-05     0.56D-05     9     0       3.05     32.90    diag/orth
  11     -246.89149945      -0.00000001     0.66D-06     0.13D-05     9     0       3.03     35.93    diag
  12     -246.89149945      -0.00000000     0.26D-06     0.39D-06     0     0       3.01     38.94    diag

 Final occupancy:  20

 !RHF STATE 1.1 Energy               -246.891499450293
  RHF One-electron energy            -693.930134246479
  RHF Two-electron energy             266.420147834874
  RHF Kinetic energy                  246.488826507570
  RHF Nuclear energy                  180.618486961312
  RHF Virial quotient                  -1.001633635684

 !RHF STATE 1.1 Dipole moment          -0.02466934    -1.16909387     0.46382951
 Dipole moment /Debye                  -0.06270320    -2.97154022     1.17893702

 Orbital energies:

           1.1          2.1          3.1          4.1          5.1          6.1          7.1          8.1          9.1         10.1
    -20.530731   -15.657468   -11.300388   -11.247097   -11.214548    -1.416006    -1.116055    -1.023659    -0.877694    -0.795804

          11.1         12.1         13.1         14.1         15.1         16.1         17.1         18.1         19.1         20.1
     -0.725768    -0.653929    -0.629089    -0.601782    -0.574780    -0.569358    -0.502276    -0.432556    -0.359013    -0.316946

          21.1         22.1
      0.104962     0.135444


 HOMO     20.1    -0.316946 =      -8.6245eV
 LUMO     21.1     0.104962 =       2.8562eV
 LUMO-HOMO         0.421907 =      11.4807eV

 Orbitals saved in record  2100.2


 **********************************************************************************************************************************
 DATASETS  * FILE   NREC   LENGTH (MB)   RECORD NAMES
              1      19     1579.03       500      610      700      900      950      970     1000      129      960     1100   
                                          VAR    BASINP    GEOM    SYMINP    ZMAT    AOBASIS   BASIS     P2S    ABASIS      S 
                                         1400     1410     1200     1210     1080     1600     1650     1300     1700   
                                           T        V       H0       H01     AOSYM     SMH    MOLCAS    ERIS     OPER   

              2       4        1.54       700     1000      520     2100   
                                         GEOM     BASIS   MCVARS     RHF  

 PROGRAMS   *        TOTAL    HF-SCF       INT
 CPU TIMES  *        58.03     38.94     18.99
 REAL TIME  *       112.43 SEC
 DISK USED  *         6.61 GB
 **********************************************************************************************************************************


 PROGRAM * MP4 (Closed-shell)     Authors: C. Hampel, H.-J. Werner, 1991, M. Deegan, P.J. Knowles, 1992


 Convergence thresholds:  THRVAR = 1.00D-08  THRDEN = 1.00D-06

 MP4(T)     terms to be evaluated (factor= 0.000)


 Number of core orbitals:           5 (   5 )
 Number of closed-shell orbitals:  15 (  15 )
 Number of external orbitals:     228 ( 228 )

 Molecular orbitals read from record     2100.2  Type=RHF/CANONICAL  

 Number of N-1 electron functions:              15
 Number of N-2 electron functions:             120
 Number of singly external CSFs:              3420
 Number of doubly external CSFs:           5849910
 Total number of CSFs:                     5853331

 Length of J-op  integral file:               0.00 MB
 Length of K-op  integral file:               4.29 MB

 Memory could be reduced to 222.14 Mwords without degradation in triples

 Integral transformation finished. Total CPU:  21.74 sec, npass=  1  Memory used: 135.98 MW

 Reference energy:                   -246.89149945

                        CORR.ENERGY   TOTAL ENERGY   ENERGY CHANGE
 MP2:                   -0.99982434  -247.89132379    -0.99982434

 SCS-MP2 correlation energy:           -0.98613819   (PS=  1.200000  PT=  0.333333)
 SCS-MP2 total energy:               -247.87763764

 MP3(D):                -1.01009099  -247.90159044    -0.01026665
 MP4(DQ):               -1.00531875  -247.89681820     0.00477223
 MP4(SDQ):              -1.01916634  -247.91066579    -0.01384758

 Norm of t1 vector:      0.12463766      S-energy:    -0.01384758      T1 diagnostic:  0.01609065


 Total CPU time for triples:    723.62 sec


 RESULTS
 =======

  Reference energy                   -246.891499450294
  MP4(SDQ) singlet pair energy         -0.671928994856
  MP4(SDQ) triplet pair energy         -0.333389757875
  MP4(SDQ) correlation energy          -1.019166336520

  Triples contribution                 -0.059726954244
  Total correlation energy             -1.078893290763

  MP4(SDQ) total energy              -247.910665786813
 !MP4(SDTQ) total energy             -247.970392741057

 Timing summary (sec):

 STEP                 CPU(USER)    SYS     CPU(TOT)    WALL
 Transformation         22.17      1.46     23.63     44.62
 CCSD iterations        98.54      0.87     99.41     77.51
 Triples               723.62     19.62    743.24   1381.87

 Program statistics:

 Available memory in ccsd:               805305448
 Min. memory needed in ccsd:              14547714
 Max. memory used in ccsd:                19866654
 Max. memory used in cckext:              15366897 ( 1 integral passes)



 **********************************************************************************************************************************
 DATASETS  * FILE   NREC   LENGTH (MB)   RECORD NAMES
              1      20     2345.72       500      610      700      900      950      970     1000      129      960     1100   
                                          VAR    BASINP    GEOM    SYMINP    ZMAT    AOBASIS   BASIS     P2S    ABASIS      S 
                                         1400     1410     1200     1210     1080     1600     1650     1300     1700     1380   
                                           T        V       H0       H01     AOSYM     SMH    MOLCAS    ERIS     OPER     JKOP   

              2       4        1.54       700     1000      520     2100   
                                         GEOM     BASIS   MCVARS     RHF  

 PROGRAMS   *        TOTAL       MP4    HF-SCF       INT
 CPU TIMES  *       844.24    786.20     38.94     18.99
 REAL TIME  *      1616.48 SEC
 DISK USED  *         6.61 GB
 **********************************************************************************************************************************

 Dump information in style XML to xml output                                                                      

 Orbitals will not be exported.

 **********************************************************************************************************************************

 MP4/cc-pVTZ energy=   -247.970392741057

             MP4          HF-SCF
   -247.97039274   -246.89149945
 **********************************************************************************************************************************
 Molpro calculation terminated
