
 Working directory              : /var/folders/2v/xbgp75_9785319ghcgb4zr4r0000gp/T//molpro.4tP9Jwttom/
 Global scratch directory       : /var/folders/2v/xbgp75_9785319ghcgb4zr4r0000gp/T//molpro.4tP9Jwttom/
 Wavefunction directory         : /Users/sacpjk/wfu/
 Main file repository           : /var/folders/2v/xbgp75_9785319ghcgb4zr4r0000gp/T//molpro.4tP9Jwttom/

 id        : peterk

 Nodes                        nprocs
 Cardiff-University-G34YLXT77Y    1
 GA implementation: MPI file
 GA implementation (serial work in mppx): MPI file

 Using customized tuning parameters: mindgm=1; mindgv=20; mindgc=4; mindgr=1; noblas=0; minvec=7
 default implementation of scratch files=df  


 Variables initialized (1032), CPU time= 0.00 sec
 
 symmetry,nosym
 
 
 geometry={
           10
     C         -0.10908494     -0.00012170      1.84867956
     C          0.40056224     -0.00008470      0.60878612
     C         -0.40056204     -0.00007770     -0.60878632
     H          1.48267763     -0.00004270      0.47407607
     H         -1.48267743     -0.00011170     -0.47407627
     C          0.10908414     -0.00003170     -1.84867976
     H          1.18301352      0.00022930     -2.02259382
     H          0.52643529      0.00000030      2.72908587
     H         -1.18301332      0.00044230      2.02259462
     H         -0.52643509     -0.00020170     -2.72908607
 }
 basis=cc-pVTZ
 
 
 
 hf; hf; papt; mp3
 
 
 
 {put,xml;noorbitals,nobasis}
 Commands initialized (841), CPU time= 0.01 sec, 704 directives.
 Default parameters read. Elapsed time= 0.72 sec

 Checking input...
 Passed
1


                                         ***  PROGRAM SYSTEM MOLPRO  ***
                                       Copyright, TTI GmbH Stuttgart, 2015
                                    Version 2023.1 linked Tue Jun  6 09:54:11 2023


 **********************************************************************************************************************************
 LABEL *                                                                                                                                                                 
  64 bit serial version                                                                  DATE: 11-Jun-23          TIME: 12:47:01  
 **********************************************************************************************************************************

 SHA1:             8ebb0dd001088a5c915591db1a321413035db0b1
 **********************************************************************************************************************************

 Memory per process:       393 MW
 Total memory per node:    524 MW
 Total GA space:           131 MW

 GA preallocation disabled
 GA check enabled

 Variable memory set to 393.2 MW

 ZSYMEL=NOSYM


 Geometry recognized as XYZ

 SETTING BASIS          =    CC-PVTZ


 Recomputing integrals since basis changed


 Using spherical harmonics

 Library entry C      S cc-pVTZ              selected for orbital group  1
 Library entry C      P cc-pVTZ              selected for orbital group  1
 Library entry C      D cc-pVTZ              selected for orbital group  1
 Library entry C      F cc-pVTZ              selected for orbital group  1
 Library entry H      S cc-pVTZ              selected for orbital group  2
 Library entry H      P cc-pVTZ              selected for orbital group  2
 Library entry H      D cc-pVTZ              selected for orbital group  2


 PROGRAM * SEWARD (Integral evaluation for generally contracted gaussian basis sets)     Author: Roland Lindh, 1990

 Geometry written to block  1 of record 700


 Point group  C1  



 ATOMIC COORDINATES

 NR  ATOM    CHARGE       X              Y              Z

   1  C       6.00   -0.206140661   -0.000229980    3.493498061
   2  C       6.00    0.756952929   -0.000160060    1.150439035
   3  C       6.00   -0.756952552   -0.000146832   -1.150439413
   4  H       1.00    2.801854652   -0.000080691    0.895873935
   5  H       1.00   -2.801854274   -0.000211082   -0.895874312
   6  C       6.00    0.206139149   -0.000059904   -3.493498439
   7  H       1.00    2.235571555    0.000433314   -3.822148381
   8  H       1.00    0.994818520    0.000000567    5.157224865
   9  H       1.00   -2.235571177    0.000835826    3.822149893
  10  H       1.00   -0.994818142   -0.000381158   -5.157225243

 Bond lengths in Bohr (Angstrom)

 1-2  2.533273547  1-8  2.051899093  1-9  2.055869981  2-3  2.754260598  2-4  2.060685918
     ( 1.340550630)     ( 1.085818239)     ( 1.087919543)     ( 1.457491941)     ( 1.090468026)

  3- 5  2.060685917   3- 6  2.533272829   6- 7  2.055871328   6-10  2.051897999
       ( 1.090468026)       ( 1.340550250)       ( 1.087920255)       ( 1.085817660)

 Bond angles

  1-2-3  124.31166664   1-2-4  119.44079072   2-1-8  121.83173308   2-1-9  121.54345619

  2-3-5  116.24754265   2-3-6  124.31170616   3-2-4  116.24754264   3-6-7  121.54336148

  3- 6-10  121.83181502   5- 3- 6  119.44075119   7- 6-10  116.62482343   8- 1- 9  116.62479681

 NUCLEAR CHARGE:                   30
 NUMBER OF PRIMITIVE AOS:         290
 NUMBER OF SYMMETRY AOS:          264
 NUMBER OF CONTRACTIONS:          204   (  204A   )
 NUMBER OF INNER CORE ORBITALS:     0   (    0A   )
 NUMBER OF OUTER CORE ORBITALS:     4   (    4A   )
 NUMBER OF VALENCE ORBITALS:       22   (   22A   )


 NUCLEAR REPULSION ENERGY  103.54782820


 Eigenvalues of metric

         1 0.333E-03 0.499E-03 0.760E-03 0.879E-03 0.107E-02 0.129E-02 0.134E-02 0.139E-02


 Contracted 2-electron integrals neglected if value below      1.0D-11
 AO integral compression algorithm  1   Integral accuracy      1.0D-11

     625.738 MB (compressed) written to integral file ( 33.5%)


 NUMBER OF SORTED TWO-ELECTRON INTEGRALS:  218624505.     BUFFER LENGTH:  32768
 NUMBER OF SEGMENTS:  14  SEGMENT LENGTH:   15999503      RECORD LENGTH: 524288

 Memory used in sort:      16.56 MW

 SORT1 READ   233391215. AND WROTE   172305900. INTEGRALS IN    500 RECORDS. CPU TIME:     1.85 SEC, REAL TIME:     2.52 SEC
 SORT2 READ   172305900. AND WROTE   218624505. INTEGRALS IN   2387 RECORDS. CPU TIME:     1.65 SEC, REAL TIME:     2.03 SEC

 FILE SIZES:   FILE 1:   657.4 MBYTE,  FILE 4:  2097.2 MBYTE,   TOTAL:   2754.7 MBYTE

 OPERATOR DM      FOR CENTER  0  COORDINATES:    0.000000    0.000000    0.000000


 **********************************************************************************************************************************
 DATASETS  * FILE   NREC   LENGTH (MB)   RECORD NAMES
              1      19      553.68       500      610      700      900      950      970     1000      129      960     1100   
                                          VAR    BASINP    GEOM    SYMINP    ZMAT    AOBASIS   BASIS     P2S    ABASIS      S 
                                         1400     1410     1200     1210     1080     1600     1650     1300     1700   
                                           T        V       H0       H01     AOSYM     SMH    MOLCAS    ERIS     OPER   

 PROGRAMS   *        TOTAL       INT
 CPU TIMES  *         8.66      8.56
 REAL TIME  *        13.36 SEC
 DISK USED  *         2.57 GB
 **********************************************************************************************************************************


 Program * Restricted Hartree-Fock

 Orbital guess generated from atomic densities. Full valence occupancy:   26

 Initial occupancy:  15

 NELEC=   30   SYM=1   MS2= 0   THRE=1.0D-08   THRD=3.2D-06   THRG=3.2D-06  HFMA2=F  DIIS_START=2   DIIS_MAX=10   DIIS_INCORE=F

 Level shifts:    0.00 (CLOSED)    0.00 (OPEN)    0.30 (GAP_MIN)

 ITER           ETOT              DE          GRAD        DDIFF     DIIS  NEXP   TIME(IT)  TIME(TOT)  DIAG
   1     -154.93227143    -154.93227143     0.00D+00     0.51D-01     0     0       1.14      2.23    start
   2     -154.97227877      -0.04000734     0.31D-02     0.44D-02     1     0       1.16      3.39    diag
   3     -154.97628489      -0.00400612     0.10D-02     0.13D-02     2     0       1.16      4.55    diag
   4     -154.97687143      -0.00058654     0.35D-03     0.53D-03     3     0       1.15      5.70    diag
   5     -154.97689899      -0.00002756     0.92D-04     0.11D-03     4     0       1.15      6.85    diag
   6     -154.97690170      -0.00000271     0.21D-04     0.42D-04     5     0       1.15      8.00    diag
   7     -154.97690188      -0.00000018     0.46D-05     0.97D-05     6     0       1.16      9.16    diag
   8     -154.97690189      -0.00000002     0.13D-05     0.26D-05     7     0       1.15     10.31    fixocc
   9     -154.97690189      -0.00000000     0.30D-06     0.61D-06     8     0       1.16     11.47    diag
  10     -154.97690189      -0.00000000     0.72D-07     0.11D-06     0     0       1.16     12.63    diag/orth

 Final occupancy:  15

 !RHF STATE 1.1 Energy               -154.976901893261
  RHF One-electron energy            -412.562849767813
  RHF Two-electron energy             154.038119673237
  RHF Kinetic energy                  154.687130558640
  RHF Nuclear energy                  103.547828201315
  RHF Virial quotient                  -1.001873273708

 !RHF STATE 1.1 Dipole moment          -0.00000020     0.00023585    -0.00000001
 Dipole moment /Debye                  -0.00000051     0.00059946    -0.00000004

 Orbital energies:

           1.1          2.1          3.1          4.1          5.1          6.1          7.1          8.1          9.1         10.1
    -11.240277   -11.239446   -11.229934   -11.229928    -1.089955    -0.998450    -0.826461    -0.752666    -0.643513    -0.633067

          11.1         12.1         13.1         14.1         15.1         16.1         17.1
     -0.557739    -0.542812    -0.492515    -0.443374    -0.323171     0.109928     0.158625


 HOMO     15.1    -0.323171 =      -8.7939eV
 LUMO     16.1     0.109928 =       2.9913eV
 LUMO-HOMO         0.433099 =      11.7852eV

 Orbitals saved in record  2100.2


 **********************************************************************************************************************************
 DATASETS  * FILE   NREC   LENGTH (MB)   RECORD NAMES
              1      19      553.68       500      610      700      900      950      970     1000      129      960     1100   
                                          VAR    BASINP    GEOM    SYMINP    ZMAT    AOBASIS   BASIS     P2S    ABASIS      S 
                                         1400     1410     1200     1210     1080     1600     1650     1300     1700   
                                           T        V       H0       H01     AOSYM     SMH    MOLCAS    ERIS     OPER   

              2       4        1.19       700     1000      520     2100   
                                         GEOM     BASIS   MCVARS     RHF  

 PROGRAMS   *        TOTAL    HF-SCF       INT
 CPU TIMES  *        21.29     12.63      8.56
 REAL TIME  *        27.90 SEC
 DISK USED  *         2.57 GB
 **********************************************************************************************************************************


 Program * Restricted Hartree-Fock

 Molecular orbitals read from record     2100.2  Type=RHF/CANONICAL  

 Initial occupancy:  15

 NELEC=   30   SYM=1   MS2= 0   THRE=1.0D-08   THRD=3.2D-06   THRG=3.2D-06  HFMA2=F  DIIS_START=2   DIIS_MAX=10   DIIS_INCORE=F

 Level shifts:    0.00 (CLOSED)    0.00 (OPEN)    0.30 (GAP_MIN)

 ITER           ETOT              DE          GRAD        DDIFF     DIIS  NEXP   TIME(IT)  TIME(TOT)  DIAG
   1     -154.97690189    -154.97690189     0.00D+00     0.52D-01     0     0       1.16      1.16    start
   2     -154.97690189      -0.00000000     0.31D-07     0.50D-07     1     0       1.16      2.32    diag

 Final occupancy:  15

 !RHF STATE 1.1 Energy               -154.976901893271
  RHF One-electron energy            -412.562842023464
  RHF Two-electron energy             154.038111928878
  RHF Kinetic energy                  154.687129173408
  RHF Nuclear energy                  103.547828201315
  RHF Virial quotient                  -1.001873282680

 !RHF STATE 1.1 Dipole moment          -0.00000020     0.00023584    -0.00000001
 Dipole moment /Debye                  -0.00000051     0.00059944    -0.00000004

 Orbital energies:

           1.1          2.1          3.1          4.1          5.1          6.1          7.1          8.1          9.1         10.1
    -11.240276   -11.239445   -11.229934   -11.229929    -1.089955    -0.998450    -0.826461    -0.752666    -0.643513    -0.633067

          11.1         12.1         13.1         14.1         15.1         16.1         17.1
     -0.557739    -0.542812    -0.492514    -0.443374    -0.323171     0.109928     0.158625


 HOMO     15.1    -0.323171 =      -8.7939eV
 LUMO     16.1     0.109928 =       2.9913eV
 LUMO-HOMO         0.433099 =      11.7852eV

 Orbitals saved in record  2101.2


 **********************************************************************************************************************************
 DATASETS  * FILE   NREC   LENGTH (MB)   RECORD NAMES
              1      19      553.68       500      610      700      900      950      970     1000      129      960     1100   
                                          VAR    BASINP    GEOM    SYMINP    ZMAT    AOBASIS   BASIS     P2S    ABASIS      S 
                                         1400     1410     1200     1210     1080     1600     1650     1300     1700   
                                           T        V       H0       H01     AOSYM     SMH    MOLCAS    ERIS     OPER   

              2       5        2.41       700     1000      520     2100     2101   
                                         GEOM     BASIS   MCVARS     RHF      RHF  

 PROGRAMS   *        TOTAL    HF-SCF    HF-SCF       INT
 CPU TIMES  *        23.62      2.33     12.63      8.56
 REAL TIME  *        30.91 SEC
 DISK USED  *         2.57 GB
 **********************************************************************************************************************************


 PROGRAM * PAPT (Closed-shell)     Authors: C. Hampel, H.-J. Werner, 1991, P.J. Knowles, 2021


 Convergence thresholds:  THRVAR = 1.00D-08  THRDEN = 1.00D-06

 Number of core orbitals:           4 (   4 )
 Number of closed-shell orbitals:  11 (  11 )
 Number of external orbitals:     189 ( 189 )

 Molecular orbitals read from record     2101.2  Type=RHF/CANONICAL  

 Number of N-1 electron functions:              11
 Number of N-2 electron functions:              66
 Number of singly external CSFs:              2079
 Number of doubly external CSFs:           2162160
 Total number of CSFs:                     2164240

 Length of J-op  integral file:               0.00 MB
 Length of K-op  integral file:               2.92 MB

 Integral transformation finished. Total CPU:   2.19 sec, npass=  1  Memory used:   5.49 MW

 Reference energy:                   -154.97690189

                        CORR.ENERGY   TOTAL ENERGY   ENERGY CHANGE
 MP2:                   -0.65074385  -155.62764574    -0.65074385

 SCS-MP2 correlation energy:           -0.65307323   (PS=  1.200000  PT=  0.333333)
 SCS-MP2 total energy:               -155.62997512
 Iteration:   1     0.2913D+00
 Iteration:   2     0.3966D+00
 Iteration:   3     0.1025D+00
 Iteration:   4     0.1179D+00
 Iteration:   5     0.5248D-01
 Iteration:   6     0.1831D-01
 Iteration:   7     0.1809D+01
 Iteration:   8     0.4586D-02
 Iteration:   9     0.3528D-02
 Iteration:  10     0.1966D-02
 Iteration:  11     0.4575D-03
 Iteration:  12     0.1414D-02
 Iteration:  13     0.1496D-03
 Iteration:  14     0.1019D-03
 Iteration:  15     0.1758D-03
 Iteration:  16     0.2237D-04
 PAPT operator written to  7000.1
 PAPT orbitals and eigenvalues written to  7000.2

 MP3(D):                -0.68420350  -155.66110540    -0.03345965



 RESULTS
 =======

  Reference energy                   -154.976901893271
  MP3 singlet pair energy              -0.474666083243
  MP3 triplet pair energy              -0.209537418771
  MP3 correlation energy               -0.684203502014

 !MP3 total energy                   -155.661105395285

 Timing summary (sec):

 STEP                 CPU(USER)    SYS     CPU(TOT)    WALL
 Transformation          2.27      0.20      2.47      2.62
 CCSD iterations        33.00      0.37     33.37     11.48

 Program statistics:

 Available memory in ccsd:               393215501
 Min. memory needed in ccsd:               5800879
 Max. memory used in ccsd:                 7702768
 Max. memory used in cckext:               5864010 ( 1 integral passes)



 **********************************************************************************************************************************
 DATASETS  * FILE   NREC   LENGTH (MB)   RECORD NAMES
              1      21      585.97       500      610      700      900      950      970     1000      129      960     1100   
                                          VAR    BASINP    GEOM    SYMINP    ZMAT    AOBASIS   BASIS     P2S    ABASIS      S 
                                         1400     1410     1200     1210     1080     1600     1650     1300     1700     1380   
                                           T        V       H0       H01     AOSYM     SMH    MOLCAS    ERIS     OPER     JKOP   
                                         7000   
                                        PAPT AO    

              2       6        3.46       700     1000      520     2100     2101     7000   
                                         GEOM     BASIS   MCVARS     RHF      RHF     PAPT   

 PROGRAMS   *        TOTAL      PAPT    HF-SCF    HF-SCF       INT
 CPU TIMES  *        35.18     11.56      2.33     12.63      8.56
 REAL TIME  *        45.42 SEC
 DISK USED  *         2.57 GB
 **********************************************************************************************************************************


 PROGRAM * MP3 (Closed-shell)     Authors: C. Hampel, H.-J. Werner, 1991, M. Deegan, P.J. Knowles, 1992


 Convergence thresholds:  THRVAR = 1.00D-08  THRDEN = 1.00D-06

 Number of core orbitals:           4 (   4 )
 Number of closed-shell orbitals:  11 (  11 )
 Number of external orbitals:     189 ( 189 )

 Molecular orbitals read from record     7000.2  Type=PAPT/CANONICAL (state 1.1)

 Number of N-1 electron functions:              11
 Number of N-2 electron functions:              66
 Number of singly external CSFs:              2079
 Number of doubly external CSFs:           2162160
 Total number of CSFs:                     2164240

 Length of J-op  integral file:               0.00 MB
 Length of K-op  integral file:               2.92 MB

 Integral transformation finished. Total CPU:   2.22 sec, npass=  1  Memory used:   5.49 MW
 Orbital energies read from record       7000.2  Type=PAPT/CANONICAL (state 1.1)

 Reference energy:                   -154.97690189

                        CORR.ENERGY   TOTAL ENERGY   ENERGY CHANGE
 MP2:                   -0.69196190  -155.66886379    -0.69196190

 SCS-MP2 correlation energy:           -0.69809018   (PS=  1.200000  PT=  0.333333)
 SCS-MP2 total energy:               -155.67499207

 MP3(D):                -0.69232044  -155.66922233    -0.00035854



 RESULTS
 =======

  Reference energy                   -154.976901893271
  MP3 singlet pair energy              -0.484093330414
  MP3 triplet pair energy              -0.208227109771
  MP3 correlation energy               -0.692320440186

 !MP3 total energy                   -155.669222333457

 Timing summary (sec):

 STEP                 CPU(USER)    SYS     CPU(TOT)    WALL
 Transformation          3.51      0.29      3.80      4.16
 CCSD iterations        40.02      0.19     40.21      5.42

 Program statistics:

 Available memory in ccsd:               393215501
 Min. memory needed in ccsd:               5800879
 Max. memory used in ccsd:                 7702768
 Max. memory used in cckext:               5864010 ( 1 integral passes)



 **********************************************************************************************************************************
 DATASETS  * FILE   NREC   LENGTH (MB)   RECORD NAMES
              1      21      585.97       500      610      700      900      950      970     1000      129      960     1100   
                                          VAR    BASINP    GEOM    SYMINP    ZMAT    AOBASIS   BASIS     P2S    ABASIS      S 
                                         1400     1410     1200     1210     1080     1600     1650     1300     1700     1380   
                                           T        V       H0       H01     AOSYM     SMH    MOLCAS    ERIS     OPER     JKOP   
                                         7000   
                                        PAPT AO    

              2       6        3.46       700     1000      520     2100     2101     7000   
                                         GEOM     BASIS   MCVARS     RHF      RHF     PAPT   

 PROGRAMS   *        TOTAL       MP3      PAPT    HF-SCF    HF-SCF       INT
 CPU TIMES  *        43.44      8.26     11.56      2.33     12.63      8.56
 REAL TIME  *        55.27 SEC
 DISK USED  *         2.57 GB
 **********************************************************************************************************************************

 Dump information in style XML to xml output                                                                      

 Orbitals will not be exported.

 **********************************************************************************************************************************

 MP3/cc-pVTZ energy=   -155.669222333457

             MP3            PAPT          HF-SCF          HF-SCF
   -155.66922233   -155.66110540   -154.97690189   -154.97690189
 **********************************************************************************************************************************
 Molpro calculation terminated
