
 Working directory              : /var/folders/2v/xbgp75_9785319ghcgb4zr4r0000gp/T//molpro.QJgCFHJZIq/
 Global scratch directory       : /var/folders/2v/xbgp75_9785319ghcgb4zr4r0000gp/T//molpro.QJgCFHJZIq/
 Wavefunction directory         : /Users/sacpjk/wfu/
 Main file repository           : /var/folders/2v/xbgp75_9785319ghcgb4zr4r0000gp/T//molpro.QJgCFHJZIq/

 id        : peterk

 Nodes                        nprocs
 Cardiff-University-G34YLXT77Y    1
 GA implementation: MPI file
 GA implementation (serial work in mppx): MPI file

 Using customized tuning parameters: mindgm=1; mindgv=20; mindgc=4; mindgr=1; noblas=0; minvec=7
 default implementation of scratch files=df  


 Variables initialized (1032), CPU time= 0.01 sec
 
 symmetry,nosym
 
 
 geometry={
            3
     H          0.00000000      0.00000000     -1.57015709
     F          0.00000000      0.00000000      0.04490245
     F          0.00000000      0.00000000      1.52525464
 }
 basis=cc-pVDZ
 
 
 spin=1
 uhf
 
 
 
 {put,xml;noorbitals,nobasis}
 Commands initialized (841), CPU time= 0.00 sec, 704 directives.
 Default parameters read. Elapsed time= 0.14 sec

 Checking input...
 Passed
1


                                         ***  PROGRAM SYSTEM MOLPRO  ***
                                       Copyright, TTI GmbH Stuttgart, 2015
                                    Version 2023.1 linked Tue Jun  6 09:54:11 2023


 **********************************************************************************************************************************
 LABEL *                                                                                                                                                                 
  64 bit serial version                                                                  DATE: 09-Jun-23          TIME: 09:26:55  
 **********************************************************************************************************************************

 SHA1:             8ebb0dd001088a5c915591db1a321413035db0b1
 **********************************************************************************************************************************

 Memory per process:       805 MW
 Total memory per node:   1074 MW
 Total GA space:           268 MW

 GA preallocation disabled
 GA check enabled

 Variable memory set to 805.3 MW

 ZSYMEL=NOSYM


 Geometry recognized as XYZ

 SETTING BASIS          =    CC-PVDZ
 SETTING SPIN           =         1.00000000                                  


 Recomputing integrals since basis changed


 Using spherical harmonics

 Library entry H      S cc-pVDZ              selected for orbital group  1
 Library entry H      P cc-pVDZ              selected for orbital group  1
 Library entry F      S cc-pVDZ              selected for orbital group  2
 Library entry F      P cc-pVDZ              selected for orbital group  2
 Library entry F      D cc-pVDZ              selected for orbital group  2


 PROGRAM * SEWARD (Integral evaluation for generally contracted gaussian basis sets)     Author: Roland Lindh, 1990

 Geometry written to block  1 of record 700


 Point group  C1  



 ATOMIC COORDINATES

 NR  ATOM    CHARGE       X              Y              Z

   1  H       1.00    0.000000000    0.000000000   -2.967166873
   2  F       9.00    0.000000000    0.000000000    0.084853333
   3  F       9.00    0.000000000    0.000000000    2.882313540

 Bond lengths in Bohr (Angstrom)

 2-3  2.797460207
     ( 1.480352190)

 NUCLEAR CHARGE:                   19
 NUMBER OF PRIMITIVE AOS:          61
 NUMBER OF SYMMETRY AOS:           59
 NUMBER OF CONTRACTIONS:           33   (   33A   )
 NUMBER OF INNER CORE ORBITALS:     0   (    0A   )
 NUMBER OF OUTER CORE ORBITALS:     2   (    2A   )
 NUMBER OF VALENCE ORBITALS:        9   (    9A   )


 NUCLEAR REPULSION ENERGY   33.44230011

 EXTRA SYMMETRY OF AOS IN SYMMETRY 1:   1 1 2 3 1 1 1 1 2 3   1 2 3 1 1 4 2 5 3 1   1 1 2 3 1 2 3 1 1 4   2 5 3

 Eigenvalues of metric

         1 0.258E-01 0.462E-01 0.927E-01 0.114E+00 0.177E+00 0.177E+00 0.183E+00 0.216E+00


 Contracted 2-electron integrals neglected if value below      1.0D-11
 AO integral compression algorithm  1   Integral accuracy      1.0D-11

     0.524 MB (compressed) written to integral file ( 20.8%)


 NUMBER OF SORTED TWO-ELECTRON INTEGRALS:     157641.     BUFFER LENGTH:  32768
 NUMBER OF SEGMENTS:   1  SEGMENT LENGTH:     157641      RECORD LENGTH: 524288

 Memory used in sort:       0.71 MW

 SORT1 READ      218689. AND WROTE       38236. INTEGRALS IN      1 RECORDS. CPU TIME:     0.00 SEC, REAL TIME:     0.00 SEC
 SORT2 READ       38236. AND WROTE      157641. INTEGRALS IN      2 RECORDS. CPU TIME:     0.01 SEC, REAL TIME:     0.00 SEC

 FILE SIZES:   FILE 1:    30.6 MBYTE,  FILE 4:     4.3 MBYTE,   TOTAL:     34.8 MBYTE

 OPERATOR DM      FOR CENTER  0  COORDINATES:    0.000000    0.000000    0.000000


 **********************************************************************************************************************************
 DATASETS  * FILE   NREC   LENGTH (MB)   RECORD NAMES
              1      19       28.88       500      610      700      900      950      970     1000      129      960     1100   
                                          VAR    BASINP    GEOM    SYMINP    ZMAT    AOBASIS   BASIS     P2S    ABASIS      S 
                                         1400     1410     1200     1210     1080     1600     1650     1300     1700   
                                           T        V       H0       H01     AOSYM     SMH    MOLCAS    ERIS     OPER   

 PROGRAMS   *        TOTAL       INT
 CPU TIMES  *         0.17      0.09
 REAL TIME  *         0.66 SEC
 DISK USED  *        33.57 MB
 **********************************************************************************************************************************


 Program * Unrestricted Hartree-Fock

 Orbital guess generated from atomic densities. Full valence occupancy:   11

 Initial alpha occupancy:  10
 Initial beta  occupancy:   9

 Elapsed time for starting guess:      0.00 sec

 NELEC=   19   SYM=1   MS2=1   THRE=1.0D-08   THRD=3.2D-06   THRG=3.2D-06  HFMA2=F  DIIS_START=2   DIIS_MAX=10   DIIS_INCORE=F

 Initial level shifts:    0.20 (ALPHA)    0.20 (BETA)

 ITER         ETOT            DE          GRAD         DDIFF    DIIS  NEXP   TIME(IT)  TIME(TOT)  DIAG
   1   -199.05139721  -199.05139721     0.00D+00     0.00D+00     0     0       0.01      0.01    start
   2   -199.11605372    -0.06465651     0.14D-01     0.25D+00     1     0       0.00      0.01    diag
   3   -199.13962251    -0.02356880     0.95D-02     0.23D-01     2     0       0.00      0.01    diag
   4   -199.16480522    -0.02518271     0.59D-02     0.99D-02     3     0       0.00      0.01    diag
   5   -199.18788111    -0.02307589     0.50D-02     0.80D-02     4     0       0.00      0.01    diag
   6   -199.20184369    -0.01396258     0.36D-02     0.71D-02     5     0       0.00      0.01    diag
   7   -199.20435808    -0.00251439     0.30D-02     0.12D-01     6     0       0.00      0.01    diag
   8   -199.20478288    -0.00042480     0.91D-03     0.39D-02     7     0       0.00      0.01    diag
   9   -199.20485717    -0.00007429     0.39D-03     0.14D-02     8     0       0.01      0.02    diag
  10   -199.20487707    -0.00001990     0.30D-03     0.97D-03     9     0       0.00      0.02    diag/ort
  11   -199.20487947    -0.00000241     0.95D-04     0.51D-03     9     0       0.00      0.02    diag
  12   -199.20488040    -0.00000093     0.57D-04     0.20D-03     9     0       0.00      0.02    diag
  13   -199.20488047    -0.00000006     0.13D-04     0.71D-04     9     0       0.00      0.02    diag
  14   -199.20488050    -0.00000003     0.11D-04     0.31D-04     7     0       0.00      0.02    diag
  15   -199.20488050    -0.00000001     0.36D-05     0.20D-04     8     0       0.00      0.02    diag
  16   -199.20488050    -0.00000000     0.98D-06     0.56D-05     8     0       0.01      0.03    diag
  17   -199.20488050    -0.00000000     0.31D-06     0.21D-05     8     0       0.00      0.03    diag

 Final alpha occupancy:  10
 Final beta  occupancy:   9

 !UHF STATE 1.1 Energy               -199.204880501346
  UHF One-electron energy            -345.562407484103
  UHF Two-electron energy             112.915226875691
  UHF Kinetic energy                  199.472139057141
  UHF Nuclear energy                   33.442300107066
  UHF Virial quotient                  -0.998660171004

 !UHF STATE 1.1 Dipole moment          -0.00000000     0.00000000    -0.25064538
 Dipole moment /Debye                  -0.00000000     0.00000000    -0.63707700

 EXPECTATION VALUE OF S**2:             1.20596581

 Orbital energies for positive spin:

           1.1          2.1          3.1          4.1          5.1          6.1          7.1          8.1          9.1         10.1
    -26.398966   -26.379185    -1.728548    -1.494080    -0.815533    -0.769150    -0.769150    -0.648717    -0.648717    -0.503595

          11.1         12.1
      0.140516     0.555119

 Orbital energies for negative spin:

           1.1          2.1          3.1          4.1          5.1          6.1          7.1          8.1          9.1         10.1
    -26.409267   -26.361026    -1.720440    -1.472202    -0.796627    -0.767523    -0.767523    -0.640842    -0.640842     0.073548

          11.1
      0.173993


 HOMO     10.1    -0.503595 =     -13.7035eV
 LUMO    -10.1     0.073548 =       2.0014eV
 LUMO-HOMO         0.577144 =      15.7049eV

 Orbitals saved in record  2200.2

 Occupation number threshold for pseudo-canonical orbitals: 1.9990 (occupied), 0.0010 (virtual)

 Number of pseudo-canonical occupied orbitals per symmetry:    8
 Number of active natural orbitals per symmetry:               3

 Natural orbitals saved to record    2200.2 (Orbital set 3)

 Orbital spaces for UNO-CAS (Min. occupation: 0.020  Max. occupation: 1.980):

 Closed:        8
 Active:        3


 **********************************************************************************************************************************
 DATASETS  * FILE   NREC   LENGTH (MB)   RECORD NAMES
              1      19       28.88       500      610      700      900      950      970     1000      129      960     1100   
                                          VAR    BASINP    GEOM    SYMINP    ZMAT    AOBASIS   BASIS     P2S    ABASIS      S 
                                         1400     1410     1200     1210     1080     1600     1650     1300     1700   
                                           T        V       H0       H01     AOSYM     SMH    MOLCAS    ERIS     OPER   

              2       4        0.46       700     1000      520     2200   
                                         GEOM     BASIS   MCVARS     UHF  

              4       3        0.25      2900     3000     3100   

 PROGRAMS   *        TOTAL   UHF-SCF       INT
 CPU TIMES  *         0.20      0.03      0.09
 REAL TIME  *         0.98 SEC
 DISK USED  *        33.57 MB
 **********************************************************************************************************************************

 Dump information in style XML to xml output                                                                      

 Orbitals will not be exported.

 **********************************************************************************************************************************

 UHF/cc-pVDZ energy=   -199.204880501346

         UHF-SCF
   -199.20488050
 **********************************************************************************************************************************
 Molpro calculation terminated
