
 Working directory              : /var/folders/2v/xbgp75_9785319ghcgb4zr4r0000gp/T//molpro.wBKYq0H9AC/
 Global scratch directory       : /var/folders/2v/xbgp75_9785319ghcgb4zr4r0000gp/T//molpro.wBKYq0H9AC/
 Wavefunction directory         : /Users/sacpjk/wfu/
 Main file repository           : /var/folders/2v/xbgp75_9785319ghcgb4zr4r0000gp/T//molpro.wBKYq0H9AC/

 id        : peterk

 Nodes                        nprocs
 Cardiff-University-G34YLXT77Y    1
 GA implementation: MPI file
 GA implementation (serial work in mppx): MPI file

 Using customized tuning parameters: mindgm=1; mindgv=20; mindgc=4; mindgr=1; noblas=0; minvec=7
 default implementation of scratch files=df  


 Variables initialized (1032), CPU time= 0.00 sec
 
 symmetry,nosym
 
 
 geometry={
            3
     H          0.00000000      0.00000000     -0.09256457
     O          0.00000000      0.00000000      1.09674807
     H          0.00000000      0.00000000     -1.00418350
 }
 basis=cc-pVDZ
 
 
 spin=2
 uhf
 
 
 
 {put,xml;noorbitals,nobasis}
 Commands initialized (841), CPU time= 0.00 sec, 704 directives.
 Default parameters read. Elapsed time= 0.11 sec

 Checking input...
 Passed
1


                                         ***  PROGRAM SYSTEM MOLPRO  ***
                                       Copyright, TTI GmbH Stuttgart, 2015
                                    Version 2023.1 linked Tue Jun  6 09:54:11 2023


 **********************************************************************************************************************************
 LABEL *                                                                                                                                                                 
  64 bit serial version                                                                  DATE: 09-Jun-23          TIME: 09:27:02  
 **********************************************************************************************************************************

 SHA1:             8ebb0dd001088a5c915591db1a321413035db0b1
 **********************************************************************************************************************************

 Memory per process:       805 MW
 Total memory per node:   1074 MW
 Total GA space:           268 MW

 GA preallocation disabled
 GA check enabled

 Variable memory set to 805.3 MW

 ZSYMEL=NOSYM


 Geometry recognized as XYZ

 SETTING BASIS          =    CC-PVDZ
 SETTING SPIN           =         2.00000000                                  


 Recomputing integrals since basis changed


 Using spherical harmonics

 Library entry H      S cc-pVDZ              selected for orbital group  1
 Library entry H      P cc-pVDZ              selected for orbital group  1
 Library entry O      S cc-pVDZ              selected for orbital group  2
 Library entry O      P cc-pVDZ              selected for orbital group  2
 Library entry O      D cc-pVDZ              selected for orbital group  2


 PROGRAM * SEWARD (Integral evaluation for generally contracted gaussian basis sets)     Author: Roland Lindh, 1990

 Geometry written to block  1 of record 700


 Point group  C1  



 ATOMIC COORDINATES

 NR  ATOM    CHARGE       X              Y              Z

   1  H       1.00    0.000000000    0.000000000   -0.174921686
   2  O       8.00    0.000000000    0.000000000    2.072553480
   3  H       1.00    0.000000000    0.000000000   -1.897631794

 Bond lengths in Bohr (Angstrom)

 1-2  2.247475166
     ( 1.189312640)

 NUCLEAR CHARGE:                   10
 NUMBER OF PRIMITIVE AOS:          41
 NUMBER OF SYMMETRY AOS:           40
 NUMBER OF CONTRACTIONS:           24   (   24A   )
 NUMBER OF INNER CORE ORBITALS:     0   (    0A   )
 NUMBER OF OUTER CORE ORBITALS:     1   (    1A   )
 NUMBER OF VALENCE ORBITALS:        6   (    6A   )


 NUCLEAR REPULSION ENERGY    6.15504993

 EXTRA SYMMETRY OF AOS IN SYMMETRY 1:   1 1 2 3 1 1 1 1 2 3   1 2 3 1 1 4 2 5 3 1   1 2 3 1

 Eigenvalues of metric

         1 0.197E-01 0.341E-01 0.822E-01 0.108E+00 0.166E+00 0.190E+00 0.190E+00 0.283E+00


 Contracted 2-electron integrals neglected if value below      1.0D-11
 AO integral compression algorithm  1   Integral accuracy      1.0D-11

     0.262 MB (compressed) written to integral file ( 45.7%)


 NUMBER OF SORTED TWO-ELECTRON INTEGRALS:      45150.     BUFFER LENGTH:  32768
 NUMBER OF SEGMENTS:   1  SEGMENT LENGTH:      45150      RECORD LENGTH: 524288

 Memory used in sort:       0.60 MW

 SORT1 READ       62044. AND WROTE       11517. INTEGRALS IN      1 RECORDS. CPU TIME:     0.00 SEC, REAL TIME:     0.00 SEC
 SORT2 READ       11517. AND WROTE       45150. INTEGRALS IN      1 RECORDS. CPU TIME:     0.01 SEC, REAL TIME:     0.00 SEC

 FILE SIZES:   FILE 1:    30.3 MBYTE,  FILE 4:     4.3 MBYTE,   TOTAL:     34.5 MBYTE

 OPERATOR DM      FOR CENTER  0  COORDINATES:    0.000000    0.000000    0.000000


 **********************************************************************************************************************************
 DATASETS  * FILE   NREC   LENGTH (MB)   RECORD NAMES
              1      19       28.72       500      610      700      900      950      970     1000      129      960     1100   
                                          VAR    BASINP    GEOM    SYMINP    ZMAT    AOBASIS   BASIS     P2S    ABASIS      S 
                                         1400     1410     1200     1210     1080     1600     1650     1300     1700   
                                           T        V       H0       H01     AOSYM     SMH    MOLCAS    ERIS     OPER   

 PROGRAMS   *        TOTAL       INT
 CPU TIMES  *         0.17      0.09
 REAL TIME  *         0.75 SEC
 DISK USED  *        33.30 MB
 **********************************************************************************************************************************


 Program * Unrestricted Hartree-Fock

 Orbital guess generated from atomic densities. Full valence occupancy:    7

 Initial alpha occupancy:   6
 Initial beta  occupancy:   4

 Elapsed time for starting guess:      0.00 sec

 NELEC=   10   SYM=1   MS2=2   THRE=1.0D-08   THRD=3.2D-06   THRG=3.2D-06  HFMA2=F  DIIS_START=2   DIIS_MAX=10   DIIS_INCORE=F

 Initial level shifts:    0.20 (ALPHA)    0.20 (BETA)

 ITER         ETOT            DE          GRAD         DDIFF    DIIS  NEXP   TIME(IT)  TIME(TOT)  DIAG
   1    -75.82952321   -75.82952321     0.00D+00     0.00D+00     0     0       0.00      0.00    start
   2    -75.85665641    -0.02713319     0.15D-01     0.22D+00     1     0       0.00      0.00    diag
   3    -75.86414654    -0.00749013     0.65D-02     0.20D-01     2     0       0.00      0.00    diag
   4    -75.86684397    -0.00269744     0.36D-02     0.82D-02     3     0       0.00      0.00    diag
   5    -75.86764817    -0.00080420     0.16D-02     0.43D-02     4     0       0.00      0.00    diag
   6    -75.86795300    -0.00030482     0.10D-02     0.22D-02     5     0       0.00      0.00    diag
   7    -75.86811725    -0.00016426     0.62D-03     0.14D-02     6     0       0.00      0.00    diag
   8    -75.86815759    -0.00004034     0.32D-03     0.15D-02     7     0       0.00      0.00    diag
   9    -75.86816479    -0.00000720     0.14D-03     0.75D-03     8     0       0.00      0.00    diag
  10    -75.86816549    -0.00000071     0.53D-04     0.33D-03     8     0       0.00      0.00    diag/ort
  11    -75.86816556    -0.00000007     0.17D-04     0.91D-04     8     0       0.00      0.00    diag
  12    -75.86816557    -0.00000001     0.50D-05     0.28D-04     8     0       0.01      0.01    diag
  13    -75.86816557    -0.00000000     0.14D-05     0.78D-05     6     0       0.00      0.01    diag
  14    -75.86816557    -0.00000000     0.35D-06     0.18D-05     6     0       0.00      0.01    diag

 Final alpha occupancy:   6
 Final beta  occupancy:   4

 !UHF STATE 1.1 Energy                -75.868165567808
  UHF One-electron energy            -116.578589969416
  UHF Two-electron energy              34.555374472825
  UHF Kinetic energy                   75.910692946301
  UHF Nuclear energy                    6.155049928783
  UHF Virial quotient                  -0.999439770909

 !UHF STATE 1.1 Dipole moment           0.00000000     0.00000000    -0.29856077
 Dipole moment /Debye                   0.00000000     0.00000000    -0.75886578

 EXPECTATION VALUE OF S**2:             2.05095563

 Orbital energies for positive spin:

           1.1          2.1          3.1          4.1          5.1          6.1          7.1          8.1
    -20.682202    -1.409951    -0.762169    -0.682536    -0.587292    -0.508813     0.278391     0.492562

 Orbital energies for negative spin:

           1.1          2.1          3.1          4.1          5.1          6.1
    -20.613943    -1.143639    -0.563419    -0.513861     0.047000     0.124879


 HOMO      6.1    -0.508813 =     -13.8455eV
 LUMO     -5.1     0.047000 =       1.2789eV
 LUMO-HOMO         0.555813 =      15.1244eV

 Orbitals saved in record  2200.2

 Occupation number threshold for pseudo-canonical orbitals: 1.9990 (occupied), 0.0010 (virtual)

 Number of pseudo-canonical occupied orbitals per symmetry:    2
 Number of active natural orbitals per symmetry:               6

 Natural orbitals saved to record    2200.2 (Orbital set 3)

 Orbital spaces for UNO-CAS (Min. occupation: 0.020  Max. occupation: 1.980):

 Closed:        3
 Active:        4


 **********************************************************************************************************************************
 DATASETS  * FILE   NREC   LENGTH (MB)   RECORD NAMES
              1      19       28.72       500      610      700      900      950      970     1000      129      960     1100   
                                          VAR    BASINP    GEOM    SYMINP    ZMAT    AOBASIS   BASIS     P2S    ABASIS      S 
                                         1400     1410     1200     1210     1080     1600     1650     1300     1700   
                                           T        V       H0       H01     AOSYM     SMH    MOLCAS    ERIS     OPER   

              2       4        0.44       700     1000      520     2200   
                                         GEOM     BASIS   MCVARS     UHF  

              4       3        0.16      2900     3000     3100   

 PROGRAMS   *        TOTAL   UHF-SCF       INT
 CPU TIMES  *         0.18      0.01      0.09
 REAL TIME  *         1.00 SEC
 DISK USED  *        33.30 MB
 **********************************************************************************************************************************

 Dump information in style XML to xml output                                                                      

 Orbitals will not be exported.

 **********************************************************************************************************************************

 UHF/cc-pVDZ energy=    -75.868165567808

         UHF-SCF
    -75.86816557
 **********************************************************************************************************************************
 Molpro calculation terminated
