
 Working directory              : /var/folders/2v/xbgp75_9785319ghcgb4zr4r0000gp/T//molpro.YwqxZC5Rai/
 Global scratch directory       : /var/folders/2v/xbgp75_9785319ghcgb4zr4r0000gp/T//molpro.YwqxZC5Rai/
 Wavefunction directory         : /Users/sacpjk/wfu/
 Main file repository           : /var/folders/2v/xbgp75_9785319ghcgb4zr4r0000gp/T//molpro.YwqxZC5Rai/

 id        : peterk

 Nodes                        nprocs
 Cardiff-University-G34YLXT77Y    1
 GA implementation: MPI file
 GA implementation (serial work in mppx): MPI file

 Using customized tuning parameters: mindgm=1; mindgv=20; mindgc=4; mindgr=1; noblas=0; minvec=7
 default implementation of scratch files=df  


 Variables initialized (1032), CPU time= 0.00 sec
 
 core,small
 angstrom
 
 geometry={
 C1;C2,C1,1.33117445;H11,C1,1.08089487,C2,121.44926360;H12,C1,1.08089487,C2,121.44926360,H11,180;H21,C2,1.08089487,C1,121.44926360,H11,0;H22,C2,1.08089487,C1,121.44926360,H12,0
 }
 basis=cc-pCVDZ
 
 
 
 hf; ccsd(t)
 
 
 
 {put,xml;noorbitals,nobasis}
 Commands initialized (841), CPU time= 0.00 sec, 704 directives.
 Default parameters read. Elapsed time= 0.92 sec

 Checking input...
 Passed
1


                                         ***  PROGRAM SYSTEM MOLPRO  ***
                                       Copyright, TTI GmbH Stuttgart, 2015
                                    Version 2023.1 linked Tue Jun  6 09:54:11 2023


 **********************************************************************************************************************************
 LABEL *                                                                                                                                                                 
  64 bit serial version                                                                  DATE: 12-Jun-23          TIME: 09:42:10  
 **********************************************************************************************************************************

 SHA1:             8ebb0dd001088a5c915591db1a321413035db0b1
 **********************************************************************************************************************************

 Memory per process:       393 MW
 Total memory per node:    524 MW
 Total GA space:           131 MW

 GA preallocation disabled
 GA check enabled

 Variable memory set to 393.2 MW

 ZUNIT=ANG

 SETTING BASIS          =    CC-PCVDZ


 Recomputing integrals since basis changed


 Using spherical harmonics

 Library entry C      S cc-pCVDZ             selected for orbital group  1
 Library entry C      P cc-pCVDZ             selected for orbital group  1
 Library entry C      D cc-pCVDZ             selected for orbital group  1
 Library entry H      S cc-pVDZ              selected for orbital group  2
 Library entry H      P cc-pVDZ              selected for orbital group  2


 PROGRAM * SEWARD (Integral evaluation for generally contracted gaussian basis sets)     Author: Roland Lindh, 1990

 Geometry written to block  1 of record 700

 Orientation using atomic masses  
 Molecule type: Asymmetric top,     Order of principal axis = 2
 Symmetry elements: X,Y,Z
 Rotational constants:      25.0620134     30.1953945    147.4188996 GHz  (calculated with average atomic masses)

 Point group  D2h 



 ATOMIC COORDINATES

 NR  ATOM    CHARGE       X              Y              Z

   1  C1      6.00    0.000000000    0.000000000   -1.257777567
   2  C2      6.00    0.000000000    0.000000000    1.257777567
   3  H11     1.00    0.000000000    1.742543158   -2.323488032
   4  H12     1.00    0.000000000   -1.742543158   -2.323488032
   5  H21     1.00    0.000000000    1.742543158    2.323488032
   6  H22     1.00    0.000000000   -1.742543158    2.323488032

 Bond lengths in Bohr (Angstrom)

 1-2  2.515555135  1-3  2.042595274  1-4  2.042595274  2-5  2.042595274  2-6  2.042595274
     ( 1.331174450)     ( 1.080894870)     ( 1.080894870)     ( 1.080894870)     ( 1.080894870)

 Bond angles

  1-2-5  121.44926360   1-2-6  121.44926360   2-1-3  121.44926360   2-1-4  121.44926360

  3-1-4  117.10147280   5-2-6  117.10147280

 NUCLEAR CHARGE:                   16
 NUMBER OF PRIMITIVE AOS:          90
 NUMBER OF SYMMETRY AOS:           88
 NUMBER OF CONTRACTIONS:           56   (   13Ag  +    5B3u +    8B2u +    2B1g +   13B1u +    5B2g +    8B3g +    2Au  )
 NUMBER OF INNER CORE ORBITALS:     0   (    0Ag  +    0B3u +    0B2u +    0B1g +    0B1u +    0B2g +    0B3g +    0Au  )
 NUMBER OF OUTER CORE ORBITALS:     2   (    1Ag  +    0B3u +    0B2u +    0B1g +    1B1u +    0B2g +    0B3g +    0Au  )
 NUMBER OF VALENCE ORBITALS:       12   (    3Ag  +    1B3u +    2B2u +    0B1g +    3B1u +    1B2g +    2B3g +    0Au  )


 NUCLEAR REPULSION ENERGY   33.43534958

 Eigenvalues of metric

         1 0.153E-01 0.439E-01 0.683E-01 0.907E-01 0.138E+00 0.350E+00 0.942E+00 0.111E+01
         2 0.177E+00 0.572E+00 0.101E+01 0.160E+01 0.306E+01
         3 0.365E-01 0.627E-01 0.139E+00 0.740E+00 0.969E+00 0.114E+01 0.168E+01 0.401E+01
         4 0.510E+00 0.165E+01
         5 0.379E-02 0.248E-01 0.418E-01 0.478E-01 0.814E-01 0.118E+00 0.346E+00 0.895E+00
         6 0.113E+00 0.307E+00 0.476E+00 0.101E+01 0.170E+01
         7 0.156E-01 0.254E-01 0.107E+00 0.220E+00 0.971E+00 0.107E+01 0.115E+01 0.199E+01
         8 0.364E+00 0.145E+01


 Contracted 2-electron integrals neglected if value below      1.0D-11
 AO integral compression algorithm  1   Integral accuracy      1.0D-11

     1.573 MB (compressed) written to integral file ( 71.2%)


 NUMBER OF SORTED TWO-ELECTRON INTEGRALS:     184652.     BUFFER LENGTH:  32768
 NUMBER OF SEGMENTS:   1  SEGMENT LENGTH:     184652      RECORD LENGTH: 524288

 Memory used in sort:       0.74 MW

 SORT1 READ      309224. AND WROTE      182012. INTEGRALS IN      1 RECORDS. CPU TIME:     0.01 SEC, REAL TIME:     0.01 SEC
 SORT2 READ      182012. AND WROTE      184652. INTEGRALS IN      6 RECORDS. CPU TIME:     0.02 SEC, REAL TIME:     0.03 SEC

 FILE SIZES:   FILE 1:    31.7 MBYTE,  FILE 4:     4.3 MBYTE,   TOTAL:     35.9 MBYTE

 OPERATOR DM      FOR CENTER  0  COORDINATES:    0.000000    0.000000    0.000000


 **********************************************************************************************************************************
 DATASETS  * FILE   NREC   LENGTH (MB)   RECORD NAMES
              1      19       29.63       500      610      700      900      950      970     1000      129      960     1100   
                                          VAR    BASINP    GEOM    SYMINP    ZMAT    AOBASIS   BASIS     P2S    ABASIS      S 
                                         1400     1410     1200     1210     1080     1600     1650     1300     1700   
                                           T        V       H0       H01     AOSYM     SMH    MOLCAS    ERIS     OPER   

 PROGRAMS   *        TOTAL       INT
 CPU TIMES  *         0.23      0.14
 REAL TIME  *         1.87 SEC
 DISK USED  *        34.64 MB
 **********************************************************************************************************************************


 Program * Restricted Hartree-Fock

 Orbital guess generated from atomic densities. Full valence occupancy:    4   1   2   0   4   1   2   0


 Initial occupancy:   3   1   1   0   2   0   1   0

 NELEC=   16   SYM=1   MS2= 0   THRE=1.0D-08   THRD=3.2D-06   THRG=3.2D-06  HFMA2=F  DIIS_START=2   DIIS_MAX=10   DIIS_INCORE=F

 Level shifts:    0.00 (CLOSED)    0.00 (OPEN)    0.30 (GAP_MIN)

 ITER           ETOT              DE          GRAD        DDIFF     DIIS  NEXP   TIME(IT)  TIME(TOT)  DIAG
   1      -78.01919790     -78.01919790     0.00D+00     0.30D+00     0     0       0.00      0.01    start
   2      -78.03897109      -0.01977319     0.14D-01     0.29D-01     1     0       0.00      0.01    diag
   3      -78.04083025      -0.00185916     0.46D-02     0.89D-02     2     0       0.00      0.01    diag
   4      -78.04105597      -0.00022571     0.14D-02     0.32D-02     3     0       0.00      0.01    diag
   5      -78.04105830      -0.00000234     0.13D-03     0.36D-03     4     0       0.00      0.01    diag
   6      -78.04105837      -0.00000007     0.21D-04     0.62D-04     5     0       0.00      0.01    diag
   7      -78.04105837      -0.00000000     0.31D-05     0.88D-05     6     0       0.00      0.01    diag
   8      -78.04105837      -0.00000000     0.36D-06     0.11D-05     7     0       0.00      0.01    fixocc
   9      -78.04105837      -0.00000000     0.37D-07     0.79D-07     0     0       0.00      0.01    diag

 Final occupancy:   3   1   1   0   2   0   1   0

 !RHF STATE 1.1 Energy                -78.041058371917
  RHF One-electron energy            -170.159940471156
  RHF Two-electron energy              58.683532520341
  RHF Kinetic energy                   77.864379848953
  RHF Nuclear energy                   33.435349578897
  RHF Virial quotient                  -1.002269054519

 !RHF STATE 1.1 Dipole moment           0.00000000     0.00000000     0.00000000
 Dipole moment /Debye                   0.00000000     0.00000000     0.00000000

 Orbital energies:

           1.1          2.1          3.1          4.1          5.1
    -11.235812    -1.032651    -0.583998     0.203032     0.575363

           1.2          2.2          3.2
     -0.374767     0.687082     1.264880

           1.3          2.3          3.3
     -0.640684     0.232971     0.612721

           1.4          2.4
      1.130671     1.973582

           1.5          2.5          3.5          4.5
    -11.234130    -0.790378     0.237870     0.461051

           1.6          2.6
      0.168278     0.806430

           1.7          2.7          3.7
     -0.504017     0.303281     0.935203

           1.8          2.8
      1.293938     2.373531


 HOMO      1.2    -0.374767 =     -10.1979eV
 LUMO      1.6     0.168278 =       4.5791eV
 LUMO-HOMO         0.543045 =      14.7770eV

 Orbitals saved in record  2100.2


 **********************************************************************************************************************************
 DATASETS  * FILE   NREC   LENGTH (MB)   RECORD NAMES
              1      19       29.63       500      610      700      900      950      970     1000      129      960     1100   
                                          VAR    BASINP    GEOM    SYMINP    ZMAT    AOBASIS   BASIS     P2S    ABASIS      S 
                                         1400     1410     1200     1210     1080     1600     1650     1300     1700   
                                           T        V       H0       H01     AOSYM     SMH    MOLCAS    ERIS     OPER   

              2       4        0.43       700     1000      520     2100   
                                         GEOM     BASIS   MCVARS     RHF  

 PROGRAMS   *        TOTAL    HF-SCF       INT
 CPU TIMES  *         0.24      0.01      0.14
 REAL TIME  *         2.40 SEC
 DISK USED  *        34.64 MB
 **********************************************************************************************************************************


 PROGRAM * CCSD (Closed-shell coupled cluster)     Authors: C. Hampel, H.-J. Werner, 1991, M. Deegan, P.J. Knowles, 1992


 CORETYPE=SMALL

 Convergence thresholds:  THRVAR = 1.00D-08  THRDEN = 1.00D-06

 CCSD(T)     terms to be evaluated (factor= 1.000)


 Number of closed-shell orbitals:   8 (   3   1   1   0   2   0   1   0 )
 Number of external orbitals:      48 (  10   4   7   2  11   5   7   2 )

 Molecular orbitals read from record     2100.2  Type=RHF/CANONICAL  

 Number of N-1 electron functions:               8
 Number of N-2 electron functions:              36
 Number of singly external CSFs:                70
 Number of doubly external CSFs:             10644
 Total number of CSFs:                       10715

 Length of J-op  integral file:               0.00 MB
 Length of K-op  integral file:               0.10 MB
 Length of 3-ext integral record:             0.00 MB

 Memory could be reduced to 0.24 Mwords without degradation in triples

 Integral transformation finished. Total CPU:   0.00 sec, npass=  1  Memory used:   0.13 MW

 Reference energy:                    -78.04105837

 MP2 singlet pair energy:              -0.24920659
 MP2 triplet pair energy:              -0.09835537
 MP2 correlation energy:               -0.34756196
 MP2 total energy:                    -78.38862033

 SCS-MP2 correlation energy:           -0.36024680   (PS=  1.200000  PT=  0.333333)
 SCS-MP2 total energy:                -78.40130517

 ITER.      SQ.NORM     CORR.ENERGY   TOTAL ENERGY   ENERGY CHANGE        DEN1      VAR(S)    VAR(P)  DIIS     TIME  TIME/IT
   1      1.11863323    -0.37818862   -78.41924699    -0.03062666    -0.02117335  0.11D-02  0.20D-02  1  1     0.37     0.02
   2      1.12945853    -0.38081339   -78.42187176    -0.00262477    -0.00903342  0.33D-04  0.32D-03  2  2     0.38     0.02
   3      1.13493129    -0.38114192   -78.42220029    -0.00032853    -0.00275897  0.63D-05  0.32D-04  3  3     0.39     0.03
   4      1.13685650    -0.38118031   -78.42223868    -0.00003839    -0.00062038  0.22D-06  0.34D-05  4  4     0.39     0.03
   5      1.13730973    -0.38119282   -78.42225120    -0.00001251    -0.00003214  0.75D-08  0.15D-06  5  5     0.40     0.03
   6      1.13735717    -0.38119120   -78.42224957     0.00000163    -0.00000952  0.16D-08  0.86D-08  6  6     0.41     0.03
   7      1.13736413    -0.38119084   -78.42224921     0.00000035    -0.00000147  0.15D-09  0.50D-09  6  1     0.42     0.03
   8      1.13736458    -0.38119082   -78.42224919     0.00000002     0.00000022  0.15D-10  0.33D-10  6  2     0.42     0.03

 Norm of t1 vector:      0.04929948      S-energy:     0.00000004      T1 diagnostic:  0.00871500
                                                                       D1 diagnostic:  0.03029518
                                                                       D2 diagnostic:  0.19518928 (internal)

 Doubles amplitudes (print threshold =  0.500E-01):

         I         J         SYM. A    SYM. B    A         B      T(IJ, AB)

         4         4         6         6         1         1     -0.13567605


 Total CPU time for triples:      0.04 sec


 RESULTS
 =======

  Reference energy                    -78.041058371918

  Correlated core orbitals:             1.1       1.5
  Orbital energies:                   -11.2358  -11.2341

  CCSD core-core energy                -0.063346340308
  CCSD core-valence energy             -0.011668633244
  CCSD valence correlation energy      -0.306175845140

  CCSD singlet pair energy             -0.290525522003
  CCSD triplet pair energy             -0.090665337545
  CCSD correlation energy              -0.381190818692

  Triples (T) contribution             -0.010324199581
  Total correlation energy             -0.391515018273

  CCSD total energy                   -78.422249190610
  CCSD[T] energy                      -78.432868178765
  CCSD-T energy                       -78.432454979041
 !CCSD(T) total energy                -78.432573390190

 Timing summary (sec):

 STEP                 CPU(USER)    SYS     CPU(TOT)    WALL
 Transformation          0.01      0.00      0.01      0.07
 CCSD iterations         0.42      0.01      0.43      0.42
 Triples                 0.04      0.00      0.04      0.04

 Program statistics:

 Available memory in ccsd:               393215741
 Min. memory needed in ccsd:                 37055
 Max. memory used in ccsd:                   45193
 Max. memory used in cckext:                 72087 ( 8 integral passes)



 **********************************************************************************************************************************
 DATASETS  * FILE   NREC   LENGTH (MB)   RECORD NAMES
              1      20       30.30       500      610      700      900      950      970     1000      129      960     1100   
                                          VAR    BASINP    GEOM    SYMINP    ZMAT    AOBASIS   BASIS     P2S    ABASIS      S 
                                         1400     1410     1200     1210     1080     1600     1650     1300     1700     1380   
                                           T        V       H0       H01     AOSYM     SMH    MOLCAS    ERIS     OPER     JKOP   

              2       4        0.43       700     1000      520     2100   
                                         GEOM     BASIS   MCVARS     RHF  

 PROGRAMS   *        TOTAL   CCSD(T)    HF-SCF       INT
 CPU TIMES  *         0.37      0.13      0.01      0.14
 REAL TIME  *         3.17 SEC
 DISK USED  *        34.64 MB
 **********************************************************************************************************************************

 Dump information in style XML to xml output                                                                      

 Orbitals will not be exported.

 **********************************************************************************************************************************

 CCSD(T)/cc-pCVDZ energy=    -78.432573390190

         CCSD(T)          HF-SCF
    -78.43257339    -78.04105837
 **********************************************************************************************************************************
 Molpro calculation terminated
