
 Working directory              : /var/folders/2v/xbgp75_9785319ghcgb4zr4r0000gp/T//molpro.EuRA6N90Rm/
 Global scratch directory       : /var/folders/2v/xbgp75_9785319ghcgb4zr4r0000gp/T//molpro.EuRA6N90Rm/
 Wavefunction directory         : /Users/sacpjk/wfu/
 Main file repository           : /var/folders/2v/xbgp75_9785319ghcgb4zr4r0000gp/T//molpro.EuRA6N90Rm/

 id        : peterk

 Nodes                        nprocs
 Cardiff-University-G34YLXT77Y    1
 GA implementation: MPI file
 GA implementation (serial work in mppx): MPI file

 Using customized tuning parameters: mindgm=1; mindgv=20; mindgc=4; mindgr=1; noblas=0; minvec=7
 default implementation of scratch files=df  


 Variables initialized (1032), CPU time= 0.00 sec
 
 core,small
 angstrom
 
 geometry={
 F;F,F,1.41134168
 }
 basis=cc-pCVDZ
 
 
 
 hf; hf; papt; mp4
 
 
 
 {put,xml;noorbitals,nobasis}
 Commands initialized (841), CPU time= 0.01 sec, 704 directives.
 Default parameters read. Elapsed time= 0.59 sec

 Checking input...
 Passed
1


                                         ***  PROGRAM SYSTEM MOLPRO  ***
                                       Copyright, TTI GmbH Stuttgart, 2015
                                    Version 2023.1 linked Tue Jun  6 09:54:11 2023


 **********************************************************************************************************************************
 LABEL *                                                                                                                                                                 
  64 bit serial version                                                                  DATE: 12-Jun-23          TIME: 09:39:35  
 **********************************************************************************************************************************

 SHA1:             8ebb0dd001088a5c915591db1a321413035db0b1
 **********************************************************************************************************************************

 Memory per process:       393 MW
 Total memory per node:    524 MW
 Total GA space:           131 MW

 GA preallocation disabled
 GA check enabled

 Variable memory set to 393.2 MW

 ZUNIT=ANG

 SETTING BASIS          =    CC-PCVDZ


 Recomputing integrals since basis changed


 Using spherical harmonics

 Library entry F      S cc-pCVDZ             selected for orbital group  1
 Library entry F      P cc-pCVDZ             selected for orbital group  1
 Library entry F      D cc-pCVDZ             selected for orbital group  1


 PROGRAM * SEWARD (Integral evaluation for generally contracted gaussian basis sets)     Author: Roland Lindh, 1990

 Geometry written to block  1 of record 700

 Orientation using atomic masses  
 Molecule type: Linear
 Symmetry elements: X,Y,Z
 Rotational constants:      26.7094998     26.7094998      0.0000000 GHz  (calculated with average atomic masses)

 Point group  D2h 



 ATOMIC COORDINATES

 NR  ATOM    CHARGE       X              Y              Z

   1  F       9.00    0.000000000    0.000000000   -1.333524622
   2  F       9.00    0.000000000    0.000000000    1.333524622

 Bond lengths in Bohr (Angstrom)

 1-2  2.667049243
     ( 1.411341680)

 NUCLEAR CHARGE:                   18
 NUMBER OF PRIMITIVE AOS:          62
 NUMBER OF SYMMETRY AOS:           60
 NUMBER OF CONTRACTIONS:           36   (    9Ag  +    4B3u +    4B2u +    1B1g +    9B1u +    4B2g +    4B3g +    1Au  )
 NUMBER OF INNER CORE ORBITALS:     0   (    0Ag  +    0B3u +    0B2u +    0B1g +    0B1u +    0B2g +    0B3g +    0Au  )
 NUMBER OF OUTER CORE ORBITALS:     2   (    1Ag  +    0B3u +    0B2u +    0B1g +    1B1u +    0B2g +    0B3g +    0Au  )
 NUMBER OF VALENCE ORBITALS:        8   (    2Ag  +    1B3u +    1B2u +    0B1g +    2B1u +    1B2g +    1B3g +    0Au  )


 NUCLEAR REPULSION ENERGY   30.37064284

 EXTRA SYMMETRY OF AOS IN SYMMETRY 1:   1 1 1 1 1 1 1 1 2
 EXTRA SYMMETRY OF AOS IN SYMMETRY 5:   1 1 1 1 1 1 1 1 2

 Eigenvalues of metric

         1 0.388E-01 0.863E-01 0.169E+00 0.996E+00 0.100E+01 0.108E+01 0.165E+01 0.198E+01
         2 0.197E+00 0.997E+00 0.103E+01 0.220E+01
         3 0.197E+00 0.997E+00 0.103E+01 0.220E+01
         4 0.100E+01
         5 0.215E-01 0.708E-01 0.142E+00 0.598E+00 0.952E+00 0.997E+00 0.108E+01 0.176E+01
         6 0.161E+00 0.931E+00 0.991E+00 0.149E+01
         7 0.161E+00 0.931E+00 0.991E+00 0.149E+01
         8 0.997E+00


 Contracted 2-electron integrals neglected if value below      1.0D-11
 AO integral compression algorithm  1   Integral accuracy      1.0D-11

     0.524 MB (compressed) written to integral file ( 81.0%)


 NUMBER OF SORTED TWO-ELECTRON INTEGRALS:      34089.     BUFFER LENGTH:  32768
 NUMBER OF SEGMENTS:   1  SEGMENT LENGTH:      34089      RECORD LENGTH: 524288

 Memory used in sort:       0.59 MW

 SORT1 READ       77840. AND WROTE       31449. INTEGRALS IN      1 RECORDS. CPU TIME:     0.01 SEC, REAL TIME:     0.01 SEC
 SORT2 READ       31449. AND WROTE       34089. INTEGRALS IN      2 RECORDS. CPU TIME:     0.01 SEC, REAL TIME:     0.02 SEC

 FILE SIZES:   FILE 1:    30.5 MBYTE,  FILE 4:     4.3 MBYTE,   TOTAL:     34.8 MBYTE

 OPERATOR DM      FOR CENTER  0  COORDINATES:    0.000000    0.000000    0.000000


 **********************************************************************************************************************************
 DATASETS  * FILE   NREC   LENGTH (MB)   RECORD NAMES
              1      19       28.80       500      610      700      900      950      970     1000      129      960     1100   
                                          VAR    BASINP    GEOM    SYMINP    ZMAT    AOBASIS   BASIS     P2S    ABASIS      S 
                                         1400     1410     1200     1210     1080     1600     1650     1300     1700   
                                           T        V       H0       H01     AOSYM     SMH    MOLCAS    ERIS     OPER   

 PROGRAMS   *        TOTAL       INT
 CPU TIMES  *         0.18      0.08
 REAL TIME  *         2.86 SEC
 DISK USED  *        33.51 MB
 **********************************************************************************************************************************


 Program * Restricted Hartree-Fock

 Orbital guess generated from atomic densities. Full valence occupancy:    3   1   1   0   3   1   1   0


 Initial occupancy:   3   1   1   0   2   1   1   0

 NELEC=   18   SYM=1   MS2= 0   THRE=1.0D-08   THRD=3.2D-06   THRG=3.2D-06  HFMA2=F  DIIS_START=2   DIIS_MAX=10   DIIS_INCORE=F

 Level shifts:    0.00 (CLOSED)    0.00 (OPEN)    0.30 (GAP_MIN)

 ITER           ETOT              DE          GRAD        DDIFF     DIIS  NEXP   TIME(IT)  TIME(TOT)  DIAG
   1     -198.66303915    -198.66303915     0.00D+00     0.51D+00     0     0       0.00      0.00    start
   2     -198.68419171      -0.02115256     0.30D-01     0.34D-01     1     0       0.00      0.00    diag
   3     -198.68600063      -0.00180892     0.97D-02     0.99D-02     2     0       0.00      0.00    diag
   4     -198.68609099      -0.00009036     0.15D-02     0.22D-02     3     0       0.00      0.00    diag
   5     -198.68609692      -0.00000593     0.39D-03     0.53D-03     4     0       0.00      0.00    diag
   6     -198.68609702      -0.00000010     0.52D-04     0.63D-04     5     0       0.00      0.00    diag
   7     -198.68609702      -0.00000000     0.77D-05     0.84D-05     6     0       0.00      0.00    diag
   8     -198.68609702      -0.00000000     0.55D-06     0.79D-06     7     0       0.00      0.00    fixocc
   9     -198.68609702      -0.00000000     0.29D-07     0.47D-07     0     0       0.00      0.00    diag

 Final occupancy:   3   1   1   0   2   1   1   0

 !RHF STATE 1.1 Energy               -198.686097020303
  RHF One-electron energy            -338.484861651641
  RHF Two-electron energy             109.428121795123
  RHF Kinetic energy                  198.586932685554
  RHF Nuclear energy                   30.370642836215
  RHF Virial quotient                  -1.000499349748

 !RHF STATE 1.1 Dipole moment           0.00000000     0.00000000     0.00000000
 Dipole moment /Debye                   0.00000000     0.00000000     0.00000000

 Orbital energies:

           1.1          2.1          3.1          4.1          5.1
    -26.431452    -1.768201    -0.744745     1.549275     1.786392

           1.2          2.2          3.2
     -0.806983     1.306470     3.669484

           1.3          2.3          3.3
     -0.806983     1.306470     3.669484

           1.4
      3.875145

           1.5          2.5          3.5          4.5
    -26.431209    -1.499416     0.096672     1.347340

           1.6          2.6          3.6
     -0.662659     1.493430     4.161946

           1.7          2.7          3.7
     -0.662659     1.493430     4.161946

           1.8
      3.927687


 HOMO      1.7    -0.662659 =     -18.0319eV
 LUMO      3.5     0.096672 =       2.6306eV
 LUMO-HOMO         0.759331 =      20.6624eV

 Orbitals saved in record  2100.2


 **********************************************************************************************************************************
 DATASETS  * FILE   NREC   LENGTH (MB)   RECORD NAMES
              1      19       28.80       500      610      700      900      950      970     1000      129      960     1100   
                                          VAR    BASINP    GEOM    SYMINP    ZMAT    AOBASIS   BASIS     P2S    ABASIS      S 
                                         1400     1410     1200     1210     1080     1600     1650     1300     1700   
                                           T        V       H0       H01     AOSYM     SMH    MOLCAS    ERIS     OPER   

              2       4        0.38       700     1000      520     2100   
                                         GEOM     BASIS   MCVARS     RHF  

 PROGRAMS   *        TOTAL    HF-SCF       INT
 CPU TIMES  *         0.18      0.00      0.08
 REAL TIME  *         3.18 SEC
 DISK USED  *        33.51 MB
 **********************************************************************************************************************************


 Program * Restricted Hartree-Fock

 Molecular orbitals read from record     2100.2  Type=RHF/CANONICAL  

 Initial occupancy:   3   1   1   0   2   1   1   0

 NELEC=   18   SYM=1   MS2= 0   THRE=1.0D-08   THRD=3.2D-06   THRG=3.2D-06  HFMA2=F  DIIS_START=2   DIIS_MAX=10   DIIS_INCORE=F

 Level shifts:    0.00 (CLOSED)    0.00 (OPEN)    0.30 (GAP_MIN)

 ITER           ETOT              DE          GRAD        DDIFF     DIIS  NEXP   TIME(IT)  TIME(TOT)  DIAG
   1     -198.68609702    -198.68609702     0.00D+00     0.52D+00     0     0       0.00      0.00    start
   2     -198.68609702      -0.00000000     0.91D-08     0.17D-07     1     0       0.00      0.00    diag

 Final occupancy:   3   1   1   0   2   1   1   0

 !RHF STATE 1.1 Energy               -198.686097020303
  RHF One-electron energy            -338.484862049601
  RHF Two-electron energy             109.428122193084
  RHF Kinetic energy                  198.586933324346
  RHF Nuclear energy                   30.370642836215
  RHF Virial quotient                  -1.000499346529

 !RHF STATE 1.1 Dipole moment           0.00000000     0.00000000     0.00000000
 Dipole moment /Debye                   0.00000000     0.00000000     0.00000000

 Orbital energies:

           1.1          2.1          3.1          4.1          5.1
    -26.431452    -1.768201    -0.744745     1.549275     1.786392

           1.2          2.2          3.2
     -0.806984     1.306470     3.669484

           1.3          2.3          3.3
     -0.806984     1.306470     3.669484

           1.4
      3.875145

           1.5          2.5          3.5          4.5
    -26.431209    -1.499416     0.096672     1.347340

           1.6          2.6          3.6
     -0.662659     1.493430     4.161946

           1.7          2.7          3.7
     -0.662659     1.493430     4.161946

           1.8
      3.927687


 HOMO      1.7    -0.662659 =     -18.0319eV
 LUMO      3.5     0.096672 =       2.6306eV
 LUMO-HOMO         0.759331 =      20.6624eV

 Orbitals saved in record  2101.2


 **********************************************************************************************************************************
 DATASETS  * FILE   NREC   LENGTH (MB)   RECORD NAMES
              1      19       28.80       500      610      700      900      950      970     1000      129      960     1100   
                                          VAR    BASINP    GEOM    SYMINP    ZMAT    AOBASIS   BASIS     P2S    ABASIS      S 
                                         1400     1410     1200     1210     1080     1600     1650     1300     1700   
                                           T        V       H0       H01     AOSYM     SMH    MOLCAS    ERIS     OPER   

              2       5        0.49       700     1000      520     2100     2101   
                                         GEOM     BASIS   MCVARS     RHF      RHF  

 PROGRAMS   *        TOTAL    HF-SCF    HF-SCF       INT
 CPU TIMES  *         0.19      0.00      0.00      0.08
 REAL TIME  *         3.77 SEC
 DISK USED  *        33.51 MB
 **********************************************************************************************************************************


 PROGRAM * PAPT (Closed-shell)     Authors: C. Hampel, H.-J. Werner, 1991, P.J. Knowles, 2021


 CORETYPE=SMALL

 Convergence thresholds:  THRVAR = 1.00D-08  THRDEN = 1.00D-06

 Number of closed-shell orbitals:   9 (   3   1   1   0   2   1   1   0 )
 Number of external orbitals:      27 (   6   3   3   1   7   3   3   1 )

 Molecular orbitals read from record     2101.2  Type=RHF/CANONICAL  

 Number of N-1 electron functions:               9
 Number of N-2 electron functions:              45
 Number of singly external CSFs:                44
 Number of doubly external CSFs:              4191
 Total number of CSFs:                        4236

 Length of J-op  integral file:               0.00 MB
 Length of K-op  integral file:               0.08 MB

 Integral transformation finished. Total CPU:   0.00 sec, npass=  1  Memory used:   0.07 MW

 Reference energy:                   -198.68609702

                        CORR.ENERGY   TOTAL ENERGY   ENERGY CHANGE
 MP2:                   -0.47606524  -199.16216226    -0.47606524

 SCS-MP2 correlation energy:           -0.47521162   (PS=  1.200000  PT=  0.333333)
 SCS-MP2 total energy:               -199.16130864
 Iteration:   1     0.4737D+00
 Iteration:   2     0.1157D+02
 Iteration:   3     0.2293D+00
 Iteration:   4     0.2109D+00
 Iteration:   5     0.1039D+00
 Iteration:   6     0.6042D-01
 Iteration:   7     0.4846D-01
 Iteration:   8     0.1522D-01
 Iteration:   9     0.2723D-01
 Iteration:  10     0.1181D-01
 Iteration:  11     0.2204D-02
 Iteration:  12     0.1149D-02
 Iteration:  13     0.9362D-03
 Iteration:  14     0.2138D-03
 Iteration:  15     0.4676D-03
 Iteration:  16     0.7609D-04
 PAPT operator written to  7000.1
 PAPT orbitals and eigenvalues written to  7000.2

 MP3(D):                -0.47899635  -199.16509337    -0.00293111



 RESULTS
 =======

  Reference energy                   -198.686097020303

  Correlated core orbitals:             1.1       1.5
  Orbital energies:                   -26.4315  -26.4312

  MP3 core-core energy                 -0.059984867559
  MP3 core-valence energy              -0.017168199582
  MP3 valence correlation energy       -0.401843281693

  MP3 singlet pair energy              -0.331535600337
  MP3 triplet pair energy              -0.147460748497
  MP3 correlation energy               -0.478996348834

 !MP3 total energy                   -199.165093369138

 Timing summary (sec):

 STEP                 CPU(USER)    SYS     CPU(TOT)    WALL
 Transformation          0.01      0.00      0.01      0.40
 CCSD iterations         0.31      0.02      0.33      1.27

 Program statistics:

 Available memory in ccsd:               393215673
 Min. memory needed in ccsd:                 16677
 Max. memory used in ccsd:                   19564
 Max. memory used in cckext:                 52445 ( 1 integral passes)



 **********************************************************************************************************************************
 DATASETS  * FILE   NREC   LENGTH (MB)   RECORD NAMES
              1      21       28.91       500      610      700      900      950      970     1000      129      960     1100   
                                          VAR    BASINP    GEOM    SYMINP    ZMAT    AOBASIS   BASIS     P2S    ABASIS      S 
                                         1400     1410     1200     1210     1080     1600     1650     1300     1700     1380   
                                           T        V       H0       H01     AOSYM     SMH    MOLCAS    ERIS     OPER     JKOP   
                                         7000   
                                        PAPT AO    

              2       6        0.59       700     1000      520     2100     2101     7000   
                                         GEOM     BASIS   MCVARS     RHF      RHF     PAPT   

 PROGRAMS   *        TOTAL      PAPT    HF-SCF    HF-SCF       INT
 CPU TIMES  *         0.24      0.06      0.00      0.00      0.08
 REAL TIME  *         5.64 SEC
 DISK USED  *        33.51 MB
 **********************************************************************************************************************************


 PROGRAM * MP4 (Closed-shell)     Authors: C. Hampel, H.-J. Werner, 1991, M. Deegan, P.J. Knowles, 1992


 CORETYPE=SMALL

 Convergence thresholds:  THRVAR = 1.00D-08  THRDEN = 1.00D-06

 MP4(T)     terms to be evaluated (factor= 0.000)


 Number of closed-shell orbitals:   9 (   3   1   1   0   2   1   1   0 )
 Number of external orbitals:      27 (   6   3   3   1   7   3   3   1 )

 Molecular orbitals read from record     7000.2  Type=PAPT/CANONICAL (state 1.1)

 Number of N-1 electron functions:               9
 Number of N-2 electron functions:              45
 Number of singly external CSFs:                44
 Number of doubly external CSFs:              4191
 Total number of CSFs:                        4236

 Length of J-op  integral file:               0.00 MB
 Length of K-op  integral file:               0.08 MB

 Memory could be reduced to 0.10 Mwords without degradation in triples

 Integral transformation finished. Total CPU:   0.00 sec, npass=  1  Memory used:   0.09 MW
 Orbital energies read from record       7000.2  Type=PAPT/CANONICAL (state 1.1)

 Reference energy:                   -198.68609702

                        CORR.ENERGY   TOTAL ENERGY   ENERGY CHANGE
 MP2:                   -0.48194589  -199.16804291    -0.48194589

 SCS-MP2 correlation energy:           -0.48345023   (PS=  1.200000  PT=  0.333333)
 SCS-MP2 total energy:               -199.16954725

 MP3(D):                -0.48222453  -199.16832155    -0.00027864
 MP4(DQ):               -0.48150624  -199.16760326     0.00071829
 MP4(SDQ):              -0.48542896  -199.17152598    -0.00392272

 Norm of t1 vector:      0.04032956      S-energy:    -0.00392272      T1 diagnostic:  0.00672159

 Largest off-diagonal element in interal  block of Fock matrix:  0.16D+00
 Largest off-diagonal element in external block of Fock matrix:  0.30D+00


 Total CPU time for triples:      0.01 sec


 RESULTS
 =======

  Reference energy                   -198.686097020303

  Correlated core orbitals:             1.1       1.5
  Orbital energies:                   -24.7600  -24.7871

  MP4(SDQ) core-core energy            -0.060334492751
  MP4(SDQ) core-valence energy         -0.017006283675
  MP4(SDQ) valence correlation ener    -0.408088186277

  MP4(SDQ) singlet pair energy         -0.331092965652
  MP4(SDQ) triplet pair energy         -0.150413276177
  MP4(SDQ) correlation energy          -0.485428962703

  Triples contribution                 -0.009760065541
  Total correlation energy             -0.495189028244

  MP4(SDQ) total energy              -199.171525983006
 !MP4(SDTQ) total energy             -199.181286048547

 Timing summary (sec):

 STEP                 CPU(USER)    SYS     CPU(TOT)    WALL
 CCSD iterations         0.36      0.01      0.37      0.23
 Triples                 0.01      0.00      0.01      0.01

 Program statistics:

 Available memory in ccsd:               393215673
 Min. memory needed in ccsd:                 16677
 Max. memory used in ccsd:                   19564
 Max. memory used in cckext:                 52445 ( 1 integral passes)



 **********************************************************************************************************************************
 DATASETS  * FILE   NREC   LENGTH (MB)   RECORD NAMES
              1      22       29.00       500      610      700      900      950      970     1000      129      960     1100   
                                          VAR    BASINP    GEOM    SYMINP    ZMAT    AOBASIS   BASIS     P2S    ABASIS      S 
                                         1400     1410     1200     1210     1080     1600     1650     1300     1700     1380   
                                           T        V       H0       H01     AOSYM     SMH    MOLCAS    ERIS     OPER     JKOP   
                                         7000     1380(1)
                                        PAPT AO   JKOP   

              2       6        0.59       700     1000      520     2100     2101     7000   
                                         GEOM     BASIS   MCVARS     RHF      RHF     PAPT   

 PROGRAMS   *        TOTAL       MP4      PAPT    HF-SCF    HF-SCF       INT
 CPU TIMES  *         0.29      0.05      0.06      0.00      0.00      0.08
 REAL TIME  *         6.11 SEC
 DISK USED  *        33.51 MB
 **********************************************************************************************************************************

 Dump information in style XML to xml output                                                                      

 Orbitals will not be exported.

 **********************************************************************************************************************************

 MP4/cc-pCVDZ energy=   -199.181286048547

             MP4            PAPT          HF-SCF          HF-SCF
   -199.18128605   -199.16509337   -198.68609702   -198.68609702
 **********************************************************************************************************************************
 Molpro calculation terminated
