
 Working directory              : /var/folders/2v/xbgp75_9785319ghcgb4zr4r0000gp/T//molpro.Jh230QpMtD/
 Global scratch directory       : /var/folders/2v/xbgp75_9785319ghcgb4zr4r0000gp/T//molpro.Jh230QpMtD/
 Wavefunction directory         : /Users/sacpjk/wfu/
 Main file repository           : /var/folders/2v/xbgp75_9785319ghcgb4zr4r0000gp/T//molpro.Jh230QpMtD/

 id        : peterk

 Nodes                        nprocs
 Cardiff-University-G34YLXT77Y    1
 GA implementation: MPI file
 GA implementation (serial work in mppx): MPI file

 Using customized tuning parameters: mindgm=1; mindgv=20; mindgc=4; mindgr=1; noblas=0; minvec=7
 default implementation of scratch files=df  


 Variables initialized (1032), CPU time= 0.00 sec
 
 symmetry,nosym
 
 
 geometry={
           11
     C          0.00000000      0.00000000     -1.12416999
     C          0.00000000      1.17942683     -0.18959511
     C          0.00000000     -1.17942683     -0.18959511
     C          0.00000000      0.73434652      1.08066238
     C          0.00000000     -0.73434652      1.08066238
     H          0.87715879      0.00000000     -1.78568428
     H         -0.87715879      0.00000000     -1.78568428
     H          0.00000000      2.21027975     -0.51635501
     H          0.00000000     -2.21027975     -0.51635501
     H          0.00000000      1.34728622      1.97305702
     H          0.00000000     -1.34728622      1.97305702
 }
 basis=cc-pVDZ
 
 
 
 hf
 
 
 
 {put,xml;noorbitals,nobasis}
 Commands initialized (841), CPU time= 0.01 sec, 704 directives.
 Default parameters read. Elapsed time= 0.14 sec

 Checking input...
 Passed
1


                                         ***  PROGRAM SYSTEM MOLPRO  ***
                                       Copyright, TTI GmbH Stuttgart, 2015
                                    Version 2023.1 linked Tue Jun  6 09:54:11 2023


 **********************************************************************************************************************************
 LABEL *                                                                                                                                                                 
  64 bit serial version                                                                  DATE: 10-Jun-23          TIME: 14:40:54  
 **********************************************************************************************************************************

 SHA1:             8ebb0dd001088a5c915591db1a321413035db0b1
 **********************************************************************************************************************************

 Memory per process:       805 MW
 Total memory per node:   1074 MW
 Total GA space:           268 MW

 GA preallocation disabled
 GA check enabled

 Variable memory set to 805.3 MW

 ZSYMEL=NOSYM


 Geometry recognized as XYZ

 SETTING BASIS          =    CC-PVDZ


 Recomputing integrals since basis changed


 Using spherical harmonics

 Library entry C      S cc-pVDZ              selected for orbital group  1
 Library entry C      P cc-pVDZ              selected for orbital group  1
 Library entry C      D cc-pVDZ              selected for orbital group  1
 Library entry H      S cc-pVDZ              selected for orbital group  2
 Library entry H      P cc-pVDZ              selected for orbital group  2


 PROGRAM * SEWARD (Integral evaluation for generally contracted gaussian basis sets)     Author: Roland Lindh, 1990

 Geometry written to block  1 of record 700


 Point group  C1  



 ATOMIC COORDINATES

 NR  ATOM    CHARGE       X              Y              Z

   1  C       6.00    0.000000000    0.000000000   -2.124373399
   2  C       6.00    0.000000000    2.228793693   -0.358282832
   3  C       6.00    0.000000000   -2.228793693   -0.358282832
   4  C       6.00    0.000000000    1.387713803    2.042155931
   5  C       6.00    0.000000000   -1.387713803    2.042155931
   6  H       1.00    1.657589881    0.000000000   -3.374454234
   7  H       1.00   -1.657589881    0.000000000   -3.374454234
   8  H       1.00    0.000000000    4.176823386   -0.975769552
   9  H       1.00    0.000000000   -4.176823386   -0.975769552
  10  H       1.00    0.000000000    2.546001967    3.728537396
  11  H       1.00    0.000000000   -2.546001967    3.728537396

 Bond lengths in Bohr (Angstrom)

 1-2  2.843694290  1-3  2.843694290  1-6  2.076127720  1-7  2.076127720  2-4  2.543525435
     ( 1.504818213)     ( 1.504818213)     ( 1.098639476)     ( 1.098639476)     ( 1.345975696)

  2- 8  2.043553164   3- 5  2.543525435   3- 9  2.043553164   4- 5  2.775427607   4-10  2.045852858
       ( 1.081401764)       ( 1.345975696)       ( 1.081401764)       ( 1.468693040)       ( 1.082618709)

  5-11  2.045852858
       ( 1.082618709)

 Bond angles

  1-2-4  109.08347620   1-2-8  124.01920166   1-3-5  109.08347620   1-3-9  124.01920166

  2-1-3  103.21356521   2-1-6  111.95946094   2-1-7  111.95946094   2-4-5  109.30974119

  2- 4-10  126.20710066   3- 1- 6  111.95946094   3- 1- 7  111.95946094   3- 5- 4  109.30974119

  3- 5-11  126.20710066   4- 2- 8  126.89732214   4- 5-11  124.48315815   5- 3- 9  126.89732214

  5- 4-10  124.48315815   6- 1- 7  105.95603988

 NUCLEAR CHARGE:                   36
 NUMBER OF PRIMITIVE AOS:         177
 NUMBER OF SYMMETRY AOS:          172
 NUMBER OF CONTRACTIONS:          100   (  100A   )
 NUMBER OF INNER CORE ORBITALS:     0   (    0A   )
 NUMBER OF OUTER CORE ORBITALS:     5   (    5A   )
 NUMBER OF VALENCE ORBITALS:       26   (   26A   )


 NUCLEAR REPULSION ENERGY  156.67952411

 EXTRA SYMMETRY OF AOS IN SYMMETRY 1:   1 1 1 1 1 1 1 1 1 1   2 1 1 1 1 1 1 2 1 1   2 1 1 1 2 2 1 1 1 1   1 2 1 1 2 1 1 1 2 2
                                        1 1 1 1 1 2 1 1 2 1   1 1 2 2 1 1 1 1 1 2   1 1 2 1 1 1 2 2 1 1   1 1 1 2 1 1 1 1 2 1
                                        1 1 2 1 1 1 1 2 1 1   1 1 2 1 1 1 1 2 1 1

 Eigenvalues of metric

         1 0.102E-02 0.147E-02 0.496E-02 0.531E-02 0.781E-02 0.172E-01 0.175E-01 0.200E-01


 Contracted 2-electron integrals neglected if value below      1.0D-11
 AO integral compression algorithm  1   Integral accuracy      1.0D-11

     42.467 MB (compressed) written to integral file ( 37.5%)


 NUMBER OF SORTED TWO-ELECTRON INTEGRALS:   12753775.     BUFFER LENGTH:  32768
 NUMBER OF SEGMENTS:   1  SEGMENT LENGTH:   12753775      RECORD LENGTH: 524288

 Memory used in sort:      13.31 MW

 SORT1 READ    14136583. AND WROTE     8552640. INTEGRALS IN     25 RECORDS. CPU TIME:     0.09 SEC, REAL TIME:     0.11 SEC
 SORT2 READ     8552640. AND WROTE    12753775. INTEGRALS IN    162 RECORDS. CPU TIME:     0.11 SEC, REAL TIME:     0.14 SEC

 FILE SIZES:   FILE 1:    73.0 MBYTE,  FILE 4:   104.9 MBYTE,   TOTAL:    177.9 MBYTE

 OPERATOR DM      FOR CENTER  0  COORDINATES:    0.000000    0.000000    0.000000


 **********************************************************************************************************************************
 DATASETS  * FILE   NREC   LENGTH (MB)   RECORD NAMES
              1      19       64.75       500      610      700      900      950      970     1000      129      960     1100   
                                          VAR    BASINP    GEOM    SYMINP    ZMAT    AOBASIS   BASIS     P2S    ABASIS      S 
                                         1400     1410     1200     1210     1080     1600     1650     1300     1700   
                                           T        V       H0       H01     AOSYM     SMH    MOLCAS    ERIS     OPER   

 PROGRAMS   *        TOTAL       INT
 CPU TIMES  *         0.98      0.88
 REAL TIME  *         1.71 SEC
 DISK USED  *       170.19 MB
 **********************************************************************************************************************************


 Program * Restricted Hartree-Fock

 Orbital guess generated from atomic densities. Full valence occupancy:   31

 Initial occupancy:  18

 NELEC=   36   SYM=1   MS2= 0   THRE=1.0D-08   THRD=3.2D-06   THRG=3.2D-06  HFMA2=F  DIIS_START=2   DIIS_MAX=10   DIIS_INCORE=F

 Level shifts:    0.00 (CLOSED)    0.00 (OPEN)    0.30 (GAP_MIN)

 ITER           ETOT              DE          GRAD        DDIFF     DIIS  NEXP   TIME(IT)  TIME(TOT)  DIAG
   1     -192.75040061    -192.75040061     0.00D+00     0.11D+00     0     0       0.05      0.10    start
   2     -192.80021486      -0.04981425     0.48D-02     0.11D-01     1     0       0.05      0.15    diag
   3     -192.80718972      -0.00697486     0.20D-02     0.39D-02     2     0       0.06      0.21    diag
   4     -192.80840475      -0.00121503     0.63D-03     0.16D-02     3     0       0.05      0.26    diag
   5     -192.80845838      -0.00005363     0.13D-03     0.32D-03     4     0       0.06      0.32    diag
   6     -192.80847071      -0.00001233     0.59D-04     0.14D-03     5     0       0.05      0.37    diag
   7     -192.80847182      -0.00000111     0.14D-04     0.38D-04     6     0       0.06      0.43    diag
   8     -192.80847189      -0.00000006     0.36D-05     0.94D-05     7     0       0.05      0.48    fixocc
   9     -192.80847189      -0.00000000     0.10D-05     0.30D-05     8     0       0.06      0.54    diag
  10     -192.80847189      -0.00000000     0.19D-06     0.42D-06     0     0       0.05      0.59    diag/orth

 Final occupancy:  18

 !RHF STATE 1.1 Energy               -192.808471890548
  RHF One-electron energy            -569.441586607789
  RHF Two-electron energy             219.953590611631
  RHF Kinetic energy                  192.621507510119
  RHF Nuclear energy                  156.679524105610
  RHF Virial quotient                  -1.000970630865

 !RHF STATE 1.1 Dipole moment           0.00000000     0.00000000    -0.14155503
 Dipole moment /Debye                   0.00000000     0.00000000    -0.35979699

 Orbital energies:

           1.1          2.1          3.1          4.1          5.1          6.1          7.1          8.1          9.1         10.1
    -11.233938   -11.230134   -11.229522   -11.227808   -11.227708    -1.148372    -0.962432    -0.952256    -0.752444    -0.723789

          11.1         12.1         13.1         14.1         15.1         16.1         17.1         18.1         19.1         20.1
     -0.691679    -0.588246    -0.557604    -0.524106    -0.503368    -0.498271    -0.410247    -0.305277     0.130735     0.194374


 HOMO     18.1    -0.305277 =      -8.3070eV
 LUMO     19.1     0.130735 =       3.5575eV
 LUMO-HOMO         0.436012 =      11.8645eV

 Orbitals saved in record  2100.2


 **********************************************************************************************************************************
 DATASETS  * FILE   NREC   LENGTH (MB)   RECORD NAMES
              1      19       64.75       500      610      700      900      950      970     1000      129      960     1100   
                                          VAR    BASINP    GEOM    SYMINP    ZMAT    AOBASIS   BASIS     P2S    ABASIS      S 
                                         1400     1410     1200     1210     1080     1600     1650     1300     1700   
                                           T        V       H0       H01     AOSYM     SMH    MOLCAS    ERIS     OPER   

              2       4        0.71       700     1000      520     2100   
                                         GEOM     BASIS   MCVARS     RHF  

 PROGRAMS   *        TOTAL    HF-SCF       INT
 CPU TIMES  *         1.57      0.59      0.88
 REAL TIME  *         2.66 SEC
 DISK USED  *       170.19 MB
 **********************************************************************************************************************************

 Dump information in style XML to xml output                                                                      

 Orbitals will not be exported.

 **********************************************************************************************************************************

 HF/cc-pVDZ energy=   -192.808471890548

          HF-SCF
   -192.80847189
 **********************************************************************************************************************************
 Molpro calculation terminated
