
 Working directory              : /var/folders/2v/xbgp75_9785319ghcgb4zr4r0000gp/T//molpro.bdXScJlols/
 Global scratch directory       : /var/folders/2v/xbgp75_9785319ghcgb4zr4r0000gp/T//molpro.bdXScJlols/
 Wavefunction directory         : /Users/sacpjk/wfu/
 Main file repository           : /var/folders/2v/xbgp75_9785319ghcgb4zr4r0000gp/T//molpro.bdXScJlols/

 id        : peterk

 Nodes                        nprocs
 Cardiff-University-G34YLXT77Y    1
 GA implementation: MPI file
 GA implementation (serial work in mppx): MPI file

 Using customized tuning parameters: mindgm=1; mindgv=20; mindgc=4; mindgr=1; noblas=0; minvec=7
 default implementation of scratch files=df  


 Variables initialized (1032), CPU time= 0.00 sec
 
 symmetry,nosym
 
 
 geometry={
           17
     H         -1.57581686     -1.69737749     -1.32881847
     C         -0.77642057     -1.31318135     -0.70291125
     H          1.97027941      0.35737124      0.00000000
     C          0.32626482     -0.58359509     -1.15742741
     C         -0.77642057     -1.31318135      0.70291125
     H          1.90993739     -1.41640139      0.00000000
     C          1.29420317     -0.50010806      0.00000000
     C         -0.36429442      1.50586765     -0.69397025
     H          0.63966393     -0.53049407     -2.19544478
     C         -0.36429442      1.50586765      0.69397025
     H         -1.57581686     -1.69737749      1.32881847
     C          0.32626482     -0.58359509      1.15742741
     H          0.63966393     -0.53049407      2.19544478
     H          0.46023787      1.95412681      1.24117344
     H         -1.29684476      1.44422263     -1.24394044
     H          0.46023787      1.95412681     -1.24117344
     H         -1.29684476      1.44422263      1.24394044
 }
 basis=cc-pVDZ
 
 
 
 hf; ccsd
 
 
 
 {put,xml;noorbitals,nobasis}
 Commands initialized (841), CPU time= 0.01 sec, 704 directives.
 Default parameters read. Elapsed time= 0.06 sec

 Checking input...
 Passed
1


                                         ***  PROGRAM SYSTEM MOLPRO  ***
                                       Copyright, TTI GmbH Stuttgart, 2015
                                    Version 2023.1 linked Tue Jun  6 09:54:11 2023


 **********************************************************************************************************************************
 LABEL *                                                                                                                                                                 
  64 bit serial version                                                                  DATE: 11-Jun-23          TIME: 07:20:23  
 **********************************************************************************************************************************

 SHA1:             8ebb0dd001088a5c915591db1a321413035db0b1
 **********************************************************************************************************************************

 Memory per process:       393 MW
 Total memory per node:    524 MW
 Total GA space:           131 MW

 GA preallocation disabled
 GA check enabled

 Variable memory set to 393.2 MW

 ZSYMEL=NOSYM


 Geometry recognized as XYZ

 SETTING BASIS          =    CC-PVDZ


 Recomputing integrals since basis changed


 Using spherical harmonics

 Library entry H      S cc-pVDZ              selected for orbital group  1
 Library entry H      P cc-pVDZ              selected for orbital group  1
 Library entry C      S cc-pVDZ              selected for orbital group  2
 Library entry C      P cc-pVDZ              selected for orbital group  2
 Library entry C      D cc-pVDZ              selected for orbital group  2


 PROGRAM * SEWARD (Integral evaluation for generally contracted gaussian basis sets)     Author: Roland Lindh, 1990

 Geometry written to block  1 of record 700


 Point group  C1  



 ATOMIC COORDINATES

 NR  ATOM    CHARGE       X              Y              Z

   1  H       1.00   -2.977862288   -3.207578586   -2.511102978
   2  C       6.00   -1.467222235   -2.481553103   -1.328309752
   3  H       1.00    3.723288474    0.675333768    0.000000000
   4  C       6.00    0.616551154   -1.102834888   -2.187220814
   5  C       6.00   -1.467222235   -2.481553103    1.328309752
   6  H       1.00    3.609258582   -2.676610710    0.000000000
   7  C       6.00    2.445689541   -0.945067266    0.000000000
   8  C       6.00   -0.688416683    2.845677438   -1.311413711
   9  H       1.00    1.208789640   -1.002488503   -4.148789356
  10  C       6.00   -0.688416683    2.845677438    1.311413711
  11  H       1.00   -2.977862288   -3.207578586    2.511102978
  12  C       6.00    0.616551154   -1.102834888    2.187220814
  13  H       1.00    1.208789640   -1.002488503    4.148789356
  14  H       1.00    0.869723526    3.692764484    2.345477875
  15  H       1.00   -2.450681423    2.729185234   -2.350706747
  16  H       1.00    0.869723526    3.692764484   -2.345477875
  17  H       1.00   -2.450681423    2.729185234    2.350706747

 Bond lengths in Bohr (Angstrom)

 1-2  2.051376656  2-4  2.642102130  2-5  2.656619505  3-7  2.063482141  4-7  2.855621255
     ( 1.085541777)     ( 1.398140236)     ( 1.405822500)     ( 1.091947724)     ( 1.511129691)

  4- 9  2.051479214   5-11  2.051376656   5-12  2.642102130   6- 7  2.086177272   7-12  2.855621255
       ( 1.085596049)       ( 1.085541777)       ( 1.398140236)       ( 1.103957470)       ( 1.511129691)

  8-10  2.622827422   8-15  2.049213864   8-16  2.052960318  10-14  2.052960318  10-17  2.049213864
       ( 1.387940500)       ( 1.084397277)       ( 1.086379815)       ( 1.086379815)       ( 1.084397277)

 12-13  2.051479214
       ( 1.085596049)

 Bond angles

  1-2-4  125.31223396   1-2-5  125.21071383   2-4-7  106.55978807   2-4-9  124.33608344

  2- 5-11  125.21071383   2- 5-12  108.97080023   3- 7- 4  116.10216759   3- 7- 6  107.84566488

  3- 7-12  116.10216759   4- 2- 5  108.97080023   4- 7- 6  108.14396612   4- 7-12   99.98052547

  5-12- 7  106.55978807   5-12-13  124.33608344   6- 7-12  108.14396612   7- 4- 9  123.00741297

  7-12-13  123.00741297   8-10-14  120.24470742   8-10-17  120.47528874  10- 8-15  120.47528874

 10- 8-16  120.24470742  11- 5-12  125.31223396  14-10-17  114.87838460  15- 8-16  114.87838460

 NUCLEAR CHARGE:                   52
 NUMBER OF PRIMITIVE AOS:         259
 NUMBER OF SYMMETRY AOS:          252
 NUMBER OF CONTRACTIONS:          148   (  148A   )
 NUMBER OF INNER CORE ORBITALS:     0   (    0A   )
 NUMBER OF OUTER CORE ORBITALS:     7   (    7A   )
 NUMBER OF VALENCE ORBITALS:       38   (   38A   )


 NUCLEAR REPULSION ENERGY  293.87097840


 Eigenvalues of metric

         1 0.919E-03 0.206E-02 0.272E-02 0.466E-02 0.513E-02 0.820E-02 0.116E-01 0.143E-01


 Contracted 2-electron integrals neglected if value below      1.0D-11
 AO integral compression algorithm  1   Integral accuracy      1.0D-11

     261.882 MB (compressed) written to integral file ( 50.6%)


 NUMBER OF SORTED TWO-ELECTRON INTEGRALS:   60791851.     BUFFER LENGTH:  32768
 NUMBER OF SEGMENTS:   4  SEGMENT LENGTH:   15999503      RECORD LENGTH: 524288

 Memory used in sort:      16.56 MW

 SORT1 READ    64778043. AND WROTE    58961263. INTEGRALS IN    171 RECORDS. CPU TIME:     0.50 SEC, REAL TIME:     0.87 SEC
 SORT2 READ    58961263. AND WROTE    60791851. INTEGRALS IN    999 RECORDS. CPU TIME:     0.45 SEC, REAL TIME:     0.77 SEC

 FILE SIZES:   FILE 1:   293.0 MBYTE,  FILE 4:   717.3 MBYTE,   TOTAL:   1010.3 MBYTE

 OPERATOR DM      FOR CENTER  0  COORDINATES:    0.000000    0.000000    0.000000


 **********************************************************************************************************************************
 DATASETS  * FILE   NREC   LENGTH (MB)   RECORD NAMES
              1      19      259.20       500      610      700      900      950      970     1000      129      960     1100   
                                          VAR    BASINP    GEOM    SYMINP    ZMAT    AOBASIS   BASIS     P2S    ABASIS      S 
                                         1400     1410     1200     1210     1080     1600     1650     1300     1700   
                                           T        V       H0       H01     AOSYM     SMH    MOLCAS    ERIS     OPER   

 PROGRAMS   *        TOTAL       INT
 CPU TIMES  *         4.03      3.94
 REAL TIME  *         6.56 SEC
 DISK USED  *       964.09 MB
 **********************************************************************************************************************************


 Program * Restricted Hartree-Fock

 Orbital guess generated from atomic densities. Full valence occupancy:   45

 Initial occupancy:  26

 NELEC=   52   SYM=1   MS2= 0   THRE=1.0D-08   THRD=3.2D-06   THRG=3.2D-06  HFMA2=F  DIIS_START=2   DIIS_MAX=10   DIIS_INCORE=F

 Level shifts:    0.00 (CLOSED)    0.00 (OPEN)    0.30 (GAP_MIN)

 ITER           ETOT              DE          GRAD        DDIFF     DIIS  NEXP   TIME(IT)  TIME(TOT)  DIAG
   1     -270.70725128    -270.70725128     0.00D+00     0.86D-01     0     0       0.28      0.54    start
   2     -270.77317676      -0.06592549     0.38D-02     0.84D-02     1     0       0.30      0.84    diag
   3     -270.78147353      -0.00829677     0.15D-02     0.31D-02     2     0       0.28      1.12    diag
   4     -270.78288016      -0.00140663     0.52D-03     0.11D-02     3     0       0.30      1.42    diag
   5     -270.78292961      -0.00004946     0.71D-04     0.21D-03     4     0       0.29      1.71    diag
   6     -270.78294177      -0.00001215     0.33D-04     0.79D-04     5     0       0.28      1.99    diag
   7     -270.78294614      -0.00000438     0.15D-04     0.47D-04     6     0       0.30      2.29    diag
   8     -270.78294722      -0.00000108     0.67D-05     0.27D-04     7     0       0.29      2.58    fixocc
   9     -270.78294732      -0.00000009     0.20D-05     0.88D-05     8     0       0.30      2.88    diag
  10     -270.78294732      -0.00000000     0.64D-06     0.20D-05     9     0       0.29      3.17    diag/orth
  11     -270.78294732      -0.00000000     0.22D-06     0.53D-06     0     0       0.30      3.47    diag

 Final occupancy:  26

 !RHF STATE 1.1 Energy               -270.782947323103
  RHF One-electron energy            -947.318631246494
  RHF Two-electron energy             382.664705520047
  RHF Kinetic energy                  270.384038390448
  RHF Nuclear energy                  293.870978403345
  RHF Virial quotient                  -1.001475342017

 !RHF STATE 1.1 Dipole moment           0.14828588    -0.06350662     0.00000000
 Dipole moment /Debye                   0.37690510    -0.16141773     0.00000000

 Orbital energies:

           1.1          2.1          3.1          4.1          5.1          6.1          7.1          8.1          9.1         10.1
    -11.243189   -11.243177   -11.232675   -11.226254   -11.225023   -11.224021   -11.222912    -1.153689    -1.007739    -0.954064

          11.1         12.1         13.1         14.1         15.1         16.1         17.1         18.1         19.1         20.1
     -0.951440    -0.784419    -0.756756    -0.715308    -0.690379    -0.623575    -0.592874    -0.560563    -0.538909    -0.521050

          21.1         22.1         23.1         24.1         25.1         26.1         27.1         28.1
     -0.515385    -0.499453    -0.480374    -0.429968    -0.302856    -0.298569     0.133076     0.157222


 HOMO     26.1    -0.298569 =      -8.1245eV
 LUMO     27.1     0.133076 =       3.6212eV
 LUMO-HOMO         0.431645 =      11.7457eV

 Orbitals saved in record  2100.2


 **********************************************************************************************************************************
 DATASETS  * FILE   NREC   LENGTH (MB)   RECORD NAMES
              1      19      259.20       500      610      700      900      950      970     1000      129      960     1100   
                                          VAR    BASINP    GEOM    SYMINP    ZMAT    AOBASIS   BASIS     P2S    ABASIS      S 
                                         1400     1410     1200     1210     1080     1600     1650     1300     1700   
                                           T        V       H0       H01     AOSYM     SMH    MOLCAS    ERIS     OPER   

              2       4        1.00       700     1000      520     2100   
                                         GEOM     BASIS   MCVARS     RHF  

 PROGRAMS   *        TOTAL    HF-SCF       INT
 CPU TIMES  *         7.50      3.47      3.94
 REAL TIME  *        11.70 SEC
 DISK USED  *       964.09 MB
 **********************************************************************************************************************************


 PROGRAM * CCSD (Closed-shell coupled cluster)     Authors: C. Hampel, H.-J. Werner, 1991, M. Deegan, P.J. Knowles, 1992


 Convergence thresholds:  THRVAR = 1.00D-08  THRDEN = 1.00D-06

 Number of core orbitals:           7 (   7 )
 Number of closed-shell orbitals:  19 (  19 )
 Number of external orbitals:     122 ( 122 )

 Molecular orbitals read from record     2100.2  Type=RHF/CANONICAL  

 Number of N-1 electron functions:              19
 Number of N-2 electron functions:             190
 Number of singly external CSFs:              2318
 Number of doubly external CSFs:           2687721
 Total number of CSFs:                     2690040

 Length of J-op  integral file:               0.00 MB
 Length of K-op  integral file:               1.57 MB
 Length of 3-ext integral record:             0.00 MB

 Integral transformation finished. Total CPU:   2.69 sec, npass=  1  Memory used:  39.87 MW

 Reference energy:                   -270.78294732

 MP2 singlet pair energy:              -0.61073351
 MP2 triplet pair energy:              -0.37889787
 MP2 correlation energy:               -0.98963138
 MP2 total energy:                   -271.77257870

 SCS-MP2 correlation energy:           -0.96863888   (PS=  1.200000  PT=  0.333333)
 SCS-MP2 total energy:               -271.75158621

 ITER.      SQ.NORM     CORR.ENERGY   TOTAL ENERGY   ENERGY CHANGE        DEN1      VAR(S)    VAR(P)  DIIS     TIME  TIME/IT
   1      1.39007066    -1.03506184  -271.81800916    -0.04543046    -0.01574612  0.39D-02  0.91D-02  1  1    20.84    16.26
   2      1.42304824    -1.04145372  -271.82440105    -0.00639189    -0.02943876  0.87D-04  0.12D-02  2  2    31.99    16.72
   3      1.43376568    -1.04160752  -271.82455484    -0.00015379    -0.00524512  0.23D-04  0.11D-03  3  3    43.54    16.62
   4      1.43857558    -1.04182685  -271.82477417    -0.00021933    -0.00139286  0.20D-05  0.16D-04  4  4    53.07    16.22
   5      1.44018230    -1.04187122  -271.82481854    -0.00004437    -0.00035015  0.23D-06  0.19D-05  5  5    62.17    15.70
   6      1.44059703    -1.04185954  -271.82480686     0.00001168    -0.00005688  0.30D-07  0.13D-06  6  6    71.79    15.10
   7      1.44065216    -1.04186118  -271.82480850    -0.00000164    -0.00000082  0.83D-08  0.13D-07  6  2    81.62    14.55
   8      1.44066278    -1.04186120  -271.82480852    -0.00000002    -0.00000091  0.14D-08  0.13D-08  6  1    90.46    13.91
   9      1.44066218    -1.04186139  -271.82480871    -0.00000020     0.00000159  0.45D-09  0.22D-09  6  4    98.88    13.36

 Norm of t1 vector:      0.08423340      S-energy:     0.00000007      T1 diagnostic:  0.00966223
                                                                       D1 diagnostic:  0.02934240
                                                                       D2 diagnostic:  0.19772734 (internal)

 Doubles amplitudes (print threshold =  0.500E-01):

         I         J         SYM. A    SYM. B    A         B      T(IJ, AB)

        18        18         1         1         2         2     -0.08183185
        19        19         1         1         1         1     -0.08674131


 RESULTS
 =======

  Reference energy                   -270.782947323103
  CCSD singlet pair energy             -0.704793166327
  CCSD triplet pair energy             -0.337068291570
  CCSD correlation energy              -1.041861391406

 !CCSD total energy                  -271.824808714509

 Timing summary (sec):

 STEP                 CPU(USER)    SYS     CPU(TOT)    WALL
 Transformation          2.81      0.24      3.05      4.71
 CCSD iterations        96.21      2.35     98.56    120.43

 Program statistics:

 Available memory in ccsd:               393214530
 Min. memory needed in ccsd:               6824915
 Max. memory used in ccsd:                 9239017
 Max. memory used in cckext:               8645723 ( 9 integral passes)



 **********************************************************************************************************************************
 DATASETS  * FILE   NREC   LENGTH (MB)   RECORD NAMES
              1      20      439.96       500      610      700      900      950      970     1000      129      960     1100   
                                          VAR    BASINP    GEOM    SYMINP    ZMAT    AOBASIS   BASIS     P2S    ABASIS      S 
                                         1400     1410     1200     1210     1080     1600     1650     1300     1700     1380   
                                           T        V       H0       H01     AOSYM     SMH    MOLCAS    ERIS     OPER     JKOP   

              2       4        1.00       700     1000      520     2100   
                                         GEOM     BASIS   MCVARS     RHF  

 PROGRAMS   *        TOTAL      CCSD    HF-SCF       INT
 CPU TIMES  *        98.92     91.42      3.47      3.94
 REAL TIME  *       136.93 SEC
 DISK USED  *       964.09 MB
 **********************************************************************************************************************************

 Dump information in style XML to xml output                                                                      

 Orbitals will not be exported.

 **********************************************************************************************************************************

 CCSD/cc-pVDZ energy=   -271.824808714509

            CCSD          HF-SCF
   -271.82480871   -270.78294732
 **********************************************************************************************************************************
 Molpro calculation terminated
