
 Working directory              : /var/folders/2v/xbgp75_9785319ghcgb4zr4r0000gp/T//molpro.kUB4u2qnz6/
 Global scratch directory       : /var/folders/2v/xbgp75_9785319ghcgb4zr4r0000gp/T//molpro.kUB4u2qnz6/
 Wavefunction directory         : /Users/sacpjk/wfu/
 Main file repository           : /var/folders/2v/xbgp75_9785319ghcgb4zr4r0000gp/T//molpro.kUB4u2qnz6/

 id        : peterk

 Nodes                        nprocs
 Cardiff-University-G34YLXT77Y    1
 GA implementation: MPI file
 GA implementation (serial work in mppx): MPI file

 Using customized tuning parameters: mindgm=1; mindgv=20; mindgc=4; mindgr=1; noblas=0; minvec=7
 default implementation of scratch files=df  


 Variables initialized (1032), CPU time= 0.00 sec
 
 symmetry,nosym
 
 
 geometry={
            6
     C          0.66552424      0.00000000      0.00000000
     C         -0.66552424      0.00000000      0.00000000
     H          1.23945344     -0.92355833      0.00000000
     H          1.23945344      0.92355833      0.00000000
     H         -1.23945344     -0.92355833      0.00000000
     H         -1.23945344      0.92355833      0.00000000
 }
 basis=cc-pVTZ
 
 
 
 hf; mp3
 
 
 
 {put,xml;noorbitals,nobasis}
 Commands initialized (841), CPU time= 0.01 sec, 704 directives.
 Default parameters read. Elapsed time= 0.57 sec

 Checking input...
 Passed
1


                                         ***  PROGRAM SYSTEM MOLPRO  ***
                                       Copyright, TTI GmbH Stuttgart, 2015
                                    Version 2023.1 linked Tue Jun  6 09:54:11 2023


 **********************************************************************************************************************************
 LABEL *                                                                                                                                                                 
  64 bit serial version                                                                  DATE: 10-Jun-23          TIME: 16:40:48  
 **********************************************************************************************************************************

 SHA1:             8ebb0dd001088a5c915591db1a321413035db0b1
 **********************************************************************************************************************************

 Memory per process:       805 MW
 Total memory per node:   1074 MW
 Total GA space:           268 MW

 GA preallocation disabled
 GA check enabled

 Variable memory set to 805.3 MW

 ZSYMEL=NOSYM


 Geometry recognized as XYZ

 SETTING BASIS          =    CC-PVTZ


 Recomputing integrals since basis changed


 Using spherical harmonics

 Library entry C      S cc-pVTZ              selected for orbital group  1
 Library entry C      P cc-pVTZ              selected for orbital group  1
 Library entry C      D cc-pVTZ              selected for orbital group  1
 Library entry C      F cc-pVTZ              selected for orbital group  1
 Library entry H      S cc-pVTZ              selected for orbital group  2
 Library entry H      P cc-pVTZ              selected for orbital group  2
 Library entry H      D cc-pVTZ              selected for orbital group  2


 PROGRAM * SEWARD (Integral evaluation for generally contracted gaussian basis sets)     Author: Roland Lindh, 1990

 Geometry written to block  1 of record 700


 Point group  C1  



 ATOMIC COORDINATES

 NR  ATOM    CHARGE       X              Y              Z

   1  C       6.00    1.257658543    0.000000000    0.000000000
   2  C       6.00   -1.257658543    0.000000000    0.000000000
   3  H       1.00    2.342227546   -1.745272304    0.000000000
   4  H       1.00    2.342227546    1.745272304    0.000000000
   5  H       1.00   -2.342227546   -1.745272304    0.000000000
   6  H       1.00   -2.342227546    1.745272304    0.000000000

 Bond lengths in Bohr (Angstrom)

 1-2  2.515317086  1-3  2.054815159  1-4  2.054815159  2-5  2.054815159  2-6  2.054815159
     ( 1.331048480)     ( 1.087361355)     ( 1.087361355)     ( 1.087361355)     ( 1.087361355)

 Bond angles

  1-2-5  121.85816298   1-2-6  121.85816298   2-1-3  121.85816298   2-1-4  121.85816298

  3-1-4  116.28367404   5-2-6  116.28367404

 NUCLEAR CHARGE:                   16
 NUMBER OF PRIMITIVE AOS:         162
 NUMBER OF SYMMETRY AOS:          148
 NUMBER OF CONTRACTIONS:          116   (  116A   )
 NUMBER OF INNER CORE ORBITALS:     0   (    0A   )
 NUMBER OF OUTER CORE ORBITALS:     2   (    2A   )
 NUMBER OF VALENCE ORBITALS:       12   (   12A   )


 NUCLEAR REPULSION ENERGY   33.33350088

 EXTRA SYMMETRY OF AOS IN SYMMETRY 1:   1 1 1 1 1 1 2 1 1 2   1 1 2 1 1 2 1 2 1 1   2 1 2 1 1 2 1 2 1 2   1 1 1 1 1 1 2 1 1 2
                                        1 1 2 1 1 2 1 2 1 1   2 1 2 1 1 2 1 2 1 2   1 1 1 1 1 2 1 1 2 1   1 2 1 2 1 1 1 1 1 2
                                        1 1 2 1 1 2 1 2 1 1   1 1 1 2 1 1 2 1 1 2   1 2 1 1 1 1 1 2 1 1   2 1 1 2 1 2

 Eigenvalues of metric

         1 0.802E-03 0.105E-02 0.142E-02 0.147E-02 0.156E-02 0.215E-02 0.386E-02 0.544E-02


 Contracted 2-electron integrals neglected if value below      1.0D-11
 AO integral compression algorithm  1   Integral accuracy      1.0D-11

     58.982 MB (compressed) written to integral file ( 27.6%)


 NUMBER OF SORTED TWO-ELECTRON INTEGRALS:   23028291.     BUFFER LENGTH:  32768
 NUMBER OF SEGMENTS:   2  SEGMENT LENGTH:   15997996      RECORD LENGTH: 524288

 Memory used in sort:      16.56 MW

 SORT1 READ    26629611. AND WROTE    11136951. INTEGRALS IN     32 RECORDS. CPU TIME:     0.16 SEC, REAL TIME:     0.20 SEC
 SORT2 READ    11136951. AND WROTE    23028291. INTEGRALS IN    225 RECORDS. CPU TIME:     0.19 SEC, REAL TIME:     0.23 SEC

 FILE SIZES:   FILE 1:    89.6 MBYTE,  FILE 4:   134.3 MBYTE,   TOTAL:    223.8 MBYTE

 OPERATOR DM      FOR CENTER  0  COORDINATES:    0.000000    0.000000    0.000000


 **********************************************************************************************************************************
 DATASETS  * FILE   NREC   LENGTH (MB)   RECORD NAMES
              1      19       77.21       500      610      700      900      950      970     1000      129      960     1100   
                                          VAR    BASINP    GEOM    SYMINP    ZMAT    AOBASIS   BASIS     P2S    ABASIS      S 
                                         1400     1410     1200     1210     1080     1600     1650     1300     1700   
                                           T        V       H0       H01     AOSYM     SMH    MOLCAS    ERIS     OPER   

 PROGRAMS   *        TOTAL       INT
 CPU TIMES  *         1.21      1.11
 REAL TIME  *        11.28 SEC
 DISK USED  *       213.90 MB
 **********************************************************************************************************************************


 Program * Restricted Hartree-Fock

 Orbital guess generated from atomic densities. Full valence occupancy:   14

 Initial occupancy:   8

 NELEC=   16   SYM=1   MS2= 0   THRE=1.0D-08   THRD=3.2D-06   THRG=3.2D-06  HFMA2=F  DIIS_START=2   DIIS_MAX=10   DIIS_INCORE=F

 Level shifts:    0.00 (CLOSED)    0.00 (OPEN)    0.30 (GAP_MIN)

 ITER           ETOT              DE          GRAD        DDIFF     DIIS  NEXP   TIME(IT)  TIME(TOT)  DIAG
   1      -78.04035654     -78.04035654     0.00D+00     0.67D-01     0     0       0.10      0.19    start
   2      -78.06102525      -0.02066871     0.42D-02     0.58D-02     1     0       0.10      0.29    diag
   3      -78.06325130      -0.00222605     0.15D-02     0.15D-02     2     0       0.11      0.40    diag
   4      -78.06354874      -0.00029744     0.43D-03     0.58D-03     3     0       0.10      0.50    diag
   5      -78.06355274      -0.00000400     0.47D-04     0.82D-04     4     0       0.10      0.60    diag
   6      -78.06355285      -0.00000010     0.70D-05     0.15D-04     5     0       0.10      0.70    diag
   7      -78.06355285      -0.00000000     0.13D-05     0.30D-05     6     0       0.10      0.80    diag
   8      -78.06355285      -0.00000000     0.17D-06     0.25D-06     0     0       0.11      0.91    fixocc

 Final occupancy:   8

 !RHF STATE 1.1 Energy                -78.063552852640
  RHF One-electron energy            -170.011840379594
  RHF Two-electron energy              58.614786643359
  RHF Kinetic energy                   77.906258127618
  RHF Nuclear energy                   33.333500883594
  RHF Virial quotient                  -1.002019025542

 !RHF STATE 1.1 Dipole moment          -0.00000000     0.00000000    -0.00000000
 Dipole moment /Debye                  -0.00000000     0.00000000    -0.00000000

 Orbital energies:

           1.1          2.1          3.1          4.1          5.1          6.1          7.1          8.1          9.1         10.1
    -11.230947   -11.229218    -1.032116    -0.790670    -0.639513    -0.587981    -0.503695    -0.376993     0.152144     0.158954


 HOMO      8.1    -0.376993 =     -10.2585eV
 LUMO      9.1     0.152144 =       4.1400eV
 LUMO-HOMO         0.529137 =      14.3986eV

 Orbitals saved in record  2100.2


 **********************************************************************************************************************************
 DATASETS  * FILE   NREC   LENGTH (MB)   RECORD NAMES
              1      19       77.21       500      610      700      900      950      970     1000      129      960     1100   
                                          VAR    BASINP    GEOM    SYMINP    ZMAT    AOBASIS   BASIS     P2S    ABASIS      S 
                                         1400     1410     1200     1210     1080     1600     1650     1300     1700   
                                           T        V       H0       H01     AOSYM     SMH    MOLCAS    ERIS     OPER   

              2       4        0.68       700     1000      520     2100   
                                         GEOM     BASIS   MCVARS     RHF  

 PROGRAMS   *        TOTAL    HF-SCF       INT
 CPU TIMES  *         2.12      0.91      1.11
 REAL TIME  *        13.12 SEC
 DISK USED  *       213.90 MB
 **********************************************************************************************************************************


 PROGRAM * MP3 (Closed-shell)     Authors: C. Hampel, H.-J. Werner, 1991, M. Deegan, P.J. Knowles, 1992


 Convergence thresholds:  THRVAR = 1.00D-08  THRDEN = 1.00D-06

 Number of core orbitals:           2 (   2 )
 Number of closed-shell orbitals:   6 (   6 )
 Number of external orbitals:     108 ( 108 )

 Molecular orbitals read from record     2100.2  Type=RHF/CANONICAL  

 Number of N-1 electron functions:               6
 Number of N-2 electron functions:              21
 Number of singly external CSFs:               648
 Number of doubly external CSFs:            210276
 Total number of CSFs:                      210925

 Length of J-op  integral file:               0.00 MB
 Length of K-op  integral file:               0.99 MB

 Integral transformation finished. Total CPU:   0.14 sec, npass=  1  Memory used:   0.76 MW

 Reference energy:                    -78.06355285

                        CORR.ENERGY   TOTAL ENERGY   ENERGY CHANGE
 MP2:                   -0.33558131   -78.39913417    -0.33558131

 SCS-MP2 correlation energy:           -0.34125191   (PS=  1.200000  PT=  0.333333)
 SCS-MP2 total energy:                -78.40480476

 MP3(D):                -0.35781526   -78.42136811    -0.02223395



 RESULTS
 =======

  Reference energy                    -78.063552852640
  MP3 singlet pair energy              -0.255501236853
  MP3 triplet pair energy              -0.102314022517
  MP3 correlation energy               -0.357815259370

 !MP3 total energy                    -78.421368112010

 Timing summary (sec):

 STEP                 CPU(USER)    SYS     CPU(TOT)    WALL
 Transformation          0.15      0.02      0.17      0.63
 CCSD iterations         2.50      0.01      2.51      1.23

 Program statistics:

 Available memory in ccsd:               805306216
 Min. memory needed in ccsd:                741753
 Max. memory used in ccsd:                  906609
 Max. memory used in cckext:                673852 ( 1 integral passes)



 **********************************************************************************************************************************
 DATASETS  * FILE   NREC   LENGTH (MB)   RECORD NAMES
              1      20       80.66       500      610      700      900      950      970     1000      129      960     1100   
                                          VAR    BASINP    GEOM    SYMINP    ZMAT    AOBASIS   BASIS     P2S    ABASIS      S 
                                         1400     1410     1200     1210     1080     1600     1650     1300     1700     1380   
                                           T        V       H0       H01     AOSYM     SMH    MOLCAS    ERIS     OPER     JKOP   

              2       4        0.68       700     1000      520     2100   
                                         GEOM     BASIS   MCVARS     RHF  

 PROGRAMS   *        TOTAL       MP3    HF-SCF       INT
 CPU TIMES  *         2.54      0.42      0.91      1.11
 REAL TIME  *        15.28 SEC
 DISK USED  *       213.90 MB
 **********************************************************************************************************************************

 Dump information in style XML to xml output                                                                      

 Orbitals will not be exported.

 **********************************************************************************************************************************

 MP3/cc-pVTZ energy=    -78.421368112010

             MP3          HF-SCF
    -78.42136811    -78.06355285
 **********************************************************************************************************************************
 Molpro calculation terminated
