
 Working directory              : /var/folders/2v/xbgp75_9785319ghcgb4zr4r0000gp/T//molpro.u5YsjEIv7e/
 Global scratch directory       : /var/folders/2v/xbgp75_9785319ghcgb4zr4r0000gp/T//molpro.u5YsjEIv7e/
 Wavefunction directory         : /Users/sacpjk/wfu/
 Main file repository           : /var/folders/2v/xbgp75_9785319ghcgb4zr4r0000gp/T//molpro.u5YsjEIv7e/

 id        : peterk

 Nodes                        nprocs
 Cardiff-University-G34YLXT77Y    1
 GA implementation: MPI file
 GA implementation (serial work in mppx): MPI file

 Using customized tuning parameters: mindgm=1; mindgv=20; mindgc=4; mindgr=1; noblas=0; minvec=7
 default implementation of scratch files=df  


 Variables initialized (1032), CPU time= 0.00 sec
 
 symmetry,nosym
 
 
 geometry={
 3
  o         -0.394046989281    0.000456398284    0.000000000000
  h          0.196175230311   -0.755723382026    0.000000000000
  h          0.197871758917    0.755266983742    0.000000000000
 }
 basis=aug-cc-pVDZ
 
 
 
 hf; ccsd(t); counterpoise
 
 
 
 {put,xml;noorbitals,nobasis}
 Commands initialized (841), CPU time= 0.01 sec, 704 directives.
 Default parameters read. Elapsed time= 3.08 sec

 Checking input...
 Passed
1


                                         ***  PROGRAM SYSTEM MOLPRO  ***
                                       Copyright, TTI GmbH Stuttgart, 2015
                                    Version 2023.1 linked Tue Jun  6 09:54:11 2023


 **********************************************************************************************************************************
 LABEL *                                                                                                                                                                 
  64 bit serial version                                                                  DATE: 08-Jun-23          TIME: 19:15:29  
 **********************************************************************************************************************************

 SHA1:             8ebb0dd001088a5c915591db1a321413035db0b1
 **********************************************************************************************************************************

 Memory per process:       805 MW
 Total memory per node:   1074 MW
 Total GA space:           268 MW

 GA preallocation disabled
 GA check enabled

 Variable memory set to 805.3 MW

 ZSYMEL=NOSYM


 Geometry recognized as XYZ

 SETTING BASIS          =    AUG-CC-PVDZ


 Recomputing integrals since basis changed


 Using spherical harmonics

 Library entry O      S aug-cc-pVDZ          selected for orbital group  1
 Library entry O      P aug-cc-pVDZ          selected for orbital group  1
 Library entry O      D aug-cc-pVDZ          selected for orbital group  1
 Library entry H      S aug-cc-pVDZ          selected for orbital group  2
 Library entry H      P aug-cc-pVDZ          selected for orbital group  2


 PROGRAM * SEWARD (Integral evaluation for generally contracted gaussian basis sets)     Author: Roland Lindh, 1990

 Geometry written to block  1 of record 700


 Point group  C1  



 ATOMIC COORDINATES

 NR  ATOM    CHARGE       X              Y              Z

   1  O       8.00   -0.744640890    0.000862468    0.000000000
   2  H       1.00    0.370717458   -1.428110218    0.000000000
   3  H       1.00    0.373923432    1.427247750    0.000000000

 Bond lengths in Bohr (Angstrom)

 1-2  1.812729208  1-3  1.812666852
     ( 0.959254986)     ( 0.959221989)

 Bond angles

  2-1-3  103.92346879

 NUCLEAR CHARGE:                   10
 NUMBER OF PRIMITIVE AOS:          59
 NUMBER OF SYMMETRY AOS:           57
 NUMBER OF CONTRACTIONS:           41   (   41A   )
 NUMBER OF INNER CORE ORBITALS:     0   (    0A   )
 NUMBER OF OUTER CORE ORBITALS:     1   (    1A   )
 NUMBER OF VALENCE ORBITALS:        6   (    6A   )


 NUCLEAR REPULSION ENERGY    9.17684040

 EXTRA SYMMETRY OF AOS IN SYMMETRY 1:   1 1 1 1 1 1 2 1 1 2   1 1 2 1 1 2 1 2 1 1   2 1 2 1 1 1 1 1 2 1   1 2 1 1 1 1 1 2 1 1
                                        2

 Eigenvalues of metric

         1 0.296E-02 0.296E-02 0.113E-01 0.163E-01 0.249E-01 0.351E-01 0.759E-01 0.908E-01


 Contracted 2-electron integrals neglected if value below      1.0D-11
 AO integral compression algorithm  1   Integral accuracy      1.0D-11

     1.573 MB (compressed) written to integral file ( 36.9%)


 NUMBER OF SORTED TWO-ELECTRON INTEGRALS:     371091.     BUFFER LENGTH:  32768
 NUMBER OF SEGMENTS:   1  SEGMENT LENGTH:     371091      RECORD LENGTH: 524288

 Memory used in sort:       0.93 MW

 SORT1 READ      525861. AND WROTE      180029. INTEGRALS IN      1 RECORDS. CPU TIME:     0.00 SEC, REAL TIME:     0.01 SEC
 SORT2 READ      180029. AND WROTE      371091. INTEGRALS IN      6 RECORDS. CPU TIME:     0.02 SEC, REAL TIME:     0.02 SEC

 FILE SIZES:   FILE 1:    31.6 MBYTE,  FILE 4:     4.3 MBYTE,   TOTAL:     35.9 MBYTE

 OPERATOR DM      FOR CENTER  0  COORDINATES:    0.000000    0.000000    0.000000


 **********************************************************************************************************************************
 DATASETS  * FILE   NREC   LENGTH (MB)   RECORD NAMES
              1      19       29.66       500      610      700      900      950      970     1000      129      960     1100   
                                          VAR    BASINP    GEOM    SYMINP    ZMAT    AOBASIS   BASIS     P2S    ABASIS      S 
                                         1400     1410     1200     1210     1080     1600     1650     1300     1700   
                                           T        V       H0       H01     AOSYM     SMH    MOLCAS    ERIS     OPER   

 PROGRAMS   *        TOTAL       INT
 CPU TIMES  *         0.22      0.12
 REAL TIME  *         4.88 SEC
 DISK USED  *        34.59 MB
 **********************************************************************************************************************************


 Program * Restricted Hartree-Fock

 Orbital guess generated from atomic densities. Full valence occupancy:    7

 Initial occupancy:   5

 NELEC=   10   SYM=1   MS2= 0   THRE=1.0D-08   THRD=3.2D-06   THRG=3.2D-06  HFMA2=F  DIIS_START=2   DIIS_MAX=10   DIIS_INCORE=F

 Level shifts:    0.00 (CLOSED)    0.00 (OPEN)    0.30 (GAP_MIN)

 ITER           ETOT              DE          GRAD        DDIFF     DIIS  NEXP   TIME(IT)  TIME(TOT)  DIAG
   1      -76.00430771     -76.00430771     0.00D+00     0.15D+00     0     0       0.00      0.00    start
   2      -76.03081417      -0.02650647     0.15D-01     0.26D-01     1     0       0.00      0.00    diag
   3      -76.04106970      -0.01025552     0.91D-02     0.92D-02     2     0       0.01      0.01    diag
   4      -76.04125398      -0.00018428     0.92D-03     0.14D-02     3     0       0.00      0.01    diag
   5      -76.04126929      -0.00001532     0.23D-03     0.40D-03     4     0       0.00      0.01    diag
   6      -76.04127002      -0.00000073     0.39D-04     0.78D-04     5     0       0.00      0.01    diag
   7      -76.04127005      -0.00000003     0.72D-05     0.18D-04     6     0       0.01      0.02    diag
   8      -76.04127005      -0.00000000     0.13D-05     0.30D-05     7     0       0.00      0.02    fixocc
   9      -76.04127005      -0.00000000     0.14D-06     0.21D-06     0     0       0.00      0.02    diag

 Final occupancy:   5

 !RHF STATE 1.1 Energy                -76.041270046980
  RHF One-electron energy            -122.942618140790
  RHF Two-electron energy              37.724507697516
  RHF Kinetic energy                   75.920226147613
  RHF Nuclear energy                    9.176840396294
  RHF Virial quotient                  -1.001594356412

 !RHF STATE 1.1 Dipole moment           0.79072484    -0.00090968     0.00000000
 Dipole moment /Debye                   2.00982208    -0.00231219     0.00000000

 Orbital energies:

           1.1          2.1          3.1          4.1          5.1          6.1          7.1
    -20.577863    -1.356030    -0.717037    -0.586424    -0.509445     0.035354     0.057970


 HOMO      5.1    -0.509445 =     -13.8627eV
 LUMO      6.1     0.035354 =       0.9620eV
 LUMO-HOMO         0.544799 =      14.8247eV

 Orbitals saved in record  2100.2


 **********************************************************************************************************************************
 DATASETS  * FILE   NREC   LENGTH (MB)   RECORD NAMES
              1      19       29.66       500      610      700      900      950      970     1000      129      960     1100   
                                          VAR    BASINP    GEOM    SYMINP    ZMAT    AOBASIS   BASIS     P2S    ABASIS      S 
                                         1400     1410     1200     1210     1080     1600     1650     1300     1700   
                                           T        V       H0       H01     AOSYM     SMH    MOLCAS    ERIS     OPER   

              2       4        0.44       700     1000      520     2100   
                                         GEOM     BASIS   MCVARS     RHF  

 PROGRAMS   *        TOTAL    HF-SCF       INT
 CPU TIMES  *         0.24      0.02      0.12
 REAL TIME  *         5.77 SEC
 DISK USED  *        34.59 MB
 **********************************************************************************************************************************


 PROGRAM * CCSD (Closed-shell coupled cluster)     Authors: C. Hampel, H.-J. Werner, 1991, M. Deegan, P.J. Knowles, 1992


 Convergence thresholds:  THRVAR = 1.00D-08  THRDEN = 1.00D-06

 CCSD(T)     terms to be evaluated (factor= 1.000)


 Number of core orbitals:           1 (   1 )
 Number of closed-shell orbitals:   4 (   4 )
 Number of external orbitals:      36 (  36 )

 Molecular orbitals read from record     2100.2  Type=RHF/CANONICAL  

 Number of N-1 electron functions:               4
 Number of N-2 electron functions:              10
 Number of singly external CSFs:               144
 Number of doubly external CSFs:             10440
 Total number of CSFs:                       10585

 Length of J-op  integral file:               0.00 MB
 Length of K-op  integral file:               0.18 MB
 Length of 3-ext integral record:             0.00 MB

 Memory could be reduced to 0.40 Mwords without degradation in triples

 Integral transformation finished. Total CPU:   0.00 sec, npass=  1  Memory used:   0.29 MW

 Reference energy:                    -76.04127005

 MP2 singlet pair energy:              -0.13575105
 MP2 triplet pair energy:              -0.08380351
 MP2 correlation energy:               -0.21955456
 MP2 total energy:                    -76.26082461

 SCS-MP2 correlation energy:           -0.21504567   (PS=  1.200000  PT=  0.333333)
 SCS-MP2 total energy:                -76.25631572

 ITER.      SQ.NORM     CORR.ENERGY   TOTAL ENERGY   ENERGY CHANGE        DEN1      VAR(S)    VAR(P)  DIIS     TIME  TIME/IT
   1      1.06072173    -0.22656887   -76.26783892    -0.00701431    -0.00222072  0.12D-02  0.87D-03  1  1     0.37     0.13
   2      1.06491752    -0.22721395   -76.26848400    -0.00064508    -0.00444378  0.89D-05  0.14D-03  2  2     0.38     0.07
   3      1.06640350    -0.22735258   -76.26862263    -0.00013863    -0.00084349  0.17D-04  0.53D-05  3  3     0.38     0.08
   4      1.06686342    -0.22731727   -76.26858732     0.00003531    -0.00020115  0.76D-06  0.46D-06  4  4     0.39     0.07
   5      1.06698572    -0.22731017   -76.26858022     0.00000710    -0.00004091  0.76D-07  0.31D-07  5  5     0.40     0.08
   6      1.06700717    -0.22730856   -76.26857861     0.00000161    -0.00000271  0.80D-08  0.20D-08  6  6     0.40     0.07
   7      1.06701252    -0.22730784   -76.26857789     0.00000072    -0.00000068  0.49D-09  0.32D-09  6  2     0.41     0.07
   8      1.06701327    -0.22730792   -76.26857797    -0.00000008     0.00000013  0.54D-10  0.19D-10  6  1     0.42     0.06

 Norm of t1 vector:      0.04916717      S-energy:    -0.00000013      T1 diagnostic:  0.01229179
                                                                       D1 diagnostic:  0.02657084
                                                                       D2 diagnostic:  0.12609468 (internal)


 Total CPU time for triples:      0.02 sec


 RESULTS
 =======

  Reference energy                    -76.041270046980
  CCSD singlet pair energy             -0.153190573292
  CCSD triplet pair energy             -0.074117219572
  CCSD correlation energy              -0.227307920866

  Triples (T) contribution             -0.005224863846
  Total correlation energy             -0.232532784713

  CCSD total energy                   -76.268577967846
  CCSD[T] energy                      -76.274205266801
  CCSD-T energy                       -76.273636864619
 !CCSD(T) total energy                -76.273802831692

 Timing summary (sec):

 STEP                 CPU(USER)    SYS     CPU(TOT)    WALL
 Transformation          0.01      0.00      0.01      0.78
 CCSD iterations         0.42      0.01      0.43      1.42
 Triples                 0.02      0.01      0.03      0.03

 Program statistics:

 Available memory in ccsd:               805306299
 Min. memory needed in ccsd:                 53614
 Max. memory used in ccsd:                   59994
 Max. memory used in cckext:                 75512 ( 8 integral passes)



 **********************************************************************************************************************************
 DATASETS  * FILE   NREC   LENGTH (MB)   RECORD NAMES
              1      20       30.62       500      610      700      900      950      970     1000      129      960     1100   
                                          VAR    BASINP    GEOM    SYMINP    ZMAT    AOBASIS   BASIS     P2S    ABASIS      S 
                                         1400     1410     1200     1210     1080     1600     1650     1300     1700     1380   
                                           T        V       H0       H01     AOSYM     SMH    MOLCAS    ERIS     OPER     JKOP   

              2       4        0.44       700     1000      520     2100   
                                         GEOM     BASIS   MCVARS     RHF  

 PROGRAMS   *        TOTAL   CCSD(T)    HF-SCF       INT
 CPU TIMES  *         0.37      0.13      0.02      0.12
 REAL TIME  *         8.36 SEC
 DISK USED  *        34.59 MB
 **********************************************************************************************************************************

 Counterpoise: absolute minimum monomer separation=    -1.000 Bragg radius scale factor=     1.400 Number of monomers= 1
 Counterpoise skipped because only a single monomer


 **********************************************************************************************************************************
 DATASETS  * FILE   NREC   LENGTH (MB)   RECORD NAMES
              1      20       30.62       500      610      700      900      950      970     1000      129      960     1100   
                                          VAR    BASINP    GEOM    SYMINP    ZMAT    AOBASIS   BASIS     P2S    ABASIS      S 
                                         1400     1410     1200     1210     1080     1600     1650     1300     1700     1380   
                                           T        V       H0       H01     AOSYM     SMH    MOLCAS    ERIS     OPER     JKOP   

              2       4        0.44       700     1000      520     2100   
                                         GEOM     BASIS   MCVARS     RHF  

 PROGRAMS   *        TOTALCOUNTERPOI   CCSD(T)    HF-SCF       INT
 CPU TIMES  *         0.37      0.00      0.13      0.02      0.12
 REAL TIME  *         8.40 SEC
 DISK USED  *        34.59 MB
 **********************************************************************************************************************************

 Dump information in style XML to xml output                                                                      

 Orbitals will not be exported.

 **********************************************************************************************************************************

 CCSD(T)/aug-cc-pVDZ energy=    -76.273802831692

         CCSD(T)          HF-SCF
    -76.27380283    -76.04127005
 **********************************************************************************************************************************
 Molpro calculation terminated
