
 Working directory              : /var/folders/2v/xbgp75_9785319ghcgb4zr4r0000gp/T//molpro.yE7CJK1oXD/
 Global scratch directory       : /var/folders/2v/xbgp75_9785319ghcgb4zr4r0000gp/T//molpro.yE7CJK1oXD/
 Wavefunction directory         : /Users/sacpjk/wfu/
 Main file repository           : /var/folders/2v/xbgp75_9785319ghcgb4zr4r0000gp/T//molpro.yE7CJK1oXD/

 id        : peterk

 Nodes                        nprocs
 Cardiff-University-G34YLXT77Y    1
 GA implementation: MPI file
 GA implementation (serial work in mppx): MPI file

 Using customized tuning parameters: mindgm=1; mindgv=20; mindgc=4; mindgr=1; noblas=0; minvec=7
 default implementation of scratch files=df  


 Variables initialized (1032), CPU time= 0.00 sec
 
 core,small
 angstrom
 
 geometry={
 C;H,C,1.10678917;H,C,1.10678917,H,102.02249921
 }
 basis=cc-pCVQZ
 
 
 
 hf; hf; papt; mp3
 
 
 
 {put,xml;noorbitals,nobasis}
 Commands initialized (841), CPU time= 0.01 sec, 704 directives.
 Default parameters read. Elapsed time= 0.34 sec

 Checking input...
 Passed
1


                                         ***  PROGRAM SYSTEM MOLPRO  ***
                                       Copyright, TTI GmbH Stuttgart, 2015
                                    Version 2023.1 linked Tue Jun  6 09:54:11 2023


 **********************************************************************************************************************************
 LABEL *                                                                                                                                                                 
  64 bit serial version                                                                  DATE: 12-Jun-23          TIME: 10:49:51  
 **********************************************************************************************************************************

 SHA1:             8ebb0dd001088a5c915591db1a321413035db0b1
 **********************************************************************************************************************************

 Memory per process:       393 MW
 Total memory per node:    524 MW
 Total GA space:           131 MW

 GA preallocation disabled
 GA check enabled

 Variable memory set to 393.2 MW

 ZUNIT=ANG

 SETTING BASIS          =    CC-PCVQZ


 Recomputing integrals since basis changed


 Using spherical harmonics

 Library entry C      S cc-pCVQZ             selected for orbital group  1
 Library entry C      P cc-pCVQZ             selected for orbital group  1
 Library entry C      D cc-pCVQZ             selected for orbital group  1
 Library entry C      F cc-pCVQZ             selected for orbital group  1
 Library entry C      G cc-pCVQZ             selected for orbital group  1
 Library entry H      S cc-pVQZ              selected for orbital group  2
 Library entry H      P cc-pVQZ              selected for orbital group  2
 Library entry H      D cc-pVQZ              selected for orbital group  2
 Library entry H      F cc-pVQZ              selected for orbital group  2


 PROGRAM * SEWARD (Integral evaluation for generally contracted gaussian basis sets)     Author: Roland Lindh, 1990

 Geometry written to block  1 of record 700

 Orientation using atomic masses  
 Molecule type: Asymmetric top,     Order of principal axis = 2
 Symmetry elements: X,Y
 Rotational constants:     217.0003324    603.7701822    338.7501129 GHz  (calculated with average atomic masses)

 Point group  C2v 



 ATOMIC COORDINATES

 NR  ATOM    CHARGE       X              Y              Z

   1  C       6.00    0.000000000    0.000000000   -0.189118426
   2  H       1.00    0.000000000    1.625681259    1.126803885
   3  H       1.00    0.000000000   -1.625681259    1.126803885

 Bond lengths in Bohr (Angstrom)

 1-2  2.091528409  1-3  2.091528409
     ( 1.106789170)     ( 1.106789170)

 Bond angles

  2-1-3  102.02249921

 NUCLEAR CHARGE:                    8
 NUMBER OF PRIMITIVE AOS:         191
 NUMBER OF SYMMETRY AOS:          161
 NUMBER OF CONTRACTIONS:          144   (   54A1  +   30B1  +   40B2  +   20A2  )
 NUMBER OF INNER CORE ORBITALS:     0   (    0A1  +    0B1  +    0B2  +    0A2  )
 NUMBER OF OUTER CORE ORBITALS:     1   (    1A1  +    0B1  +    0B2  +    0A2  )
 NUMBER OF VALENCE ORBITALS:        6   (    3A1  +    1B1  +    2B2  +    0A2  )


 NUCLEAR REPULSION ENERGY    6.04499440

 Eigenvalues of metric

         1 0.274E-04 0.241E-03 0.990E-03 0.188E-02 0.219E-02 0.499E-02 0.903E-02 0.114E-01
         2 0.178E-02 0.132E-01 0.495E-01 0.108E+00 0.132E+00 0.154E+00 0.165E+00 0.257E+00
         3 0.271E-03 0.136E-02 0.203E-02 0.114E-01 0.136E-01 0.149E-01 0.380E-01 0.489E-01
         4 0.136E-01 0.526E-01 0.142E+00 0.252E+00 0.258E+00 0.350E+00 0.430E+00 0.480E+00


 Contracted 2-electron integrals neglected if value below      1.0D-12
 AO integral compression algorithm  1   Integral accuracy      1.0D-12

     93.323 MB (compressed) written to integral file ( 63.7%)


 NUMBER OF SORTED TWO-ELECTRON INTEGRALS:   14072140.     BUFFER LENGTH:  32768
 NUMBER OF SEGMENTS:   1  SEGMENT LENGTH:   14072140      RECORD LENGTH: 524288

 Memory used in sort:      14.63 MW

 SORT1 READ    18319987. AND WROTE    12823708. INTEGRALS IN     37 RECORDS. CPU TIME:     0.15 SEC, REAL TIME:     0.19 SEC
 SORT2 READ    12823708. AND WROTE    14072140. INTEGRALS IN    356 RECORDS. CPU TIME:     0.17 SEC, REAL TIME:     0.20 SEC

 FILE SIZES:   FILE 1:   123.8 MBYTE,  FILE 4:   155.3 MBYTE,   TOTAL:    279.1 MBYTE

 OPERATOR DM      FOR CENTER  0  COORDINATES:    0.000000    0.000000    0.000000


 **********************************************************************************************************************************
 DATASETS  * FILE   NREC   LENGTH (MB)   RECORD NAMES
              1      19       95.57       500      610      700      900      950      970     1000      129      960     1100   
                                          VAR    BASINP    GEOM    SYMINP    ZMAT    AOBASIS   BASIS     P2S    ABASIS      S 
                                         1400     1410     1200     1210     1080     1600     1650     1300     1700   
                                           T        V       H0       H01     AOSYM     SMH    MOLCAS    ERIS     OPER   

 PROGRAMS   *        TOTAL       INT
 CPU TIMES  *         1.12      1.02
 REAL TIME  *         3.04 SEC
 DISK USED  *       266.50 MB
 **********************************************************************************************************************************


 Program * Restricted Hartree-Fock

 Orbital guess generated from atomic densities. Full valence occupancy:    4   1   2   0

 Initial occupancy:   3   0   1   0

 NELEC=    8   SYM=1   MS2= 0   THRE=1.0D-08   THRD=3.2D-06   THRG=3.2D-06  HFMA2=F  DIIS_START=2   DIIS_MAX=10   DIIS_INCORE=F

 Level shifts:    0.00 (CLOSED)    0.00 (OPEN)    0.30 (GAP_MIN)

 ITER           ETOT              DE          GRAD        DDIFF     DIIS  NEXP   TIME(IT)  TIME(TOT)  DIAG
   1      -38.88388817     -38.88388817     0.00D+00     0.72D-01     0     0       0.03      0.06    start
   2      -38.89475114      -0.01086297     0.68D-02     0.50D-02     1     0       0.03      0.09    diag
   3      -38.89516219      -0.00041104     0.13D-02     0.12D-02     2     0       0.03      0.12    diag
   4      -38.89520898      -0.00004680     0.36D-03     0.31D-03     3     0       0.04      0.16    diag
   5      -38.89521302      -0.00000403     0.89D-04     0.12D-03     4     0       0.03      0.19    diag
   6      -38.89521330      -0.00000029     0.23D-04     0.41D-04     5     0       0.03      0.22    diag
   7      -38.89521331      -0.00000001     0.27D-05     0.73D-05     6     0       0.03      0.25    diag
   8      -38.89521331      -0.00000000     0.61D-06     0.17D-05     7     0       0.03      0.28    fixocc
   9      -38.89521331      -0.00000000     0.10D-06     0.12D-06     0     0       0.03      0.31    diag

 Final occupancy:   3   0   1   0

 !RHF STATE 1.1 Energy                -38.895213310413
  RHF One-electron energy             -63.589371265306
  RHF Two-electron energy              18.649163556093
  RHF Kinetic energy                   38.868938133653
  RHF Nuclear energy                    6.044994398800
  RHF Virial quotient                  -1.000675994201

 !RHF STATE 1.1 Dipole moment           0.00000000     0.00000000     0.75095352
 Dipole moment /Debye                   0.00000000     0.00000000     1.90873346

 Orbital energies:

           1.1          2.1          3.1          4.1          5.1
    -11.291231    -0.892919    -0.396125     0.122321     0.324634

           1.2          2.2
      0.042177     0.380469

           1.3          2.3          3.3
     -0.565247     0.187980     0.290365

           1.4          2.4
      0.571052     0.894487


 HOMO      3.1    -0.396125 =     -10.7791eV
 LUMO      1.2     0.042177 =       1.1477eV
 LUMO-HOMO         0.438303 =      11.9268eV

 Orbitals saved in record  2100.2


 **********************************************************************************************************************************
 DATASETS  * FILE   NREC   LENGTH (MB)   RECORD NAMES
              1      19       95.57       500      610      700      900      950      970     1000      129      960     1100   
                                          VAR    BASINP    GEOM    SYMINP    ZMAT    AOBASIS   BASIS     P2S    ABASIS      S 
                                         1400     1410     1200     1210     1080     1600     1650     1300     1700   
                                           T        V       H0       H01     AOSYM     SMH    MOLCAS    ERIS     OPER   

              2       4        0.50       700     1000      520     2100   
                                         GEOM     BASIS   MCVARS     RHF  

 PROGRAMS   *        TOTAL    HF-SCF       INT
 CPU TIMES  *         1.43      0.31      1.02
 REAL TIME  *         4.86 SEC
 DISK USED  *       266.50 MB
 **********************************************************************************************************************************


 Program * Restricted Hartree-Fock

 Molecular orbitals read from record     2100.2  Type=RHF/CANONICAL  

 Initial occupancy:   3   0   1   0

 NELEC=    8   SYM=1   MS2= 0   THRE=1.0D-08   THRD=3.2D-06   THRG=3.2D-06  HFMA2=F  DIIS_START=2   DIIS_MAX=10   DIIS_INCORE=F

 Level shifts:    0.00 (CLOSED)    0.00 (OPEN)    0.30 (GAP_MIN)

 ITER           ETOT              DE          GRAD        DDIFF     DIIS  NEXP   TIME(IT)  TIME(TOT)  DIAG
   1      -38.89521331     -38.89521331     0.00D+00     0.76D-01     0     0       0.03      0.03    start
   2      -38.89521331      -0.00000000     0.43D-07     0.52D-07     1     0       0.03      0.06    diag

 Final occupancy:   3   0   1   0

 !RHF STATE 1.1 Energy                -38.895213310413
  RHF One-electron energy             -63.589371397413
  RHF Two-electron energy              18.649163688200
  RHF Kinetic energy                   38.868938821450
  RHF Nuclear energy                    6.044994398800
  RHF Virial quotient                  -1.000675976493

 !RHF STATE 1.1 Dipole moment           0.00000000     0.00000000     0.75095167
 Dipole moment /Debye                   0.00000000     0.00000000     1.90872876

 Orbital energies:

           1.1          2.1          3.1          4.1          5.1
    -11.291231    -0.892919    -0.396125     0.122321     0.324634

           1.2          2.2
      0.042177     0.380469

           1.3          2.3          3.3
     -0.565247     0.187980     0.290365

           1.4          2.4
      0.571052     0.894487


 HOMO      3.1    -0.396125 =     -10.7791eV
 LUMO      1.2     0.042177 =       1.1477eV
 LUMO-HOMO         0.438303 =      11.9268eV

 Orbitals saved in record  2101.2


 **********************************************************************************************************************************
 DATASETS  * FILE   NREC   LENGTH (MB)   RECORD NAMES
              1      19       95.57       500      610      700      900      950      970     1000      129      960     1100   
                                          VAR    BASINP    GEOM    SYMINP    ZMAT    AOBASIS   BASIS     P2S    ABASIS      S 
                                         1400     1410     1200     1210     1080     1600     1650     1300     1700   
                                           T        V       H0       H01     AOSYM     SMH    MOLCAS    ERIS     OPER   

              2       5        0.76       700     1000      520     2100     2101   
                                         GEOM     BASIS   MCVARS     RHF      RHF  

 PROGRAMS   *        TOTAL    HF-SCF    HF-SCF       INT
 CPU TIMES  *         1.50      0.06      0.31      1.02
 REAL TIME  *         5.30 SEC
 DISK USED  *       266.50 MB
 **********************************************************************************************************************************


 PROGRAM * PAPT (Closed-shell)     Authors: C. Hampel, H.-J. Werner, 1991, P.J. Knowles, 2021


 CORETYPE=SMALL

 Convergence thresholds:  THRVAR = 1.00D-08  THRDEN = 1.00D-06

 Number of closed-shell orbitals:   4 (   3   0   1   0 )
 Number of external orbitals:     140 (  51  30  39  20 )

 Molecular orbitals read from record     2101.2  Type=RHF/CANONICAL  

 Number of N-1 electron functions:               4
 Number of N-2 electron functions:              10
 Number of singly external CSFs:               192
 Number of doubly external CSFs:             42924
 Total number of CSFs:                       43117

 Length of J-op  integral file:               0.00 MB
 Length of K-op  integral file:               0.46 MB

 Integral transformation finished. Total CPU:   0.05 sec, npass=  1  Memory used:   0.15 MW

 Reference energy:                    -38.89521331

                        CORR.ENERGY   TOTAL ENERGY   ENERGY CHANGE
 MP2:                   -0.19991753   -39.09513084    -0.19991753

 SCS-MP2 correlation energy:           -0.21756385   (PS=  1.200000  PT=  0.333333)
 SCS-MP2 total energy:                -39.11277716
 Iteration:   1     0.5618D+00
 Iteration:   2     0.6610D+00
 Iteration:   3     0.2200D+00
 Iteration:   4     0.8785D-01
 Iteration:   5     0.1706D+00
 Iteration:   6     0.3566D-01
 Iteration:   7     0.1478D-01
 Iteration:   8     0.3113D-01
 Iteration:   9     0.3071D-02
 Iteration:  10     0.2403D-02
 Iteration:  11     0.1536D-01
 Iteration:  12     0.3902D-03
 Iteration:  13     0.1980D-03
 Iteration:  14     0.4760D-03
 Iteration:  15     0.6835D-04
 PAPT operator written to  7000.1
 PAPT orbitals and eigenvalues written to  7000.2

 MP3(D):                -0.21966398   -39.11487729    -0.01974645



 RESULTS
 =======

  Reference energy                    -38.895213310414

  Correlated core orbitals:             1.1
  Orbital energies:                   -11.2912

  MP3 core-core energy                 -0.040894060382
  MP3 core-valence energy              -0.012438165424
  MP3 valence correlation energy       -0.166331753586

  MP3 singlet pair energy              -0.179506318437
  MP3 triplet pair energy              -0.040157660954
  MP3 correlation energy               -0.219663979392

 !MP3 total energy                    -39.114877289805

 Timing summary (sec):

 STEP                 CPU(USER)    SYS     CPU(TOT)    WALL
 Transformation          0.06      0.01      0.07      0.12
 CCSD iterations         1.71      0.04      1.75      1.05

 Program statistics:

 Available memory in ccsd:               393215933
 Min. memory needed in ccsd:                201342
 Max. memory used in ccsd:                  232054
 Max. memory used in cckext:                303930 ( 1 integral passes)



 **********************************************************************************************************************************
 DATASETS  * FILE   NREC   LENGTH (MB)   RECORD NAMES
              1      21       96.35       500      610      700      900      950      970     1000      129      960     1100   
                                          VAR    BASINP    GEOM    SYMINP    ZMAT    AOBASIS   BASIS     P2S    ABASIS      S 
                                         1400     1410     1200     1210     1080     1600     1650     1300     1700     1380   
                                           T        V       H0       H01     AOSYM     SMH    MOLCAS    ERIS     OPER     JKOP   
                                         7000   
                                        PAPT AO    

              2       6        0.99       700     1000      520     2100     2101     7000   
                                         GEOM     BASIS   MCVARS     RHF      RHF     PAPT   

 PROGRAMS   *        TOTAL      PAPT    HF-SCF    HF-SCF       INT
 CPU TIMES  *         1.69      0.18      0.06      0.31      1.02
 REAL TIME  *         6.68 SEC
 DISK USED  *       266.50 MB
 **********************************************************************************************************************************


 PROGRAM * MP3 (Closed-shell)     Authors: C. Hampel, H.-J. Werner, 1991, M. Deegan, P.J. Knowles, 1992


 CORETYPE=SMALL

 Convergence thresholds:  THRVAR = 1.00D-08  THRDEN = 1.00D-06

 Number of closed-shell orbitals:   4 (   3   0   1   0 )
 Number of external orbitals:     140 (  51  30  39  20 )

 Molecular orbitals read from record     7000.2  Type=PAPT/CANONICAL (state 1.1)

 Number of N-1 electron functions:               4
 Number of N-2 electron functions:              10
 Number of singly external CSFs:               192
 Number of doubly external CSFs:             42924
 Total number of CSFs:                       43117

 Length of J-op  integral file:               0.00 MB
 Length of K-op  integral file:               0.46 MB

 Integral transformation finished. Total CPU:   0.06 sec, npass=  1  Memory used:   0.15 MW
 Orbital energies read from record       7000.2  Type=PAPT/CANONICAL (state 1.1)

 Reference energy:                    -38.89521331

                        CORR.ENERGY   TOTAL ENERGY   ENERGY CHANGE
 MP2:                   -0.22625155   -39.12146486    -0.22625155

 SCS-MP2 correlation energy:           -0.24664173   (PS=  1.200000  PT=  0.333333)
 SCS-MP2 total energy:                -39.14185505

 MP3(D):                -0.22738321   -39.12259652    -0.00113166



 RESULTS
 =======

  Reference energy                    -38.895213310414

  Correlated core orbitals:             1.1
  Orbital energies:                   -10.3565

  MP3 core-core energy                 -0.041013233719
  MP3 core-valence energy              -0.012385662011
  MP3 valence correlation energy       -0.173984314010

  MP3 singlet pair energy              -0.187652611108
  MP3 triplet pair energy              -0.039730598632
  MP3 correlation energy               -0.227383209740

 !MP3 total energy                    -39.122596520154

 Timing summary (sec):

 STEP                 CPU(USER)    SYS     CPU(TOT)    WALL
 Transformation          0.09      0.02      0.11      0.51
 CCSD iterations         1.88      0.00      1.88      0.56

 Program statistics:

 Available memory in ccsd:               393215933
 Min. memory needed in ccsd:                201342
 Max. memory used in ccsd:                  232054
 Max. memory used in cckext:                303930 ( 1 integral passes)



 **********************************************************************************************************************************
 DATASETS  * FILE   NREC   LENGTH (MB)   RECORD NAMES
              1      21       96.35       500      610      700      900      950      970     1000      129      960     1100   
                                          VAR    BASINP    GEOM    SYMINP    ZMAT    AOBASIS   BASIS     P2S    ABASIS      S 
                                         1400     1410     1200     1210     1080     1600     1650     1300     1700     1380   
                                           T        V       H0       H01     AOSYM     SMH    MOLCAS    ERIS     OPER     JKOP   
                                         7000   
                                        PAPT AO    

              2       6        0.99       700     1000      520     2100     2101     7000   
                                         GEOM     BASIS   MCVARS     RHF      RHF     PAPT   

 PROGRAMS   *        TOTAL       MP3      PAPT    HF-SCF    HF-SCF       INT
 CPU TIMES  *         1.88      0.19      0.18      0.06      0.31      1.02
 REAL TIME  *         8.30 SEC
 DISK USED  *       266.50 MB
 **********************************************************************************************************************************

 Dump information in style XML to xml output                                                                      

 Orbitals will not be exported.

 **********************************************************************************************************************************

 MP3/cc-pCVQZ energy=    -39.122596520154

             MP3            PAPT          HF-SCF          HF-SCF
    -39.12259652    -39.11487729    -38.89521331    -38.89521331
 **********************************************************************************************************************************
 Molpro calculation terminated
