
 Working directory              : /var/folders/2v/xbgp75_9785319ghcgb4zr4r0000gp/T//molpro.k9JLf5ufXU/
 Global scratch directory       : /var/folders/2v/xbgp75_9785319ghcgb4zr4r0000gp/T//molpro.k9JLf5ufXU/
 Wavefunction directory         : /Users/sacpjk/wfu/
 Main file repository           : /var/folders/2v/xbgp75_9785319ghcgb4zr4r0000gp/T//molpro.k9JLf5ufXU/

 id        : peterk

 Nodes                        nprocs
 Cardiff-University-G34YLXT77Y    1
 GA implementation: MPI file
 GA implementation (serial work in mppx): MPI file

 Using customized tuning parameters: mindgm=1; mindgv=20; mindgc=4; mindgr=1; noblas=0; minvec=7
 default implementation of scratch files=df  


 Variables initialized (1032), CPU time= 0.01 sec
 
 symmetry,nosym
 
 
 geometry={
            4
     H         -0.26904536     -1.53918757      0.00000000
     O         -0.82676854     -0.22999776      0.00000000
     N          0.03423988      0.64855342      0.00000000
     N          1.06157401      1.12063191      0.00000000
 }
 basis=cc-pVDZ
 
 
 spin=1
 uhf
 
 
 
 {put,xml;noorbitals,nobasis}
 Commands initialized (841), CPU time= 0.00 sec, 704 directives.
 Default parameters read. Elapsed time= 0.18 sec

 Checking input...
 Passed
1


                                         ***  PROGRAM SYSTEM MOLPRO  ***
                                       Copyright, TTI GmbH Stuttgart, 2015
                                    Version 2023.1 linked Tue Jun  6 09:54:11 2023


 **********************************************************************************************************************************
 LABEL *                                                                                                                                                                 
  64 bit serial version                                                                  DATE: 09-Jun-23          TIME: 09:26:57  
 **********************************************************************************************************************************

 SHA1:             8ebb0dd001088a5c915591db1a321413035db0b1
 **********************************************************************************************************************************

 Memory per process:       805 MW
 Total memory per node:   1074 MW
 Total GA space:           268 MW

 GA preallocation disabled
 GA check enabled

 Variable memory set to 805.3 MW

 ZSYMEL=NOSYM


 Geometry recognized as XYZ

 SETTING BASIS          =    CC-PVDZ
 SETTING SPIN           =         1.00000000                                  


 Recomputing integrals since basis changed


 Using spherical harmonics

 Library entry H      S cc-pVDZ              selected for orbital group  1
 Library entry H      P cc-pVDZ              selected for orbital group  1
 Library entry O      S cc-pVDZ              selected for orbital group  2
 Library entry O      P cc-pVDZ              selected for orbital group  2
 Library entry O      D cc-pVDZ              selected for orbital group  2
 Library entry N      S cc-pVDZ              selected for orbital group  3
 Library entry N      P cc-pVDZ              selected for orbital group  3
 Library entry N      D cc-pVDZ              selected for orbital group  3


 PROGRAM * SEWARD (Integral evaluation for generally contracted gaussian basis sets)     Author: Roland Lindh, 1990

 Geometry written to block  1 of record 700


 Point group  C1  



 ATOMIC COORDINATES

 NR  ATOM    CHARGE       X              Y              Z

   1  H       1.00   -0.508422046   -2.908642962    0.000000000
   2  O       8.00   -1.562366109   -0.434632776    0.000000000
   3  N       7.00    0.064703996    1.225588341    0.000000000
   4  N       7.00    2.006084140    2.117687396    0.000000000

 Bond lengths in Bohr (Angstrom)

 2-3  2.324584110  3-4  2.136538694
     ( 1.230116936)     ( 1.130607587)

 Bond angles

  2-3-4  159.10184565

 NUCLEAR CHARGE:                   23
 NUMBER OF PRIMITIVE AOS:          88
 NUMBER OF SYMMETRY AOS:           85
 NUMBER OF CONTRACTIONS:           47   (   47A   )
 NUMBER OF INNER CORE ORBITALS:     0   (    0A   )
 NUMBER OF OUTER CORE ORBITALS:     3   (    3A   )
 NUMBER OF VALENCE ORBITALS:       13   (   13A   )


 NUCLEAR REPULSION ENERGY   65.68637653

 EXTRA SYMMETRY OF AOS IN SYMMETRY 1:   1 1 1 1 2 1 1 1 1 1   2 1 1 2 1 1 2 1 2 1   1 1 1 1 2 1 1 2 1 1   2 1 2 1 1 1 1 1 2 1
                                        1 2 1 1 2 1 2

 Eigenvalues of metric

         1 0.298E-02 0.768E-02 0.343E-01 0.558E-01 0.646E-01 0.764E-01 0.989E-01 0.103E+00


 Contracted 2-electron integrals neglected if value below      1.0D-11
 AO integral compression algorithm  1   Integral accuracy      1.0D-11

     2.359 MB (compressed) written to integral file ( 32.2%)


 NUMBER OF SORTED TWO-ELECTRON INTEGRALS:     636756.     BUFFER LENGTH:  32768
 NUMBER OF SEGMENTS:   1  SEGMENT LENGTH:     636756      RECORD LENGTH: 524288

 Memory used in sort:       1.19 MW

 SORT1 READ      824555. AND WROTE      326926. INTEGRALS IN      1 RECORDS. CPU TIME:     0.01 SEC, REAL TIME:     0.00 SEC
 SORT2 READ      326926. AND WROTE      636756. INTEGRALS IN      9 RECORDS. CPU TIME:     0.01 SEC, REAL TIME:     0.01 SEC

 FILE SIZES:   FILE 1:    32.5 MBYTE,  FILE 4:     4.3 MBYTE,   TOTAL:     36.7 MBYTE

 OPERATOR DM      FOR CENTER  0  COORDINATES:    0.000000    0.000000    0.000000


 **********************************************************************************************************************************
 DATASETS  * FILE   NREC   LENGTH (MB)   RECORD NAMES
              1      19       30.28       500      610      700      900      950      970     1000      129      960     1100   
                                          VAR    BASINP    GEOM    SYMINP    ZMAT    AOBASIS   BASIS     P2S    ABASIS      S 
                                         1400     1410     1200     1210     1080     1600     1650     1300     1700   
                                           T        V       H0       H01     AOSYM     SMH    MOLCAS    ERIS     OPER   

 PROGRAMS   *        TOTAL       INT
 CPU TIMES  *         0.22      0.14
 REAL TIME  *         0.77 SEC
 DISK USED  *        35.41 MB
 **********************************************************************************************************************************


 Program * Unrestricted Hartree-Fock

 Orbital guess generated from atomic densities. Full valence occupancy:   16

 Initial alpha occupancy:  12
 Initial beta  occupancy:  11

 Elapsed time for starting guess:      0.00 sec

 NELEC=   23   SYM=1   MS2=1   THRE=1.0D-08   THRD=3.2D-06   THRG=3.2D-06  HFMA2=F  DIIS_START=2   DIIS_MAX=10   DIIS_INCORE=F

 Initial level shifts:    0.20 (ALPHA)    0.20 (BETA)

 ITER         ETOT            DE          GRAD         DDIFF    DIIS  NEXP   TIME(IT)  TIME(TOT)  DIAG
   1   -184.04751805  -184.04751805     0.00D+00     0.00D+00     0     0       0.00      0.00    start
   2   -184.11221925    -0.06470120     0.16D-01     0.18D+00     1     0       0.01      0.01    diag
   3   -184.13904523    -0.02682598     0.93D-02     0.29D-01     2     0       0.00      0.01    diag
   4   -184.14355955    -0.00451432     0.21D-02     0.12D-01     3     0       0.00      0.01    diag
   5   -184.14663860    -0.00307905     0.15D-02     0.29D-02     4     0       0.01      0.02    diag
   6   -184.14840370    -0.00176510     0.10D-02     0.23D-02     5     0       0.00      0.02    diag
   7   -184.14951329    -0.00110959     0.67D-03     0.16D-02     6     0       0.01      0.03    diag
   8   -184.15020549    -0.00069220     0.47D-03     0.11D-02     7     0       0.00      0.03    diag
   9   -184.15082199    -0.00061650     0.35D-03     0.74D-03     8     0       0.00      0.03    diag
  10   -184.15128191    -0.00045992     0.27D-03     0.90D-03     9     0       0.01      0.04    diag/ort
  11   -184.15157135    -0.00028944     0.22D-03     0.97D-03     9     0       0.00      0.04    diag
  12   -184.15175891    -0.00018755     0.17D-03     0.77D-03     9     0       0.01      0.05    diag
  13   -184.15190654    -0.00014763     0.13D-03     0.55D-03     9     0       0.00      0.05    diag
  14   -184.15195048    -0.00004394     0.97D-04     0.50D-03     9     0       0.00      0.05    diag
  15   -184.15197663    -0.00002616     0.63D-04     0.16D-03     9     0       0.01      0.06    diag
  16   -184.15198126    -0.00000463     0.46D-04     0.25D-03     9     0       0.00      0.06    diag
  17   -184.15198219    -0.00000093     0.20D-04     0.68D-04     9     0       0.00      0.06    diag
  18   -184.15198248    -0.00000030     0.11D-04     0.29D-04     9     0       0.01      0.07    diag
  19   -184.15198261    -0.00000012     0.73D-05     0.16D-04     9     0       0.00      0.07    diag
  20   -184.15198271    -0.00000010     0.54D-05     0.14D-04     9     0       0.01      0.08    diag/ort
  21   -184.15198277    -0.00000007     0.40D-05     0.18D-04     9     0       0.00      0.08    diag
  22   -184.15198280    -0.00000003     0.29D-05     0.16D-04     9     0       0.00      0.08    diag
  23   -184.15198282    -0.00000001     0.20D-05     0.11D-04     9     0       0.01      0.09    diag
  24   -184.15198282    -0.00000000     0.13D-05     0.11D-04     9     0       0.00      0.09    diag
  25   -184.15198282    -0.00000000     0.69D-06     0.38D-05     9     0       0.00      0.09    diag

 Final alpha occupancy:  12
 Final beta  occupancy:  11

 !UHF STATE 1.1 Energy               -184.151982819844
  UHF One-electron energy            -380.744396349371
  UHF Two-electron energy             130.906036998368
  UHF Kinetic energy                  184.046511844291
  UHF Nuclear energy                   65.686376531159
  UHF Virial quotient                  -1.000573066963

 !UHF STATE 1.1 Dipole moment           0.08185577     0.11711938    -0.00000000
 Dipole moment /Debye                   0.20805660     0.29768777    -0.00000000

 EXPECTATION VALUE OF S**2:             1.01341953

 Orbital energies for positive spin:

           1.1          2.1          3.1          4.1          5.1          6.1          7.1          8.1          9.1         10.1
    -20.688207   -15.790965   -15.704767    -1.587476    -1.416839    -0.867709    -0.755106    -0.731168    -0.712442    -0.553961

          11.1         12.1         13.1         14.1
     -0.515670    -0.340238     0.113609     0.156495

 Orbital energies for negative spin:

           1.1          2.1          3.1          4.1          5.1          6.1          7.1          8.1          9.1         10.1
    -20.699744   -15.801259   -15.678718    -1.598967    -1.399378    -0.866746    -0.761881    -0.754528    -0.664550    -0.530999

          11.1         12.1         13.1
     -0.510960     0.098292     0.167665


 HOMO     12.1    -0.340238 =      -9.2583eV
 LUMO    -12.1     0.098292 =       2.6747eV
 LUMO-HOMO         0.438530 =      11.9330eV

 Orbitals saved in record  2200.2

 Occupation number threshold for pseudo-canonical orbitals: 1.9990 (occupied), 0.0010 (virtual)

 Number of pseudo-canonical occupied orbitals per symmetry:    8
 Number of active natural orbitals per symmetry:               7

 Natural orbitals saved to record    2200.2 (Orbital set 3)

 Orbital spaces for UNO-CAS (Min. occupation: 0.020  Max. occupation: 1.980):

 Closed:        9
 Active:        5


 **********************************************************************************************************************************
 DATASETS  * FILE   NREC   LENGTH (MB)   RECORD NAMES
              1      19       30.28       500      610      700      900      950      970     1000      129      960     1100   
                                          VAR    BASINP    GEOM    SYMINP    ZMAT    AOBASIS   BASIS     P2S    ABASIS      S 
                                         1400     1410     1200     1210     1080     1600     1650     1300     1700   
                                           T        V       H0       H01     AOSYM     SMH    MOLCAS    ERIS     OPER   

              2       4        0.52       700     1000      520     2200   
                                         GEOM     BASIS   MCVARS     UHF  

              4       3        0.44      2900     3000     3100   

 PROGRAMS   *        TOTAL   UHF-SCF       INT
 CPU TIMES  *         0.32      0.10      0.14
 REAL TIME  *         1.15 SEC
 DISK USED  *        35.41 MB
 **********************************************************************************************************************************

 Dump information in style XML to xml output                                                                      

 Orbitals will not be exported.

 **********************************************************************************************************************************

 UHF/cc-pVDZ energy=   -184.151982819844

         UHF-SCF
   -184.15198282
 **********************************************************************************************************************************
 Molpro calculation terminated
