
 Working directory              : /tmp/peterk/molpro.uIt4TP8EL1/
 Global scratch directory       : /tmp/peterk/molpro.uIt4TP8EL1/
 Wavefunction directory         : /home/peterk/wfu/
 Main file repository           : /tmp/peterk/molpro.uIt4TP8EL1/

 id        : peterk

 Nodes     nprocs
 marat        1
 GA implementation: MPI file
 GA implementation (serial work in mppx): MPI file

 Using customized tuning parameters: mindgm=1; mindgv=20; mindgc=4; mindgr=1; noblas=0; minvec=7
 default implementation of scratch files=df  


 Variables initialized (1032), CPU time= 0.00 sec
 
 symmetry,nosym
 
 
 geometry={
            5
     C          0.00000000      0.00000000      0.06556637
     F          0.00000000      0.00000000     -1.31562859
     H          0.51491633     -0.89186125      0.41668741
     H          0.51491633      0.89186125      0.41668741
     H         -1.02983267      0.00000000      0.41668741
 }
 basis=cc-pVQZ
 
 
 
 hf; hf; papt; mp4
 
 
 
 {put,xml;noorbitals,nobasis}
 Commands initialized (841), CPU time= 0.01 sec, 708 directives.
 Default parameters read. Elapsed time= 0.05 sec

 Checking input...
 Passed
1


                                         ***  PROGRAM SYSTEM MOLPRO  ***
                                       Copyright, TTI GmbH Stuttgart, 2015
                                    Version 2023.1 linked Sat Jun 10 08:01:27 2023


 **********************************************************************************************************************************
 LABEL *                                                                                                                                                                 
  (16 PROC) 64 bit serial version                                                        DATE: 11-Jun-23          TIME: 16:58:22  
 **********************************************************************************************************************************

 SHA1:             8376d659ba1296ca7ee514c57770fe2c96af278c
 **********************************************************************************************************************************

 Memory per process:      1074 MW
 Total memory per node:   1074 MW

 GA preallocation disabled
 GA check disabled

 Variable memory set to 1073.7 MW

 ZSYMEL=NOSYM


 Geometry recognized as XYZ

 SETTING BASIS          =    CC-PVQZ


 Recomputing integrals since basis changed


 Using spherical harmonics

 Library entry C      S cc-pVQZ              selected for orbital group  1
 Library entry C      P cc-pVQZ              selected for orbital group  1
 Library entry C      D cc-pVQZ              selected for orbital group  1
 Library entry C      F cc-pVQZ              selected for orbital group  1
 Library entry C      G cc-pVQZ              selected for orbital group  1
 Library entry F      S cc-pVQZ              selected for orbital group  2
 Library entry F      P cc-pVQZ              selected for orbital group  2
 Library entry F      D cc-pVQZ              selected for orbital group  2
 Library entry F      F cc-pVQZ              selected for orbital group  2
 Library entry F      G cc-pVQZ              selected for orbital group  2
 Library entry H      S cc-pVQZ              selected for orbital group  3
 Library entry H      P cc-pVQZ              selected for orbital group  3
 Library entry H      D cc-pVQZ              selected for orbital group  3
 Library entry H      F cc-pVQZ              selected for orbital group  3


 PROGRAM * SEWARD (Integral evaluation for generally contracted gaussian basis sets)     Author: Roland Lindh, 1990

 Geometry written to block  1 of record 700


 Point group  C1  



 ATOMIC COORDINATES

 NR  ATOM    CHARGE       X              Y              Z

   1  C       6.00    0.000000000    0.000000000    0.123902482
   2  F       9.00    0.000000000    0.000000000   -2.486177717
   3  H       1.00    0.973050841   -1.685373504    0.787425084
   4  H       1.00    0.973050841    1.685373504    0.787425084
   5  H       1.00   -1.946101700    0.000000000    0.787425084

 Bond lengths in Bohr (Angstrom)

 1-2  2.610080199  1-3  2.056106522  1-4  2.056106522  1-5  2.056106532
     ( 1.381194960)     ( 1.088044715)     ( 1.088044715)     ( 1.088044720)

 Bond angles

  2-1-3  108.82678959   2-1-4  108.82678959   2-1-5  108.82678949   3-1-4  110.10789247

  3-1-5  110.10789219   4-1-5  110.10789219

 NUCLEAR CHARGE:                   18
 NUMBER OF PRIMITIVE AOS:         277
 NUMBER OF SYMMETRY AOS:          232
 NUMBER OF CONTRACTIONS:          200   (  200A   )
 NUMBER OF INNER CORE ORBITALS:     0   (    0A   )
 NUMBER OF OUTER CORE ORBITALS:     2   (    2A   )
 NUMBER OF VALENCE ORBITALS:       11   (   11A   )


 NUCLEAR REPULSION ENERGY   37.42306171


 Eigenvalues of metric

         1 0.155E-03 0.288E-03 0.288E-03 0.438E-03 0.492E-03 0.164E-02 0.164E-02 0.166E-02


 Contracted 2-electron integrals neglected if value below      1.0D-11
 AO integral compression algorithm  1   Integral accuracy      1.0D-11

     752.878 MB (compressed) written to integral file ( 40.6%)


 NUMBER OF SORTED TWO-ELECTRON INTEGRALS:  202015050.     BUFFER LENGTH:  32768
 NUMBER OF SEGMENTS:  13  SEGMENT LENGTH:   15999503      RECORD LENGTH: 524288

 Memory used in sort:      16.56 MW

 SORT1 READ   231754055. AND WROTE   165269791. INTEGRALS IN    480 RECORDS. CPU TIME:     1.49 SEC, REAL TIME:     2.63 SEC
 SORT2 READ   165269791. AND WROTE   202015050. INTEGRALS IN   2872 RECORDS. CPU TIME:     1.46 SEC, REAL TIME:     2.04 SEC

 FILE SIZES:   FILE 1:   784.4 MBYTE,  FILE 4:  2013.3 MBYTE,   TOTAL:   2797.8 MBYTE

 OPERATOR DM      FOR CENTER  0  COORDINATES:    0.000000    0.000000    0.000000


 **********************************************************************************************************************************
 DATASETS  * FILE   NREC   LENGTH (MB)   RECORD NAMES
              1      19      670.81       500      610      700      900      950      970     1000      129      960     1100   
                                          VAR    BASINP    GEOM    SYMINP    ZMAT    AOBASIS   BASIS     P2S    ABASIS      S 
                                         1400     1410     1200     1210     1080     1600     1650     1300     1700   
                                           T        V       H0       H01     AOSYM     SMH    MOLCAS    ERIS     OPER   

 PROGRAMS   *        TOTAL       INT
 CPU TIMES  *         8.85      8.75
 REAL TIME  *        11.91 SEC
 DISK USED  *         2.61 GB
 **********************************************************************************************************************************


 Program * Restricted Hartree-Fock

 Orbital guess generated from atomic densities. Full valence occupancy:   13

 Initial occupancy:   9

 NELEC=   18   SYM=1   MS2= 0   THRE=1.0D-08   THRD=3.2D-06   THRG=3.2D-06  HFMA2=F  DIIS_START=2   DIIS_MAX=10   DIIS_INCORE=F

 Level shifts:    0.00 (CLOSED)    0.00 (OPEN)    0.30 (GAP_MIN)

 ITER           ETOT              DE          GRAD        DDIFF     DIIS  NEXP   TIME(IT)  TIME(TOT)  DIAG
   1     -139.08025149    -139.08025149     0.00D+00     0.42D-01     0     0       1.10      2.02    start
   2     -139.10077916      -0.02052768     0.42D-02     0.32D-02     1     0       1.01      3.03    diag
   3     -139.10580535      -0.00502619     0.23D-02     0.12D-02     2     0       1.00      4.03    diag
   4     -139.10615964      -0.00035428     0.44D-03     0.34D-03     3     0       1.00      5.03    diag
   5     -139.10618202      -0.00002238     0.91D-04     0.90D-04     4     0       1.01      6.04    diag
   6     -139.10618308      -0.00000106     0.20D-04     0.25D-04     5     0       1.00      7.04    diag
   7     -139.10618314      -0.00000006     0.46D-05     0.57D-05     6     0       1.03      8.07    diag
   8     -139.10618314      -0.00000000     0.10D-05     0.13D-05     7     0       1.01      9.08    fixocc
   9     -139.10618314      -0.00000000     0.26D-06     0.24D-06     0     0       1.00     10.08    diag

 Final occupancy:   9

 !RHF STATE 1.1 Energy               -139.106183140667
  RHF One-electron energy            -266.574876983519
  RHF Two-electron energy              90.045632129812
  RHF Kinetic energy                  139.023453821899
  RHF Nuclear energy                   37.423061713039
  RHF Virial quotient                  -1.000595074547

 !RHF STATE 1.1 Dipole moment           0.00000000    -0.00000000     0.80112756
 Dipole moment /Debye                   0.00000000    -0.00000000     2.03626316

 Orbital energies:

           1.1          2.1          3.1          4.1          5.1          6.1          7.1          8.1          9.1         10.1
    -26.272915   -11.303844    -1.585321    -0.954563    -0.695305    -0.695305    -0.673724    -0.530411    -0.530411     0.116886

          11.1
      0.185448


 HOMO      9.1    -0.530411 =     -14.4332eV
 LUMO     10.1     0.116886 =       3.1806eV
 LUMO-HOMO         0.647297 =      17.6139eV

 Orbitals saved in record  2100.2


 **********************************************************************************************************************************
 DATASETS  * FILE   NREC   LENGTH (MB)   RECORD NAMES
              1      19      670.81       500      610      700      900      950      970     1000      129      960     1100   
                                          VAR    BASINP    GEOM    SYMINP    ZMAT    AOBASIS   BASIS     P2S    ABASIS      S 
                                         1400     1410     1200     1210     1080     1600     1650     1300     1700   
                                           T        V       H0       H01     AOSYM     SMH    MOLCAS    ERIS     OPER   

              2       4        1.09       700     1000      520     2100   
                                         GEOM     BASIS   MCVARS     RHF  

 PROGRAMS   *        TOTAL    HF-SCF       INT
 CPU TIMES  *        18.93     10.07      8.75
 REAL TIME  *        22.84 SEC
 DISK USED  *         2.61 GB
 **********************************************************************************************************************************


 Program * Restricted Hartree-Fock

 Molecular orbitals read from record     2100.2  Type=RHF/CANONICAL  

 Initial occupancy:   9

 NELEC=   18   SYM=1   MS2= 0   THRE=1.0D-08   THRD=3.2D-06   THRG=3.2D-06  HFMA2=F  DIIS_START=2   DIIS_MAX=10   DIIS_INCORE=F

 Level shifts:    0.00 (CLOSED)    0.00 (OPEN)    0.30 (GAP_MIN)

 ITER           ETOT              DE          GRAD        DDIFF     DIIS  NEXP   TIME(IT)  TIME(TOT)  DIAG
   1     -139.10618314    -139.10618314     0.00D+00     0.43D-01     0     0       1.02      1.02    start
   2     -139.10618314      -0.00000000     0.12D-06     0.12D-06     1     0       1.04      2.06    diag

 Final occupancy:   9

 !RHF STATE 1.1 Energy               -139.106183140716
  RHF One-electron energy            -266.574884962383
  RHF Two-electron energy              90.045640108628
  RHF Kinetic energy                  139.023468335592
  RHF Nuclear energy                   37.423061713039
  RHF Virial quotient                  -1.000594970088

 !RHF STATE 1.1 Dipole moment           0.00000000    -0.00000000     0.80112050
 Dipole moment /Debye                   0.00000000    -0.00000000     2.03624520

 Orbital energies:

           1.1          2.1          3.1          4.1          5.1          6.1          7.1          8.1          9.1         10.1
    -26.272920   -11.303841    -1.585323    -0.954563    -0.695306    -0.695306    -0.673725    -0.530411    -0.530411     0.116887

          11.1
      0.185448


 HOMO      9.1    -0.530411 =     -14.4332eV
 LUMO     10.1     0.116887 =       3.1806eV
 LUMO-HOMO         0.647298 =      17.6139eV

 Orbitals saved in record  2101.2


 **********************************************************************************************************************************
 DATASETS  * FILE   NREC   LENGTH (MB)   RECORD NAMES
              1      19      670.81       500      610      700      900      950      970     1000      129      960     1100   
                                          VAR    BASINP    GEOM    SYMINP    ZMAT    AOBASIS   BASIS     P2S    ABASIS      S 
                                         1400     1410     1200     1210     1080     1600     1650     1300     1700   
                                           T        V       H0       H01     AOSYM     SMH    MOLCAS    ERIS     OPER   

              2       5        2.26       700     1000      520     2100     2101   
                                         GEOM     BASIS   MCVARS     RHF      RHF  

 PROGRAMS   *        TOTAL    HF-SCF    HF-SCF       INT
 CPU TIMES  *        21.00      2.06     10.07      8.75
 REAL TIME  *        25.08 SEC
 DISK USED  *         2.61 GB
 **********************************************************************************************************************************


 PROGRAM * PAPT (Closed-shell)     Authors: C. Hampel, H.-J. Werner, 1991, P.J. Knowles, 2021


 Convergence thresholds:  THRVAR = 1.00D-08  THRDEN = 1.00D-06

 Number of core orbitals:           2 (   2 )
 Number of closed-shell orbitals:   7 (   7 )
 Number of external orbitals:     191 ( 191 )

 Molecular orbitals read from record     2101.2  Type=RHF/CANONICAL  

 Number of N-1 electron functions:               7
 Number of N-2 electron functions:              28
 Number of singly external CSFs:              1337
 Number of doubly external CSFs:            894453
 Total number of CSFs:                      895791

 Length of J-op  integral file:               0.00 MB
 Length of K-op  integral file:               2.81 MB

 Integral transformation finished. Total CPU:   1.78 sec, npass=  1  Memory used:   2.75 MW

 Reference energy:                   -139.10618314

                        CORR.ENERGY   TOTAL ENERGY   ENERGY CHANGE
 MP2:                   -0.46973303  -139.57591617    -0.46973303

 SCS-MP2 correlation energy:           -0.47109558   (PS=  1.200000  PT=  0.333333)
 SCS-MP2 total energy:               -139.57727873
 Iteration:   1     0.2376D+00
 Iteration:   2     0.2359D+00
 Iteration:   3     0.1175D+00
 Iteration:   4     0.5373D-01
 Iteration:   5     0.2011D+00
 Iteration:   6     0.2911D-01
 Iteration:   7     0.2576D-01
 Iteration:   8     0.2053D-01
 Iteration:   9     0.4171D-02
 Iteration:  10     0.8665D-02
 Iteration:  11     0.1378D-02
 Iteration:  12     0.6844D-03
 Iteration:  13     0.3939D-02
 Iteration:  14     0.2903D-03
 Iteration:  15     0.3012D-03
 Iteration:  16     0.2154D-03
 Iteration:  17     0.6689D-04
 PAPT operator written to  7000.1
 PAPT orbitals and eigenvalues written to  7000.2

 MP3(D):                -0.47875523  -139.58493837    -0.00902220



 RESULTS
 =======

  Reference energy                   -139.106183140716
  MP3 singlet pair energy              -0.329792060367
  MP3 triplet pair energy              -0.148963167437
  MP3 correlation energy               -0.478755227804

 !MP3 total energy                   -139.584938368521

 Timing summary (sec):

 STEP                 CPU(USER)    SYS     CPU(TOT)    WALL
 Transformation          1.81      0.09      1.90      1.90
 CCSD iterations        25.86      0.13     25.99      4.66

 Program statistics:

 Available memory in ccsd:              1073741619
 Min. memory needed in ccsd:               2832657
 Max. memory used in ccsd:                 3575462
 Max. memory used in cckext:               2553920 ( 1 integral passes)



 **********************************************************************************************************************************
 DATASETS  * FILE   NREC   LENGTH (MB)   RECORD NAMES
              1      21      684.42       500      610      700      900      950      970     1000      129      960     1100   
                                          VAR    BASINP    GEOM    SYMINP    ZMAT    AOBASIS   BASIS     P2S    ABASIS      S 
                                         1400     1410     1200     1210     1080     1600     1650     1300     1700     1380   
                                           T        V       H0       H01     AOSYM     SMH    MOLCAS    ERIS     OPER     JKOP   
                                         7000   
                                        PAPT AO    

              2       6        3.28       700     1000      520     2100     2101     7000   
                                         GEOM     BASIS   MCVARS     RHF      RHF     PAPT   

 PROGRAMS   *        TOTAL      PAPT    HF-SCF    HF-SCF       INT
 CPU TIMES  *        27.38      6.37      2.06     10.07      8.75
 REAL TIME  *        31.69 SEC
 DISK USED  *         2.61 GB
 **********************************************************************************************************************************


 PROGRAM * MP4 (Closed-shell)     Authors: C. Hampel, H.-J. Werner, 1991, M. Deegan, P.J. Knowles, 1992


 Convergence thresholds:  THRVAR = 1.00D-08  THRDEN = 1.00D-06

 MP4(T)     terms to be evaluated (factor= 0.000)


 Number of core orbitals:           2 (   2 )
 Number of closed-shell orbitals:   7 (   7 )
 Number of external orbitals:     191 ( 191 )

 Molecular orbitals read from record     7000.2  Type=PAPT/CANONICAL (state 1.1)

 Number of N-1 electron functions:               7
 Number of N-2 electron functions:              28
 Number of singly external CSFs:              1337
 Number of doubly external CSFs:            894453
 Total number of CSFs:                      895791

 Length of J-op  integral file:               0.00 MB
 Length of K-op  integral file:               2.81 MB

 Memory could be reduced to 68.94 Mwords without degradation in triples

 Integral transformation finished. Total CPU:   3.94 sec, npass=  1  Memory used:  34.91 MW
 Orbital energies read from record       7000.2  Type=PAPT/CANONICAL (state 1.1)

 Reference energy:                   -139.10618314

                        CORR.ENERGY   TOTAL ENERGY   ENERGY CHANGE
 MP2:                   -0.48348087  -139.58966401    -0.48348087

 SCS-MP2 correlation energy:           -0.48703403   (PS=  1.200000  PT=  0.333333)
 SCS-MP2 total energy:               -139.59321717

 MP3(D):                -0.48373726  -139.58992040    -0.00025639
 MP4(DQ):               -0.47917217  -139.58535531     0.00456510
 MP4(SDQ):              -0.48236916  -139.58855230    -0.00319699

 Norm of t1 vector:      0.04320045      S-energy:    -0.00319699      T1 diagnostic:  0.00816412

 Largest off-diagonal element in interal  block of Fock matrix:  0.13D+00
 Largest off-diagonal element in external block of Fock matrix:  0.12D+01


 Total CPU time for triples:     32.76 sec


 RESULTS
 =======

  Reference energy                   -139.106183140716
  MP4(SDQ) singlet pair energy         -0.330245577434
  MP4(SDQ) triplet pair energy         -0.148926588978
  MP4(SDQ) correlation energy          -0.482369160714

  Triples contribution                 -0.016669642606
  Total correlation energy             -0.499038803320

  MP4(SDQ) total energy              -139.588552301430
 !MP4(SDTQ) total energy             -139.605221944036

 Timing summary (sec):

 STEP                 CPU(USER)    SYS     CPU(TOT)    WALL
 Transformation          4.97      0.59      5.56      5.56
 CCSD iterations        31.41      0.09     31.50      3.81
 Triples                32.76      0.73     33.49     33.49

 Program statistics:

 Available memory in ccsd:              1073741619
 Min. memory needed in ccsd:               2832657
 Max. memory used in ccsd:                 3575462
 Max. memory used in cckext:               2553920 ( 1 integral passes)



 **********************************************************************************************************************************
 DATASETS  * FILE   NREC   LENGTH (MB)   RECORD NAMES
              1      22      871.45       500      610      700      900      950      970     1000      129      960     1100   
                                          VAR    BASINP    GEOM    SYMINP    ZMAT    AOBASIS   BASIS     P2S    ABASIS      S 
                                         1400     1410     1200     1210     1080     1600     1650     1300     1700     1380   
                                           T        V       H0       H01     AOSYM     SMH    MOLCAS    ERIS     OPER     JKOP   
                                         7000     1380(1)
                                        PAPT AO   JKOP   

              2       6        3.28       700     1000      520     2100     2101     7000   
                                         GEOM     BASIS   MCVARS     RHF      RHF     PAPT   

 PROGRAMS   *        TOTAL       MP4      PAPT    HF-SCF    HF-SCF       INT
 CPU TIMES  *        68.85     41.46      6.37      2.06     10.07      8.75
 REAL TIME  *        74.59 SEC
 DISK USED  *         2.61 GB
 **********************************************************************************************************************************

 Dump information in style XML to xml output                                                                      

 Orbitals will not be exported.

 **********************************************************************************************************************************

 MP4/cc-pVQZ energy=   -139.605221944036

             MP4            PAPT          HF-SCF          HF-SCF
   -139.60522194   -139.58493837   -139.10618314   -139.10618314
 **********************************************************************************************************************************
 Molpro calculation terminated
