
 Working directory              : /var/folders/2v/xbgp75_9785319ghcgb4zr4r0000gp/T//molpro.1TZ2p4U0pN/
 Global scratch directory       : /var/folders/2v/xbgp75_9785319ghcgb4zr4r0000gp/T//molpro.1TZ2p4U0pN/
 Wavefunction directory         : /Users/sacpjk/wfu/
 Main file repository           : /var/folders/2v/xbgp75_9785319ghcgb4zr4r0000gp/T//molpro.1TZ2p4U0pN/

 id        : peterk

 Nodes                        nprocs
 Cardiff-University-G34YLXT77Y    1
 GA implementation: MPI file
 GA implementation (serial work in mppx): MPI file

 Using customized tuning parameters: mindgm=1; mindgv=20; mindgc=4; mindgr=1; noblas=0; minvec=7
 default implementation of scratch files=df  


 Variables initialized (1032), CPU time= 0.00 sec
 
 symmetry,nosym
 
 
 geometry={
            9
     C         -0.71355475      0.00000000     -0.69976629
     C         -1.24098505      0.00000000      0.55889447
     S          0.00000000      0.00000000      1.76913511
     C          1.24098505      0.00000000      0.55889447
     C          0.71355475      0.00000000     -0.69976629
     H         -1.31813560      0.00000000     -1.59705982
     H         -2.27881957      0.00000000      0.85336408
     H          2.27881957      0.00000000      0.85336408
     H          1.31813560      0.00000000     -1.59705982
 }
 basis=cc-pVTZ
 
 
 
 hf; hf; papt; mp4
 
 
 
 {put,xml;noorbitals,nobasis}
 Commands initialized (841), CPU time= 0.00 sec, 704 directives.
 Default parameters read. Elapsed time= 0.47 sec

 Checking input...
 Passed
1


                                         ***  PROGRAM SYSTEM MOLPRO  ***
                                       Copyright, TTI GmbH Stuttgart, 2015
                                    Version 2023.1 linked Tue Jun  6 09:54:11 2023


 **********************************************************************************************************************************
 LABEL *                                                                                                                                                                 
  64 bit serial version                                                                  DATE: 11-Jun-23          TIME: 14:42:13  
 **********************************************************************************************************************************

 SHA1:             8ebb0dd001088a5c915591db1a321413035db0b1
 **********************************************************************************************************************************

 Memory per process:       393 MW
 Total memory per node:    524 MW
 Total GA space:           131 MW

 GA preallocation disabled
 GA check enabled

 Variable memory set to 393.2 MW

 ZSYMEL=NOSYM


 Geometry recognized as XYZ

 SETTING BASIS          =    CC-PVTZ


 Recomputing integrals since basis changed


 Using spherical harmonics

 Library entry C      S cc-pVTZ              selected for orbital group  1
 Library entry C      P cc-pVTZ              selected for orbital group  1
 Library entry C      D cc-pVTZ              selected for orbital group  1
 Library entry C      F cc-pVTZ              selected for orbital group  1
 Library entry S      S cc-pVTZ              selected for orbital group  2
 Library entry S      P cc-pVTZ              selected for orbital group  2
 Library entry S      D cc-pVTZ              selected for orbital group  2
 Library entry S      F cc-pVTZ              selected for orbital group  2
 Library entry H      S cc-pVTZ              selected for orbital group  4
 Library entry H      P cc-pVTZ              selected for orbital group  4
 Library entry H      D cc-pVTZ              selected for orbital group  4


 PROGRAM * SEWARD (Integral evaluation for generally contracted gaussian basis sets)     Author: Roland Lindh, 1990

 Geometry written to block  1 of record 700


 Point group  C1  



 ATOMIC COORDINATES

 NR  ATOM    CHARGE       X              Y              Z

   1  C       6.00   -1.348423052    0.000000000   -1.322366639
   2  C       6.00   -2.345121869    0.000000000    1.056157481
   3  S      16.00    0.000000000    0.000000000    3.343180835
   4  C       6.00    2.345121869    0.000000000    1.056157481
   5  C       6.00    1.348423052    0.000000000   -1.322366639
   6  H       1.00   -2.490915279    0.000000000   -3.018005664
   7  H       1.00   -4.306344875    0.000000000    1.612624396
   8  H       1.00    4.306344875    0.000000000    1.612624396
   9  H       1.00    2.490915279    0.000000000   -3.018005664

 Bond lengths in Bohr (Angstrom)

 1-2  2.578911693  1-5  2.696846105  1-6  2.044622261  2-3  3.275678923  2-7  2.038639523
     ( 1.364701297)     ( 1.427109500)     ( 1.081967506)     ( 1.733414636)     ( 1.078801577)

 3-4  3.275678923  4-5  2.578911693  4-8  2.038639523  5-9  2.044622261
     ( 1.733414636)     ( 1.364701297)     ( 1.078801577)     ( 1.081967506)

 Bond angles

  1-2-3  111.54573147   1-2-7  128.57615248   1-5-4  112.73567595   1-5-9  123.97140770

  2-1-5  112.73567595   2-1-6  123.29291635   2-3-4   91.43718515   3-2-7  119.87811605

  3-4-5  111.54573147   3-4-8  119.87811605   4-5-9  123.29291635   5-1-6  123.97140770

  5-4-8  128.57615248

 NUCLEAR CHARGE:                   44
 NUMBER OF PRIMITIVE AOS:         320
 NUMBER OF SYMMETRY AOS:          291
 NUMBER OF CONTRACTIONS:          210   (  210A   )
 NUMBER OF INNER CORE ORBITALS:     1   (    1A   )
 NUMBER OF OUTER CORE ORBITALS:     8   (    8A   )
 NUMBER OF VALENCE ORBITALS:       24   (   24A   )


 NUCLEAR REPULSION ENERGY  202.03892472

 EXTRA SYMMETRY OF AOS IN SYMMETRY 1:   1 1 1 1 1 2 1 1 2 1   1 2 1 1 2 1 1 2 1 2   1 1 2 1 2 1 1 2 2 1   1 1 1 1 1 2 1 1 2 1
                                        1 2 1 1 2 1 1 2 1 2   1 1 2 1 2 1 1 2 2 1   1 1 1 1 1 1 2 1 1 2   1 1 2 1 1 2 1 1 2 1
                                        1 2 1 2 1 1 2 1 2 1   1 2 2 1 1 1 1 1 1 2   1 1 2 1 1 2 1 1 2 1   1 2 1 2 1 1 2 1 2 1
                                        1 2 2 1 1 1 1 1 1 2   1 1 2 1 1 2 1 1 2 1   1 2 1 2 1 1 2 1 2 1   1 2 2 1 1 1 1 1 2 1
                                        1 2 1 1 2 1 1 2 1 1   1 1 2 1 1 2 1 1 2 1   1 2 1 1 1 1 2 1 1 2   1 1 2 1 1 2 1 1 1 1
                                        2 1 1 2 1 1 2 1 1 2

 Eigenvalues of metric

         1 0.169E-03 0.556E-03 0.885E-03 0.969E-03 0.114E-02 0.126E-02 0.137E-02 0.138E-02


 Contracted 2-electron integrals neglected if value below      1.0D-11
 AO integral compression algorithm  1   Integral accuracy      1.0D-11

     538.182 MB (compressed) written to integral file ( 25.0%)


 NUMBER OF SORTED TWO-ELECTRON INTEGRALS:  245433090.     BUFFER LENGTH:  32768
 NUMBER OF SEGMENTS:  16  SEGMENT LENGTH:   15999762      RECORD LENGTH: 524288

 Memory used in sort:      16.56 MW

 SORT1 READ   268749321. AND WROTE   116712568. INTEGRALS IN    342 RECORDS. CPU TIME:     1.73 SEC, REAL TIME:     2.16 SEC
 SORT2 READ   116712568. AND WROTE   245433090. INTEGRALS IN   2053 RECORDS. CPU TIME:     1.28 SEC, REAL TIME:     1.59 SEC

 FILE SIZES:   FILE 1:   570.0 MBYTE,  FILE 4:  1434.5 MBYTE,   TOTAL:   2004.5 MBYTE

 OPERATOR DM      FOR CENTER  0  COORDINATES:    0.000000    0.000000    0.000000


 **********************************************************************************************************************************
 DATASETS  * FILE   NREC   LENGTH (MB)   RECORD NAMES
              1      19      483.90       500      610      700      900      950      970     1000      129      960     1100   
                                          VAR    BASINP    GEOM    SYMINP    ZMAT    AOBASIS   BASIS     P2S    ABASIS      S 
                                         1400     1410     1200     1210     1080     1600     1650     1300     1700   
                                           T        V       H0       H01     AOSYM     SMH    MOLCAS    ERIS     OPER   

 PROGRAMS   *        TOTAL       INT
 CPU TIMES  *         9.99      9.87
 REAL TIME  *        13.61 SEC
 DISK USED  *         1.87 GB
 **********************************************************************************************************************************


 Program * Restricted Hartree-Fock

 Orbital guess generated from atomic densities. Full valence occupancy:   33

 Initial occupancy:  22

 NELEC=   44   SYM=1   MS2= 0   THRE=1.0D-08   THRD=3.2D-06   THRG=3.2D-06  HFMA2=F  DIIS_START=2   DIIS_MAX=10   DIIS_INCORE=F

 Level shifts:    0.00 (CLOSED)    0.00 (OPEN)    0.30 (GAP_MIN)

 ITER           ETOT              DE          GRAD        DDIFF     DIIS  NEXP   TIME(IT)  TIME(TOT)  DIAG
   1     -551.31663044    -551.31663044     0.00D+00     0.60D-01     0     0       1.33      2.49    start
   2     -551.36252737      -0.04589693     0.31D-02     0.51D-02     1     0       1.29      3.78    diag
   3     -551.37672890      -0.01420153     0.18D-02     0.20D-02     2     0       1.32      5.10    diag
   4     -551.37872954      -0.00200064     0.46D-03     0.88D-03     3     0       1.29      6.39    diag
   5     -551.37890657      -0.00017704     0.11D-03     0.22D-03     4     0       1.28      7.67    diag
   6     -551.37895782      -0.00005124     0.53D-04     0.12D-03     5     0       1.26      8.93    diag
   7     -551.37897058      -0.00001276     0.24D-04     0.72D-04     6     0       1.28     10.21    diag
   8     -551.37897142      -0.00000084     0.62D-05     0.23D-04     7     0       1.29     11.50    fixocc
   9     -551.37897145      -0.00000003     0.16D-05     0.35D-05     8     0       1.28     12.78    diag
  10     -551.37897145      -0.00000000     0.55D-06     0.13D-05     9     0       1.28     14.06    diag/orth
  11     -551.37897145      -0.00000000     0.14D-06     0.24D-06     0     0       1.29     15.35    diag

 Final occupancy:  22

 !RHF STATE 1.1 Energy               -551.378971453702
  RHF One-electron energy           -1157.631175371128
  RHF Two-electron energy             404.213279197291
  RHF Kinetic energy                  551.074999754286
  RHF Nuclear energy                  202.038924720135
  RHF Virial quotient                  -1.000551597695

 !RHF STATE 1.1 Dipole moment          -0.00000000     0.00000000    -0.31097260
 Dipole moment /Debye                  -0.00000000     0.00000000    -0.79041351

 Orbital energies:

           1.1          2.1          3.1          4.1          5.1          6.1          7.1          8.1          9.1         10.1
    -91.981275   -11.261960   -11.261930   -11.238270   -11.237263    -8.981897    -6.662879    -6.662322    -6.661667    -1.166144

          11.1         12.1         13.1         14.1         15.1         16.1         17.1         18.1         19.1         20.1
     -0.982523    -0.980687    -0.766600    -0.748183    -0.695668    -0.575893    -0.550654    -0.522950    -0.519667    -0.471519

          21.1         22.1         23.1         24.1
     -0.344931    -0.327414     0.117014     0.151808


 HOMO     22.1    -0.327414 =      -8.9094eV
 LUMO     23.1     0.117014 =       3.1841eV
 LUMO-HOMO         0.444428 =      12.0935eV

 Orbitals saved in record  2100.2


 **********************************************************************************************************************************
 DATASETS  * FILE   NREC   LENGTH (MB)   RECORD NAMES
              1      19      483.90       500      610      700      900      950      970     1000      129      960     1100   
                                          VAR    BASINP    GEOM    SYMINP    ZMAT    AOBASIS   BASIS     P2S    ABASIS      S 
                                         1400     1410     1200     1210     1080     1600     1650     1300     1700   
                                           T        V       H0       H01     AOSYM     SMH    MOLCAS    ERIS     OPER   

              2       4        1.22       700     1000      520     2100   
                                         GEOM     BASIS   MCVARS     RHF  

 PROGRAMS   *        TOTAL    HF-SCF       INT
 CPU TIMES  *        25.35     15.37      9.87
 REAL TIME  *        31.69 SEC
 DISK USED  *         1.87 GB
 **********************************************************************************************************************************


 Program * Restricted Hartree-Fock

 Molecular orbitals read from record     2100.2  Type=RHF/CANONICAL  

 Initial occupancy:  22

 NELEC=   44   SYM=1   MS2= 0   THRE=1.0D-08   THRD=3.2D-06   THRG=3.2D-06  HFMA2=F  DIIS_START=2   DIIS_MAX=10   DIIS_INCORE=F

 Level shifts:    0.00 (CLOSED)    0.00 (OPEN)    0.30 (GAP_MIN)

 ITER           ETOT              DE          GRAD        DDIFF     DIIS  NEXP   TIME(IT)  TIME(TOT)  DIAG
   1     -551.37897145    -551.37897145     0.00D+00     0.60D-01     0     0       1.31      1.31    start
   2     -551.37897145      -0.00000000     0.59D-07     0.11D-06     1     0       1.25      2.56    diag

 Final occupancy:  22

 !RHF STATE 1.1 Energy               -551.378971453755
  RHF One-electron energy           -1157.631184157125
  RHF Two-electron energy             404.213287983235
  RHF Kinetic energy                  551.075007662252
  RHF Nuclear energy                  202.038924720135
  RHF Virial quotient                  -1.000551583337

 !RHF STATE 1.1 Dipole moment          -0.00000000    -0.00000000    -0.31096157
 Dipole moment /Debye                  -0.00000000    -0.00000000    -0.79038548

 Orbital energies:

           1.1          2.1          3.1          4.1          5.1          6.1          7.1          8.1          9.1         10.1
    -91.981276   -11.261959   -11.261929   -11.238273   -11.237266    -8.981898    -6.662880    -6.662322    -6.661668    -1.166144

          11.1         12.1         13.1         14.1         15.1         16.1         17.1         18.1         19.1         20.1
     -0.982523    -0.980687    -0.766601    -0.748183    -0.695669    -0.575893    -0.550655    -0.522950    -0.519667    -0.471519

          21.1         22.1         23.1         24.1
     -0.344931    -0.327415     0.117014     0.151808


 HOMO     22.1    -0.327415 =      -8.9094eV
 LUMO     23.1     0.117014 =       3.1841eV
 LUMO-HOMO         0.444429 =      12.0935eV

 Orbitals saved in record  2101.2


 **********************************************************************************************************************************
 DATASETS  * FILE   NREC   LENGTH (MB)   RECORD NAMES
              1      19      483.90       500      610      700      900      950      970     1000      129      960     1100   
                                          VAR    BASINP    GEOM    SYMINP    ZMAT    AOBASIS   BASIS     P2S    ABASIS      S 
                                         1400     1410     1200     1210     1080     1600     1650     1300     1700   
                                           T        V       H0       H01     AOSYM     SMH    MOLCAS    ERIS     OPER   

              2       5        2.50       700     1000      520     2100     2101   
                                         GEOM     BASIS   MCVARS     RHF      RHF  

 PROGRAMS   *        TOTAL    HF-SCF    HF-SCF       INT
 CPU TIMES  *        27.93      2.58     15.37      9.87
 REAL TIME  *        35.75 SEC
 DISK USED  *         1.87 GB
 **********************************************************************************************************************************


 PROGRAM * PAPT (Closed-shell)     Authors: C. Hampel, H.-J. Werner, 1991, P.J. Knowles, 2021


 Convergence thresholds:  THRVAR = 1.00D-08  THRDEN = 1.00D-06

 Number of core orbitals:           9 (   9 )
 Number of closed-shell orbitals:  13 (  13 )
 Number of external orbitals:     188 ( 188 )

 Molecular orbitals read from record     2101.2  Type=RHF/CANONICAL  

 Number of N-1 electron functions:              13
 Number of N-2 electron functions:              91
 Number of singly external CSFs:              2444
 Number of doubly external CSFs:           2987790
 Total number of CSFs:                     2990235

 Length of J-op  integral file:               0.00 MB
 Length of K-op  integral file:               3.09 MB

 Integral transformation finished. Total CPU:   3.24 sec, npass=  1  Memory used:   7.60 MW

 Reference energy:                   -551.37897145

                        CORR.ENERGY   TOTAL ENERGY   ENERGY CHANGE
 MP2:                   -0.81308515  -552.19205661    -0.81308515

 SCS-MP2 correlation energy:           -0.79769832   (PS=  1.200000  PT=  0.333333)
 SCS-MP2 total energy:               -552.17666978
 Iteration:   1     0.2587D+00
 Iteration:   2     0.4784D+00
 Iteration:   3     0.8166D-01
 Iteration:   4     0.1189D+00
 Iteration:   5     0.4092D-01
 Iteration:   6     0.2283D-01
 Iteration:   7     0.4525D-01
 Iteration:   8     0.3681D-02
 Iteration:   9     0.5859D-02
 Iteration:  10     0.1356D-02
 Iteration:  11     0.9122D-03
 Iteration:  12     0.8924D-03
 Iteration:  13     0.1869D-03
 Iteration:  14     0.3973D-03
 Iteration:  15     0.8137D-04
 PAPT operator written to  7000.1
 PAPT orbitals and eigenvalues written to  7000.2

 MP3(D):                -0.83726147  -552.21623292    -0.02417631



 RESULTS
 =======

  Reference energy                   -551.378971453754
  MP3 singlet pair energy              -0.552497679988
  MP3 triplet pair energy              -0.284763785831
  MP3 correlation energy               -0.837261465820

 !MP3 total energy                   -552.216232919574

 Timing summary (sec):

 STEP                 CPU(USER)    SYS     CPU(TOT)    WALL
 Transformation          3.43      0.23      3.66      4.24
 CCSD iterations        44.89      0.40     45.29     19.67

 Program statistics:

 Available memory in ccsd:               393215302
 Min. memory needed in ccsd:               7742481
 Max. memory used in ccsd:                10387929
 Max. memory used in cckext:               8447365 ( 1 integral passes)



 **********************************************************************************************************************************
 DATASETS  * FILE   NREC   LENGTH (MB)   RECORD NAMES
              1      21      530.75       500      610      700      900      950      970     1000      129      960     1100   
                                          VAR    BASINP    GEOM    SYMINP    ZMAT    AOBASIS   BASIS     P2S    ABASIS      S 
                                         1400     1410     1200     1210     1080     1600     1650     1300     1700     1380   
                                           T        V       H0       H01     AOSYM     SMH    MOLCAS    ERIS     OPER     JKOP   
                                         7000   
                                        PAPT AO    

              2       6        3.61       700     1000      520     2100     2101     7000   
                                         GEOM     BASIS   MCVARS     RHF      RHF     PAPT   

 PROGRAMS   *        TOTAL      PAPT    HF-SCF    HF-SCF       INT
 CPU TIMES  *        48.21     20.28      2.58     15.37      9.87
 REAL TIME  *        60.08 SEC
 DISK USED  *         1.87 GB
 **********************************************************************************************************************************


 PROGRAM * MP4 (Closed-shell)     Authors: C. Hampel, H.-J. Werner, 1991, M. Deegan, P.J. Knowles, 1992


 Convergence thresholds:  THRVAR = 1.00D-08  THRDEN = 1.00D-06

 MP4(T)     terms to be evaluated (factor= 0.000)


 Number of core orbitals:           9 (   9 )
 Number of closed-shell orbitals:  13 (  13 )
 Number of external orbitals:     188 ( 188 )

 Molecular orbitals read from record     7000.2  Type=PAPT/CANONICAL (state 1.1)

 Number of N-1 electron functions:              13
 Number of N-2 electron functions:              91
 Number of singly external CSFs:              2444
 Number of doubly external CSFs:           2987790
 Total number of CSFs:                     2990235

 Length of J-op  integral file:               0.00 MB
 Length of K-op  integral file:               3.09 MB

 Memory could be reduced to 110.75 Mwords without degradation in triples

 Integral transformation finished. Total CPU:   7.36 sec, npass=  1  Memory used:  72.74 MW
 Orbital energies read from record       7000.2  Type=PAPT/CANONICAL (state 1.1)

 Reference energy:                   -551.37897145

                        CORR.ENERGY   TOTAL ENERGY   ENERGY CHANGE
 MP2:                   -0.84552901  -552.22450046    -0.84552901

 SCS-MP2 correlation energy:           -0.83447917   (PS=  1.200000  PT=  0.333333)
 SCS-MP2 total energy:               -552.21345062

 MP3(D):                -0.84569818  -552.22466963    -0.00016917
 MP4(DQ):               -0.82985879  -552.20883025     0.01583939
 MP4(SDQ):              -0.83662638  -552.21559783    -0.00676758

 Norm of t1 vector:      0.07316147      S-energy:    -0.00676758      T1 diagnostic:  0.01014567

 Largest off-diagonal element in interal  block of Fock matrix:  0.19D+00
 Largest off-diagonal element in external block of Fock matrix:  0.26D+00


 Total CPU time for triples:    168.51 sec


 RESULTS
 =======

  Reference energy                   -551.378971453754
  MP4(SDQ) singlet pair energy         -0.549675898435
  MP4(SDQ) triplet pair energy         -0.280182895457
  MP4(SDQ) correlation energy          -0.836626377823

  Triples contribution                 -0.052710856088
  Total correlation energy             -0.889337233911

  MP4(SDQ) total energy              -552.215597831577
 !MP4(SDTQ) total energy             -552.268308687665

 Timing summary (sec):

 STEP                 CPU(USER)    SYS     CPU(TOT)    WALL
 Transformation          8.79      0.62      9.41      9.96
 CCSD iterations        61.51      0.35     61.86     14.90
 Triples               168.51      5.88    174.39    183.13

 Program statistics:

 Available memory in ccsd:               393215302
 Min. memory needed in ccsd:               7742481
 Max. memory used in ccsd:                10387929
 Max. memory used in cckext:               8447365 ( 1 integral passes)



 **********************************************************************************************************************************
 DATASETS  * FILE   NREC   LENGTH (MB)   RECORD NAMES
              1      22      862.01       500      610      700      900      950      970     1000      129      960     1100   
                                          VAR    BASINP    GEOM    SYMINP    ZMAT    AOBASIS   BASIS     P2S    ABASIS      S 
                                         1400     1410     1200     1210     1080     1600     1650     1300     1700     1380   
                                           T        V       H0       H01     AOSYM     SMH    MOLCAS    ERIS     OPER     JKOP   
                                         7000     1380(1)
                                        PAPT AO   JKOP   

              2       6        3.61       700     1000      520     2100     2101     7000   
                                         GEOM     BASIS   MCVARS     RHF      RHF     PAPT   

 PROGRAMS   *        TOTAL       MP4      PAPT    HF-SCF    HF-SCF       INT
 CPU TIMES  *       238.70    190.49     20.28      2.58     15.37      9.87
 REAL TIME  *       268.37 SEC
 DISK USED  *         1.87 GB
 **********************************************************************************************************************************

 Dump information in style XML to xml output                                                                      

 Orbitals will not be exported.

 **********************************************************************************************************************************

 MP4/cc-pVTZ energy=   -552.268308687665

             MP4            PAPT          HF-SCF          HF-SCF
   -552.26830869   -552.21623292   -551.37897145   -551.37897145
 **********************************************************************************************************************************
 Molpro calculation terminated
