
 Working directory              : /tmp/peterk/molpro.hCslnZ2HXa/
 Global scratch directory       : /tmp/peterk/molpro.hCslnZ2HXa/
 Wavefunction directory         : /home/peterk/wfu/
 Main file repository           : /tmp/peterk/molpro.hCslnZ2HXa/

 id        : peterk

 Nodes     nprocs
 marat        1
 GA implementation: MPI file
 GA implementation (serial work in mppx): MPI file

 Using customized tuning parameters: mindgm=1; mindgv=20; mindgc=4; mindgr=1; noblas=0; minvec=7
 default implementation of scratch files=df  


 Variables initialized (1032), CPU time= 0.00 sec
 
 symmetry,nosym
 
 
 geometry={
           10
     N         -0.36120484     -0.92429803      0.27257660
     N          1.02247060     -1.25862078      0.17701934
     H          1.59670310     -0.40904371      0.11357548
     H          1.13377768     -1.75855802     -0.70395977
     H         -0.50225869     -0.62945487      1.24604677
     N         -0.74206979      0.14702554     -0.61853552
     N         -0.42150018      1.48198064     -0.19308732
     H         -1.75800424      0.09952159     -0.67804120
     H         -0.51640901      1.58409122      0.82511497
     H          0.54849537      1.66735642     -0.44070935
 }
 basis=cc-pVDZ
 
 
 
 hf; ccsd(t)
 
 
 
 {put,xml;noorbitals,nobasis}
 Commands initialized (841), CPU time= 0.01 sec, 708 directives.
 Default parameters read. Elapsed time= 0.05 sec

 Checking input...
 Passed
1


                                         ***  PROGRAM SYSTEM MOLPRO  ***
                                       Copyright, TTI GmbH Stuttgart, 2015
                                    Version 2023.1 linked Sat Jun 10 08:01:27 2023


 **********************************************************************************************************************************
 LABEL *                                                                                                                                                                 
  (16 PROC) 64 bit serial version                                                        DATE: 13-Jun-23          TIME: 11:29:27  
 **********************************************************************************************************************************

 SHA1:             8376d659ba1296ca7ee514c57770fe2c96af278c
 **********************************************************************************************************************************

 Memory per process:      1074 MW
 Total memory per node:   1074 MW

 GA preallocation disabled
 GA check disabled

 Variable memory set to 1073.7 MW

 ZSYMEL=NOSYM


 Geometry recognized as XYZ

 SETTING BASIS          =    CC-PVDZ


 Recomputing integrals since basis changed


 Using spherical harmonics

 Library entry N      S cc-pVDZ              selected for orbital group  1
 Library entry N      P cc-pVDZ              selected for orbital group  1
 Library entry N      D cc-pVDZ              selected for orbital group  1
 Library entry H      S cc-pVDZ              selected for orbital group  2
 Library entry H      P cc-pVDZ              selected for orbital group  2


 PROGRAM * SEWARD (Integral evaluation for generally contracted gaussian basis sets)     Author: Roland Lindh, 1990

 Geometry written to block  1 of record 700


 Point group  C1  



 ATOMIC COORDINATES

 NR  ATOM    CHARGE       X              Y              Z

   1  N       7.00   -0.682578222   -1.746670134    0.515095122
   2  N       7.00    1.932189404   -2.378448569    0.334518071
   3  H       1.00    3.017331561   -0.772980585    0.214626552
   4  H       1.00    2.142529301   -3.323193032   -1.330291168
   5  H       1.00   -0.949131368   -1.189497312    2.354687134
   6  N       7.00   -1.402308668    0.277838004   -1.168862731
   7  N       7.00   -0.796519902    2.800537532   -0.364882153
   8  H       1.00   -3.322146540    0.188068549   -1.281312169
   9  H       1.00   -0.975871597    2.993498562    1.559241315
  10  H       1.00    1.036506030    3.150846986   -0.832819972

 Bond lengths in Bohr (Angstrom)

 1-2  2.696064132  1-5  1.940513051  1-6  2.729900945  2-3  1.941503264  2-4  1.925714095
     ( 1.426695698)     ( 1.026875284)     ( 1.444601368)     ( 1.027399282)     ( 1.019044014)

  6- 7  2.716132859   6- 8  1.925222294   7- 9  1.942074177   7-10  1.923971565
       ( 1.437315611)       ( 1.018783764)       ( 1.027701396)       ( 1.018121907)

 Bond angles

  1-2-3  110.63576547   1-2-4  106.18857567   1-6-7  116.57683676   1-6-8  105.32891587

  2-1-5  105.30743929   2-1-6  112.84032248   3-2-4  106.93267926   5-1-6  109.61061023

  6- 7- 9  111.40456527   6- 7-10  108.03562281   7- 6- 8  106.43970835   9- 7-10  108.11112034

 NUCLEAR CHARGE:                   34
 NUMBER OF PRIMITIVE AOS:         150
 NUMBER OF SYMMETRY AOS:          146
 NUMBER OF CONTRACTIONS:           86   (   86A   )
 NUMBER OF INNER CORE ORBITALS:     0   (    0A   )
 NUMBER OF OUTER CORE ORBITALS:     4   (    4A   )
 NUMBER OF VALENCE ORBITALS:       22   (   22A   )


 NUCLEAR REPULSION ENERGY  136.40566214

 Eigenvalues of metric

         1 0.503E-02 0.629E-02 0.122E-01 0.209E-01 0.282E-01 0.339E-01 0.357E-01 0.388E-01


 Contracted 2-electron integrals neglected if value below      1.0D-11
 AO integral compression algorithm  1   Integral accuracy      1.0D-11

     33.817 MB (compressed) written to integral file ( 53.2%)


 NUMBER OF SORTED TWO-ELECTRON INTEGRALS:    6999411.     BUFFER LENGTH:  32768
 NUMBER OF SEGMENTS:   1  SEGMENT LENGTH:    6999411      RECORD LENGTH: 524288

 Memory used in sort:       7.56 MW

 SORT1 READ     7921228. AND WROTE     6957751. INTEGRALS IN     20 RECORDS. CPU TIME:     0.07 SEC, REAL TIME:     0.11 SEC
 SORT2 READ     6957751. AND WROTE     6999411. INTEGRALS IN    129 RECORDS. CPU TIME:     0.10 SEC, REAL TIME:     0.13 SEC

 FILE SIZES:   FILE 1:    64.2 MBYTE,  FILE 4:    84.0 MBYTE,   TOTAL:    148.2 MBYTE

 OPERATOR DM      FOR CENTER  0  COORDINATES:    0.000000    0.000000    0.000000


 **********************************************************************************************************************************
 DATASETS  * FILE   NREC   LENGTH (MB)   RECORD NAMES
              1      19       57.20       500      610      700      900      950      970     1000      129      960     1100   
                                          VAR    BASINP    GEOM    SYMINP    ZMAT    AOBASIS   BASIS     P2S    ABASIS      S 
                                         1400     1410     1200     1210     1080     1600     1650     1300     1700   
                                           T        V       H0       H01     AOSYM     SMH    MOLCAS    ERIS     OPER   

 PROGRAMS   *        TOTAL       INT
 CPU TIMES  *         1.15      1.05
 REAL TIME  *         1.95 SEC
 DISK USED  *       141.81 MB
 **********************************************************************************************************************************


 Program * Restricted Hartree-Fock

 Orbital guess generated from atomic densities. Full valence occupancy:   26

 Initial occupancy:  17

 NELEC=   34   SYM=1   MS2= 0   THRE=1.0D-08   THRD=3.2D-06   THRG=3.2D-06  HFMA2=F  DIIS_START=2   DIIS_MAX=10   DIIS_INCORE=F

 Level shifts:    0.00 (CLOSED)    0.00 (OPEN)    0.30 (GAP_MIN)

 ITER           ETOT              DE          GRAD        DDIFF     DIIS  NEXP   TIME(IT)  TIME(TOT)  DIAG
   1     -221.13737953    -221.13737953     0.00D+00     0.12D+00     0     0       0.03      0.07    start
   2     -221.18498501      -0.04760548     0.63D-02     0.12D-01     1     0       0.02      0.09    diag
   3     -221.18936149      -0.00437648     0.20D-02     0.36D-02     2     0       0.04      0.13    diag
   4     -221.19015270      -0.00079121     0.78D-03     0.13D-02     3     0       0.02      0.15    diag
   5     -221.19021338      -0.00006068     0.19D-03     0.37D-03     4     0       0.04      0.19    diag
   6     -221.19021820      -0.00000483     0.38D-04     0.10D-03     5     0       0.04      0.23    diag
   7     -221.19021869      -0.00000048     0.12D-04     0.34D-04     6     0       0.03      0.26    diag
   8     -221.19021874      -0.00000005     0.46D-05     0.11D-04     7     0       0.03      0.29    fixocc
   9     -221.19021874      -0.00000000     0.12D-05     0.33D-05     8     0       0.03      0.32    diag
  10     -221.19021874      -0.00000000     0.28D-06     0.70D-06     9     0       0.03      0.35    diag/orth
  11     -221.19021874      -0.00000000     0.10D-06     0.21D-06     0     0       0.03      0.38    diag

 Final occupancy:  17

 !RHF STATE 1.1 Energy               -221.190218743356
  RHF One-electron energy            -571.456776116138
  RHF Two-electron energy             213.860895234728
  RHF Kinetic energy                  220.785505048669
  RHF Nuclear energy                  136.405662138054
  RHF Virial quotient                  -1.001833062794

 !RHF STATE 1.1 Dipole moment           0.24881279     0.50842498     0.37805980
 Dipole moment /Debye                   0.63241904     1.29228739     0.96093216

 Orbital energies:

           1.1          2.1          3.1          4.1          5.1          6.1          7.1          8.1          9.1         10.1
    -15.606026   -15.605397   -15.583193   -15.575137    -1.332638    -1.213052    -1.060896    -0.928052    -0.702132    -0.684278

          11.1         12.1         13.1         14.1         15.1         16.1         17.1         18.1         19.1
     -0.669717    -0.626708    -0.599721    -0.455800    -0.425831    -0.412554    -0.386375     0.169784     0.199780


 HOMO     17.1    -0.386375 =     -10.5138eV
 LUMO     18.1     0.169784 =       4.6201eV
 LUMO-HOMO         0.556160 =      15.1339eV

 Orbitals saved in record  2100.2


 **********************************************************************************************************************************
 DATASETS  * FILE   NREC   LENGTH (MB)   RECORD NAMES
              1      19       57.20       500      610      700      900      950      970     1000      129      960     1100   
                                          VAR    BASINP    GEOM    SYMINP    ZMAT    AOBASIS   BASIS     P2S    ABASIS      S 
                                         1400     1410     1200     1210     1080     1600     1650     1300     1700   
                                           T        V       H0       H01     AOSYM     SMH    MOLCAS    ERIS     OPER   

              2       4        0.65       700     1000      520     2100   
                                         GEOM     BASIS   MCVARS     RHF  

 PROGRAMS   *        TOTAL    HF-SCF       INT
 CPU TIMES  *         1.53      0.38      1.05
 REAL TIME  *         2.42 SEC
 DISK USED  *       141.81 MB
 **********************************************************************************************************************************


 PROGRAM * CCSD (Closed-shell coupled cluster)     Authors: C. Hampel, H.-J. Werner, 1991, M. Deegan, P.J. Knowles, 1992


 Convergence thresholds:  THRVAR = 1.00D-08  THRDEN = 1.00D-06

 CCSD(T)     terms to be evaluated (factor= 1.000)


 Number of core orbitals:           4 (   4 )
 Number of closed-shell orbitals:  13 (  13 )
 Number of external orbitals:      69 (  69 )

 Molecular orbitals read from record     2100.2  Type=RHF/CANONICAL  

 Number of N-1 electron functions:              13
 Number of N-2 electron functions:              91
 Number of singly external CSFs:               897
 Number of doubly external CSFs:            402753
 Total number of CSFs:                      403651

 Length of J-op  integral file:               0.00 MB
 Length of K-op  integral file:               0.57 MB
 Length of 3-ext integral record:             0.00 MB

 Memory could be reduced to 6.23 Mwords without degradation in triples

 Integral transformation finished. Total CPU:   0.29 sec, npass=  1  Memory used:   5.80 MW

 Reference energy:                   -221.19021874

 MP2 singlet pair energy:              -0.42961671
 MP2 triplet pair energy:              -0.25987682
 MP2 correlation energy:               -0.68949353
 MP2 total energy:                   -221.87971227

 SCS-MP2 correlation energy:           -0.67724118   (PS=  1.200000  PT=  0.333333)
 SCS-MP2 total energy:               -221.86745992

 ITER.      SQ.NORM     CORR.ENERGY   TOTAL ENERGY   ENERGY CHANGE        DEN1      VAR(S)    VAR(P)  DIIS     TIME  TIME/IT
   1      1.22274748    -0.72445930  -221.91467804    -0.03496577    -0.01755215  0.23D-02  0.36D-02  1  1     3.11     0.88
   2      1.23948709    -0.72833238  -221.91855112    -0.00387308    -0.01786432  0.54D-04  0.44D-03  2  2     4.00     0.91
   3      1.24426466    -0.72853834  -221.91875708    -0.00020596    -0.00283560  0.45D-04  0.22D-04  3  3     4.85     0.91
   4      1.24581046    -0.72857927  -221.91879801    -0.00004093    -0.00066923  0.41D-05  0.30D-05  4  4     5.72     0.91
   5      1.24629610    -0.72858603  -221.91880477    -0.00000676    -0.00012986  0.11D-05  0.31D-06  5  5     6.64     0.92
   6      1.24647502    -0.72857747  -221.91879621     0.00000856    -0.00002631  0.17D-06  0.39D-07  6  6     7.57     0.93
   7      1.24652970    -0.72857571  -221.91879446     0.00000176    -0.00000304  0.15D-07  0.91D-08  6  2     8.44     0.92
   8      1.24654797    -0.72857494  -221.91879369     0.00000077    -0.00000200  0.21D-08  0.10D-08  6  1     9.31     0.92
   9      1.24655217    -0.72857487  -221.91879361     0.00000008     0.00000037  0.42D-09  0.12D-09  6  3    10.18     0.92

 Norm of t1 vector:      0.07170339      S-energy:     0.00000033      T1 diagnostic:  0.00994347
                                                                       D1 diagnostic:  0.02799486
                                                                       D2 diagnostic:  0.14781586 (internal)


 Total CPU time for triples:      7.26 sec


 RESULTS
 =======

  Reference energy                   -221.190218743356
  CCSD singlet pair energy             -0.496258559297
  CCSD triplet pair energy             -0.232316637808
  CCSD correlation energy              -0.728574866695

  Triples (T) contribution             -0.020825862840
  Total correlation energy             -0.749400729535

  CCSD total energy                  -221.918793610051
  CCSD[T] energy                     -221.940226531802
  CCSD-T energy                      -221.939322672295
 !CCSD(T) total energy               -221.939619472891

 Timing summary (sec):

 STEP                 CPU(USER)    SYS     CPU(TOT)    WALL
 Transformation          0.30      0.05      0.35      0.36
 CCSD iterations         9.92      0.35     10.27      8.35
 Triples                 7.26      0.27      7.53      7.52

 Program statistics:

 Available memory in ccsd:              1073741131
 Min. memory needed in ccsd:               1141972
 Max. memory used in ccsd:                 1479972
 Max. memory used in cckext:               1454933 ( 9 integral passes)



 **********************************************************************************************************************************
 DATASETS  * FILE   NREC   LENGTH (MB)   RECORD NAMES
              1      20       81.58       500      610      700      900      950      970     1000      129      960     1100   
                                          VAR    BASINP    GEOM    SYMINP    ZMAT    AOBASIS   BASIS     P2S    ABASIS      S 
                                         1400     1410     1200     1210     1080     1600     1650     1300     1700     1380   
                                           T        V       H0       H01     AOSYM     SMH    MOLCAS    ERIS     OPER     JKOP   

              2       4        0.65       700     1000      520     2100   
                                         GEOM     BASIS   MCVARS     RHF  

 PROGRAMS   *        TOTAL   CCSD(T)    HF-SCF       INT
 CPU TIMES  *        17.12     15.59      0.38      1.05
 REAL TIME  *        18.69 SEC
 DISK USED  *       149.79 MB
 **********************************************************************************************************************************

 Dump information in style XML to xml output                                                                      

 Orbitals will not be exported.

 **********************************************************************************************************************************

 CCSD(T)/cc-pVDZ energy=   -221.939619472891

         CCSD(T)          HF-SCF
   -221.93961947   -221.19021874
 **********************************************************************************************************************************
 Molpro calculation terminated
