
 Working directory              : /var/folders/2v/xbgp75_9785319ghcgb4zr4r0000gp/T//molpro.6zU6dYZk2s/
 Global scratch directory       : /var/folders/2v/xbgp75_9785319ghcgb4zr4r0000gp/T//molpro.6zU6dYZk2s/
 Wavefunction directory         : /Users/sacpjk/wfu/
 Main file repository           : /var/folders/2v/xbgp75_9785319ghcgb4zr4r0000gp/T//molpro.6zU6dYZk2s/

 id        : peterk

 Nodes                        nprocs
 Cardiff-University-G34YLXT77Y    1
 GA implementation: MPI file
 GA implementation (serial work in mppx): MPI file

 Using customized tuning parameters: mindgm=1; mindgv=20; mindgc=4; mindgr=1; noblas=0; minvec=7
 default implementation of scratch files=df  


 Variables initialized (1032), CPU time= 0.00 sec
 
 symmetry,nosym
 
 
 geometry={
           16
     C          0.48462430     -0.55755495      1.43729151
     C          0.48462430     -0.55755495     -1.43729151
     C         -0.27595797     -1.44977527      0.70359025
     C         -0.27595797     -1.44977527     -0.70359025
     C         -0.27595797      1.45086377      0.69299925
     C         -0.27595797      1.45086377     -0.69299925
     H          0.37292526     -0.50748993      2.51767690
     H          1.44526264     -0.21636383      1.06867438
     H          0.37292526     -0.50748993     -2.51767690
     H          1.44526264     -0.21636383     -1.06867438
     H         -1.05536225     -2.01444047      1.21328943
     H         -1.05536225     -2.01444047     -1.21328943
     H          0.51071931      1.96707995      1.23581344
     H         -1.20625330      1.32768072      1.23591744
     H          0.51071931      1.96707995     -1.23581344
     H         -1.20625330      1.32768072     -1.23591744
 }
 basis=cc-pVDZ
 
 
 
 hf; ccsd(t)
 
 
 
 {put,xml;noorbitals,nobasis}
 Commands initialized (841), CPU time= 0.01 sec, 704 directives.
 Default parameters read. Elapsed time= 1.47 sec

 Checking input...
 Passed
1


                                         ***  PROGRAM SYSTEM MOLPRO  ***
                                       Copyright, TTI GmbH Stuttgart, 2015
                                    Version 2023.1 linked Tue Jun  6 09:54:11 2023


 **********************************************************************************************************************************
 LABEL *                                                                                                                                                                 
  64 bit serial version                                                                  DATE: 11-Jun-23          TIME: 23:29:26  
 **********************************************************************************************************************************

 SHA1:             8ebb0dd001088a5c915591db1a321413035db0b1
 **********************************************************************************************************************************

 Memory per process:       393 MW
 Total memory per node:    524 MW
 Total GA space:           131 MW

 GA preallocation disabled
 GA check enabled

 Variable memory set to 393.2 MW

 ZSYMEL=NOSYM


 Geometry recognized as XYZ

 SETTING BASIS          =    CC-PVDZ


 Recomputing integrals since basis changed


 Using spherical harmonics

 Library entry C      S cc-pVDZ              selected for orbital group  1
 Library entry C      P cc-pVDZ              selected for orbital group  1
 Library entry C      D cc-pVDZ              selected for orbital group  1
 Library entry H      S cc-pVDZ              selected for orbital group  2
 Library entry H      P cc-pVDZ              selected for orbital group  2


 PROGRAM * SEWARD (Integral evaluation for generally contracted gaussian basis sets)     Author: Roland Lindh, 1990

 Geometry written to block  1 of record 700


 Point group  C1  



 ATOMIC COORDINATES

 NR  ATOM    CHARGE       X              Y              Z

   1  C       6.00    0.915807200   -1.053626155    2.716087315
   2  C       6.00    0.915807200   -1.053626155   -2.716087315
   3  C       6.00   -0.521484985   -2.739678203    1.329592876
   4  C       6.00   -0.521484985   -2.739678203   -1.329592876
   5  C       6.00   -0.521484985    2.741735169    1.309578787
   6  C       6.00   -0.521484985    2.741735169   -1.309578787
   7  H       1.00    0.704726606   -0.959016979    4.757719811
   8  H       1.00    2.731150568   -0.408868382    2.019501895
   9  H       1.00    0.704726606   -0.959016979   -4.757719811
  10  H       1.00    2.731150568   -0.408868382   -2.019501895
  11  H       1.00   -1.994345615   -3.806740783    2.292784733
  12  H       1.00   -1.994345615   -3.806740783   -2.292784733
  13  H       1.00    0.965119622    3.717242371    2.335348943
  14  H       1.00   -2.279488374    2.508952942    2.335545474
  15  H       1.00    0.965119622    3.717242371   -2.335348943
  16  H       1.00   -2.279488374    2.508952942   -2.335545474

 Bond lengths in Bohr (Angstrom)

 1-3  2.613608074  1-7  2.054694421  1-8  2.048515408  2-4  2.613608074  2-9  2.054694421
     ( 1.383061831)     ( 1.087297463)     ( 1.084027670)     ( 1.383061831)     ( 1.087297463)

  2-10  2.048515408   3- 4  2.659185753   3-11  2.058076659   4-12  2.058076659   5- 6  2.619157574
       ( 1.084027670)       ( 1.407180500)       ( 1.089087266)       ( 1.089087266)       ( 1.385998500)

  5-13  2.052757163   5-14  2.048748673   6-15  2.052757163   6-16  2.048748673
       ( 1.086272310)       ( 1.084151108)       ( 1.086272310)       ( 1.084151108)

 Bond angles

  1- 3- 4  122.03860671   1- 3-11  118.66926903   2- 4- 3  122.03860671   2- 4-12  118.66926903

  3- 1- 7  120.02169320   3- 1- 8  120.66275757   3- 4-12  117.90492772   4- 2- 9  120.02169320

  4- 2-10  120.66275757   4- 3-11  117.90492772   5- 6-15  119.98039263   5- 6-16  120.05143452

  6- 5-13  119.98039263   6- 5-14  120.05143452   7- 1- 8  114.48326129   9- 2-10  114.48326129

 13- 5-14  115.16206745  15- 6-16  115.16206745

 NUCLEAR CHARGE:                   46
 NUMBER OF PRIMITIVE AOS:         232
 NUMBER OF SYMMETRY AOS:          226
 NUMBER OF CONTRACTIONS:          134   (  134A   )
 NUMBER OF INNER CORE ORBITALS:     0   (    0A   )
 NUMBER OF OUTER CORE ORBITALS:     6   (    6A   )
 NUMBER OF VALENCE ORBITALS:       34   (   34A   )


 NUCLEAR REPULSION ENERGY  223.96110073


 Eigenvalues of metric

         1 0.128E-02 0.292E-02 0.330E-02 0.406E-02 0.116E-01 0.117E-01 0.135E-01 0.167E-01


 Contracted 2-electron integrals neglected if value below      1.0D-11
 AO integral compression algorithm  1   Integral accuracy      1.0D-11

     170.918 MB (compressed) written to integral file ( 49.2%)


 NUMBER OF SORTED TWO-ELECTRON INTEGRALS:   40910535.     BUFFER LENGTH:  32768
 NUMBER OF SEGMENTS:   3  SEGMENT LENGTH:   15998004      RECORD LENGTH: 524288

 Memory used in sort:      16.56 MW

 SORT1 READ    43486902. AND WROTE    38903298. INTEGRALS IN    113 RECORDS. CPU TIME:     0.32 SEC, REAL TIME:     0.44 SEC
 SORT2 READ    38903298. AND WROTE    40910535. INTEGRALS IN    652 RECORDS. CPU TIME:     0.32 SEC, REAL TIME:     0.42 SEC

 FILE SIZES:   FILE 1:   201.8 MBYTE,  FILE 4:   474.0 MBYTE,   TOTAL:    675.9 MBYTE

 OPERATOR DM      FOR CENTER  0  COORDINATES:    0.000000    0.000000    0.000000


 **********************************************************************************************************************************
 DATASETS  * FILE   NREC   LENGTH (MB)   RECORD NAMES
              1      19      178.30       500      610      700      900      950      970     1000      129      960     1100   
                                          VAR    BASINP    GEOM    SYMINP    ZMAT    AOBASIS   BASIS     P2S    ABASIS      S 
                                         1400     1410     1200     1210     1080     1600     1650     1300     1700   
                                           T        V       H0       H01     AOSYM     SMH    MOLCAS    ERIS     OPER   

 PROGRAMS   *        TOTAL       INT
 CPU TIMES  *         2.59      2.49
 REAL TIME  *         6.70 SEC
 DISK USED  *       645.16 MB
 **********************************************************************************************************************************


 Program * Restricted Hartree-Fock

 Orbital guess generated from atomic densities. Full valence occupancy:   40

 Initial occupancy:  23

 NELEC=   46   SYM=1   MS2= 0   THRE=1.0D-08   THRD=3.2D-06   THRG=3.2D-06  HFMA2=F  DIIS_START=2   DIIS_MAX=10   DIIS_INCORE=F

 Level shifts:    0.00 (CLOSED)    0.00 (OPEN)    0.30 (GAP_MIN)

 ITER           ETOT              DE          GRAD        DDIFF     DIIS  NEXP   TIME(IT)  TIME(TOT)  DIAG
   1     -232.83535923    -232.83535923     0.00D+00     0.90D-01     0     0       0.18      0.35    start
   2     -232.89275003      -0.05739080     0.38D-02     0.85D-02     1     0       0.19      0.54    diag
   3     -232.89913511      -0.00638508     0.14D-02     0.29D-02     2     0       0.18      0.72    diag
   4     -232.90034940      -0.00121428     0.52D-03     0.11D-02     3     0       0.18      0.90    diag
   5     -232.90044901      -0.00009961     0.12D-03     0.23D-03     4     0       0.23      1.13    diag
   6     -232.90049796      -0.00004895     0.59D-04     0.16D-03     5     0       0.20      1.33    diag
   7     -232.90051505      -0.00001709     0.29D-04     0.11D-03     6     0       0.23      1.56    diag
   8     -232.90051736      -0.00000231     0.10D-04     0.50D-04     7     0       0.19      1.75    fixocc
   9     -232.90051743      -0.00000007     0.23D-05     0.83D-05     8     0       0.19      1.94    diag
  10     -232.90051743      -0.00000001     0.90D-06     0.24D-05     9     0       0.19      2.13    diag/orth
  11     -232.90051743      -0.00000000     0.24D-06     0.56D-06     0     0       0.26      2.39    diag

 Final occupancy:  23

 !RHF STATE 1.1 Energy               -232.900517432521
  RHF One-electron energy            -756.885981856147
  RHF Two-electron energy             300.024363697824
  RHF Kinetic energy                  232.501384923515
  RHF Nuclear energy                  223.961100725802
  RHF Virial quotient                  -1.001716688738

 !RHF STATE 1.1 Dipole moment           0.01938525     0.17247545    -0.00000000
 Dipole moment /Debye                   0.04927239     0.43838886    -0.00000000

 Orbital energies:

           1.1          2.1          3.1          4.1          5.1          6.1          7.1          8.1          9.1         10.1
    -11.241544   -11.241523   -11.233462   -11.232219   -11.225893   -11.224815    -1.090517    -1.011334    -0.974955    -0.847391

          11.1         12.1         13.1         14.1         15.1         16.1         17.1         18.1         19.1         20.1
     -0.791830    -0.712680    -0.664638    -0.631790    -0.591085    -0.565260    -0.562939    -0.514450    -0.501306    -0.484765

          21.1         22.1         23.1         24.1         25.1
     -0.469603    -0.303606    -0.301031     0.119825     0.152786


 HOMO     23.1    -0.301031 =      -8.1915eV
 LUMO     24.1     0.119825 =       3.2606eV
 LUMO-HOMO         0.420856 =      11.4521eV

 Orbitals saved in record  2100.2


 **********************************************************************************************************************************
 DATASETS  * FILE   NREC   LENGTH (MB)   RECORD NAMES
              1      19      178.30       500      610      700      900      950      970     1000      129      960     1100   
                                          VAR    BASINP    GEOM    SYMINP    ZMAT    AOBASIS   BASIS     P2S    ABASIS      S 
                                         1400     1410     1200     1210     1080     1600     1650     1300     1700   
                                           T        V       H0       H01     AOSYM     SMH    MOLCAS    ERIS     OPER   

              2       4        0.92       700     1000      520     2100   
                                         GEOM     BASIS   MCVARS     RHF  

 PROGRAMS   *        TOTAL    HF-SCF       INT
 CPU TIMES  *         4.99      2.40      2.49
 REAL TIME  *        10.27 SEC
 DISK USED  *       645.16 MB
 **********************************************************************************************************************************


 PROGRAM * CCSD (Closed-shell coupled cluster)     Authors: C. Hampel, H.-J. Werner, 1991, M. Deegan, P.J. Knowles, 1992


 Convergence thresholds:  THRVAR = 1.00D-08  THRDEN = 1.00D-06

 CCSD(T)     terms to be evaluated (factor= 1.000)


 Number of core orbitals:           6 (   6 )
 Number of closed-shell orbitals:  17 (  17 )
 Number of external orbitals:     111 ( 111 )

 Molecular orbitals read from record     2100.2  Type=RHF/CANONICAL  

 Number of N-1 electron functions:              17
 Number of N-2 electron functions:             153
 Number of singly external CSFs:              1887
 Number of doubly external CSFs:           1781328
 Total number of CSFs:                     1783216

 Length of J-op  integral file:               0.00 MB
 Length of K-op  integral file:               1.30 MB
 Length of 3-ext integral record:             0.00 MB

 Memory could be reduced to 31.25 Mwords without degradation in triples

 Integral transformation finished. Total CPU:   1.37 sec, npass=  1  Memory used:  26.70 MW

 Reference energy:                   -232.90051743

 MP2 singlet pair energy:              -0.54062144
 MP2 triplet pair energy:              -0.31782126
 MP2 correlation energy:               -0.85844270
 MP2 total energy:                   -233.75896013

 SCS-MP2 correlation energy:           -0.84650117   (PS=  1.200000  PT=  0.333333)
 SCS-MP2 total energy:               -233.74701861

 ITER.      SQ.NORM     CORR.ENERGY   TOTAL ENERGY   ENERGY CHANGE        DEN1      VAR(S)    VAR(P)  DIIS     TIME  TIME/IT
   1      1.35030941    -0.90771305  -233.80823049    -0.04927036    -0.02284741  0.35D-02  0.78D-02  1  1    10.31     4.29
   2      1.38187234    -0.91418019  -233.81469762    -0.00646714    -0.02658703  0.83D-04  0.11D-02  2  2    14.59     4.61
   3      1.39274850    -0.91448785  -233.81500529    -0.00030766    -0.00498204  0.22D-04  0.13D-03  3  3    19.39     4.94
   4      1.39820084    -0.91473815  -233.81525559    -0.00025030    -0.00145997  0.20D-05  0.19D-04  4  4    24.31     5.17
   5      1.40015546    -0.91478379  -233.81530122    -0.00004564    -0.00039575  0.44D-06  0.22D-05  5  5    29.10     5.26
   6      1.40064394    -0.91477422  -233.81529166     0.00000957    -0.00006088  0.59D-07  0.16D-06  6  6    33.99     5.29
   7      1.40071244    -0.91477597  -233.81529341    -0.00000175    -0.00000075  0.31D-07  0.20D-07  6  2    38.86     5.32
   8      1.40072797    -0.91477583  -233.81529326     0.00000015    -0.00000101  0.13D-07  0.34D-08  6  1    43.65     5.33
   9      1.40073473    -0.91477583  -233.81529327    -0.00000001    -0.00000001  0.41D-08  0.12D-08  6  3    48.54     5.42

 Norm of t1 vector:      0.08249341      S-energy:    -0.00000016      T1 diagnostic:  0.01000380
                                                                       D1 diagnostic:  0.03138632
                                                                       D2 diagnostic:  0.20539915 (internal)

 Doubles amplitudes (print threshold =  0.500E-01):

         I         J         SYM. A    SYM. B    A         B      T(IJ, AB)

        16        16         1         1         2         2     -0.08777484
        17        16         1         1         2         1      0.05155326
        17        17         1         1         1         1     -0.10270163


 Total CPU time for triples:     61.52 sec


 RESULTS
 =======

  Reference energy                   -232.900517432521
  CCSD singlet pair energy             -0.629943761294
  CCSD triplet pair energy             -0.284831914297
  CCSD correlation energy              -0.914775832727

  Triples (T) contribution             -0.039095079288
  Total correlation energy             -0.953870912015

  CCSD total energy                  -233.815293265248
  CCSD[T] energy                     -233.855206351942
  CCSD-T energy                      -233.854066885935
 !CCSD(T) total energy               -233.854388344536

 Timing summary (sec):

 STEP                 CPU(USER)    SYS     CPU(TOT)    WALL
 Transformation          1.47      0.18      1.65      2.97
 CCSD iterations        47.15      1.77     48.92     50.03
 Triples                61.52      3.54     65.06     71.66

 Program statistics:

 Available memory in ccsd:               393214821
 Min. memory needed in ccsd:               4608836
 Max. memory used in ccsd:                 6190584
 Max. memory used in cckext:               5743436 ( 9 integral passes)



 **********************************************************************************************************************************
 DATASETS  * FILE   NREC   LENGTH (MB)   RECORD NAMES
              1      20      299.59       500      610      700      900      950      970     1000      129      960     1100   
                                          VAR    BASINP    GEOM    SYMINP    ZMAT    AOBASIS   BASIS     P2S    ABASIS      S 
                                         1400     1410     1200     1210     1080     1600     1650     1300     1700     1380   
                                           T        V       H0       H01     AOSYM     SMH    MOLCAS    ERIS     OPER     JKOP   

              2       4        0.92       700     1000      520     2100   
                                         GEOM     BASIS   MCVARS     RHF  

 PROGRAMS   *        TOTAL   CCSD(T)    HF-SCF       INT
 CPU TIMES  *       110.06    105.07      2.40      2.49
 REAL TIME  *       135.37 SEC
 DISK USED  *       645.16 MB
 **********************************************************************************************************************************

 Dump information in style XML to xml output                                                                      

 Orbitals will not be exported.

 **********************************************************************************************************************************

 CCSD(T)/cc-pVDZ energy=   -233.854388344536

         CCSD(T)          HF-SCF
   -233.85438834   -232.90051743
 **********************************************************************************************************************************
 Molpro calculation terminated
