
 Working directory              : /var/folders/2v/xbgp75_9785319ghcgb4zr4r0000gp/T//molpro.yRF8GbnmfA/
 Global scratch directory       : /var/folders/2v/xbgp75_9785319ghcgb4zr4r0000gp/T//molpro.yRF8GbnmfA/
 Wavefunction directory         : /Users/sacpjk/wfu/
 Main file repository           : /var/folders/2v/xbgp75_9785319ghcgb4zr4r0000gp/T//molpro.yRF8GbnmfA/

 id        : peterk

 Nodes                        nprocs
 Cardiff-University-G34YLXT77Y    1
 GA implementation: MPI file
 GA implementation (serial work in mppx): MPI file

 Using customized tuning parameters: mindgm=1; mindgv=20; mindgc=4; mindgr=1; noblas=0; minvec=7
 default implementation of scratch files=df  


 Variables initialized (1032), CPU time= 0.00 sec
 
 symmetry,nosym
 
 
 geometry={
            5
     C         -1.13177830      0.15744932     -0.20511892
     H         -1.92265645      0.16979282      0.52564966
     N          0.05350137      0.12204224     -0.08218368
     N          1.28661152      0.24030428     -0.11445996
     H          1.71432186     -0.68958865     -0.12388711
 }
 basis=cc-pVTZ
 
 
 
 hf; hf; papt; mp3
 
 
 
 {put,xml;noorbitals,nobasis}
 Commands initialized (841), CPU time= 0.01 sec, 704 directives.
 Default parameters read. Elapsed time= 0.98 sec

 Checking input...
 Passed
1


                                         ***  PROGRAM SYSTEM MOLPRO  ***
                                       Copyright, TTI GmbH Stuttgart, 2015
                                    Version 2023.1 linked Tue Jun  6 09:54:11 2023


 **********************************************************************************************************************************
 LABEL *                                                                                                                                                                 
  64 bit serial version                                                                  DATE: 11-Jun-23          TIME: 13:22:25  
 **********************************************************************************************************************************

 SHA1:             8ebb0dd001088a5c915591db1a321413035db0b1
 **********************************************************************************************************************************

 Memory per process:       393 MW
 Total memory per node:    524 MW
 Total GA space:           131 MW

 GA preallocation disabled
 GA check enabled

 Variable memory set to 393.2 MW

 ZSYMEL=NOSYM


 Geometry recognized as XYZ

 SETTING BASIS          =    CC-PVTZ


 Recomputing integrals since basis changed


 Using spherical harmonics

 Library entry C      S cc-pVTZ              selected for orbital group  1
 Library entry C      P cc-pVTZ              selected for orbital group  1
 Library entry C      D cc-pVTZ              selected for orbital group  1
 Library entry C      F cc-pVTZ              selected for orbital group  1
 Library entry H      S cc-pVTZ              selected for orbital group  2
 Library entry H      P cc-pVTZ              selected for orbital group  2
 Library entry H      D cc-pVTZ              selected for orbital group  2
 Library entry N      S cc-pVTZ              selected for orbital group  3
 Library entry N      P cc-pVTZ              selected for orbital group  3
 Library entry N      D cc-pVTZ              selected for orbital group  3
 Library entry N      F cc-pVTZ              selected for orbital group  3


 PROGRAM * SEWARD (Integral evaluation for generally contracted gaussian basis sets)     Author: Roland Lindh, 1990

 Geometry written to block  1 of record 700


 Point group  C1  



 ATOMIC COORDINATES

 NR  ATOM    CHARGE       X              Y              Z

   1  C       6.00   -2.138751021    0.297536093   -0.387618582
   2  H       1.00   -3.633294122    0.320861928    0.993333895
   3  N       7.00    0.101102937    0.230626409   -0.155304647
   4  N       7.00    2.431343402    0.454109276   -0.216297977
   5  H       1.00    3.239598805   -1.303133687   -0.234112708

 Bond lengths in Bohr (Angstrom)

 1-2  2.035001946  1-3  2.252863161  3-4  2.341727013  4-5  1.934294960
     ( 1.076876654)     ( 1.192163844)     ( 1.239188569)     ( 1.023584812)

 Bond angles

  1-3-4  169.68185321   2-1-3  131.34115954   3-4-5  109.22908161

 NUCLEAR CHARGE:                   22
 NUMBER OF PRIMITIVE AOS:         175
 NUMBER OF SYMMETRY AOS:          158
 NUMBER OF CONTRACTIONS:          118   (  118A   )
 NUMBER OF INNER CORE ORBITALS:     0   (    0A   )
 NUMBER OF OUTER CORE ORBITALS:     3   (    3A   )
 NUMBER OF VALENCE ORBITALS:       14   (   14A   )


 NUCLEAR REPULSION ENERGY   61.44785679


 Eigenvalues of metric

         1 0.878E-03 0.122E-02 0.161E-02 0.219E-02 0.283E-02 0.309E-02 0.591E-02 0.830E-02


 Contracted 2-electron integrals neglected if value below      1.0D-11
 AO integral compression algorithm  1   Integral accuracy      1.0D-11

     113.246 MB (compressed) written to integral file ( 48.5%)


 NUMBER OF SORTED TWO-ELECTRON INTEGRALS:   24650731.     BUFFER LENGTH:  32768
 NUMBER OF SEGMENTS:   2  SEGMENT LENGTH:   15997996      RECORD LENGTH: 524288

 Memory used in sort:      16.56 MW

 SORT1 READ    29190753. AND WROTE    23459084. INTEGRALS IN     69 RECORDS. CPU TIME:     0.17 SEC, REAL TIME:     0.25 SEC
 SORT2 READ    23459084. AND WROTE    24650731. INTEGRALS IN    432 RECORDS. CPU TIME:     0.22 SEC, REAL TIME:     0.28 SEC

 FILE SIZES:   FILE 1:   143.8 MBYTE,  FILE 4:   289.5 MBYTE,   TOTAL:    433.3 MBYTE

 OPERATOR DM      FOR CENTER  0  COORDINATES:    0.000000    0.000000    0.000000


 **********************************************************************************************************************************
 DATASETS  * FILE   NREC   LENGTH (MB)   RECORD NAMES
              1      19      121.39       500      610      700      900      950      970     1000      129      960     1100   
                                          VAR    BASINP    GEOM    SYMINP    ZMAT    AOBASIS   BASIS     P2S    ABASIS      S 
                                         1400     1410     1200     1210     1080     1600     1650     1300     1700   
                                           T        V       H0       H01     AOSYM     SMH    MOLCAS    ERIS     OPER   

 PROGRAMS   *        TOTAL       INT
 CPU TIMES  *         1.23      1.13
 REAL TIME  *         4.45 SEC
 DISK USED  *       413.64 MB
 **********************************************************************************************************************************


 Program * Restricted Hartree-Fock

 Orbital guess generated from atomic densities. Full valence occupancy:   17

 Initial occupancy:  11

 NELEC=   22   SYM=1   MS2= 0   THRE=1.0D-08   THRD=3.2D-06   THRG=3.2D-06  HFMA2=F  DIIS_START=2   DIIS_MAX=10   DIIS_INCORE=F

 Level shifts:    0.00 (CLOSED)    0.00 (OPEN)    0.30 (GAP_MIN)

 ITER           ETOT              DE          GRAD        DDIFF     DIIS  NEXP   TIME(IT)  TIME(TOT)  DIAG
   1     -147.80364838    -147.80364838     0.00D+00     0.72D-01     0     0       0.10      0.20    start
   2     -147.83027227      -0.02662390     0.58D-02     0.77D-02     1     0       0.11      0.31    diag
   3     -147.84397973      -0.01370745     0.38D-02     0.34D-02     2     0       0.11      0.42    diag
   4     -147.84607540      -0.00209567     0.91D-03     0.13D-02     3     0       0.11      0.53    diag
   5     -147.84681673      -0.00074133     0.44D-03     0.74D-03     4     0       0.10      0.63    diag
   6     -147.84727501      -0.00045828     0.29D-03     0.64D-03     5     0       0.11      0.74    diag
   7     -147.84748593      -0.00021091     0.14D-03     0.66D-03     6     0       0.10      0.84    diag
   8     -147.84750341      -0.00001748     0.54D-04     0.20D-03     7     0       0.11      0.95    fixocc
   9     -147.84750407      -0.00000066     0.13D-04     0.36D-04     8     0       0.10      1.05    diag
  10     -147.84750412      -0.00000005     0.39D-05     0.86D-05     9     0       0.11      1.16    diag/orth
  11     -147.84750413      -0.00000000     0.11D-05     0.25D-05     9     0       0.11      1.27    diag
  12     -147.84750413      -0.00000000     0.33D-06     0.53D-06     0     0       0.10      1.37    diag

 Final occupancy:  11

 !RHF STATE 1.1 Energy               -147.847504125431
  RHF One-electron energy            -321.224372676836
  RHF Two-electron energy             111.929011759986
  RHF Kinetic energy                  147.581753418888
  RHF Nuclear energy                   61.447856791419
  RHF Virial quotient                  -1.001800701648

 !RHF STATE 1.1 Dipole moment          -0.49143857    -0.60133448     0.49772091
 Dipole moment /Debye                  -1.24911225    -1.52843979     1.26508037

 Orbital energies:

           1.1          2.1          3.1          4.1          5.1          6.1          7.1          8.1          9.1         10.1
    -15.716868   -15.596819   -11.287626    -1.393663    -1.147135    -0.796124    -0.731646    -0.637140    -0.610950    -0.416676

          11.1         12.1         13.1
     -0.348510     0.113091     0.135553


 HOMO     11.1    -0.348510 =      -9.4835eV
 LUMO     12.1     0.113091 =       3.0774eV
 LUMO-HOMO         0.461601 =      12.5608eV

 Orbitals saved in record  2100.2


 **********************************************************************************************************************************
 DATASETS  * FILE   NREC   LENGTH (MB)   RECORD NAMES
              1      19      121.39       500      610      700      900      950      970     1000      129      960     1100   
                                          VAR    BASINP    GEOM    SYMINP    ZMAT    AOBASIS   BASIS     P2S    ABASIS      S 
                                         1400     1410     1200     1210     1080     1600     1650     1300     1700   
                                           T        V       H0       H01     AOSYM     SMH    MOLCAS    ERIS     OPER   

              2       4        0.67       700     1000      520     2100   
                                         GEOM     BASIS   MCVARS     RHF  

 PROGRAMS   *        TOTAL    HF-SCF       INT
 CPU TIMES  *         2.60      1.37      1.13
 REAL TIME  *         6.70 SEC
 DISK USED  *       413.64 MB
 **********************************************************************************************************************************


 Program * Restricted Hartree-Fock

 Molecular orbitals read from record     2100.2  Type=RHF/CANONICAL  

 Initial occupancy:  11

 NELEC=   22   SYM=1   MS2= 0   THRE=1.0D-08   THRD=3.2D-06   THRG=3.2D-06  HFMA2=F  DIIS_START=2   DIIS_MAX=10   DIIS_INCORE=F

 Level shifts:    0.00 (CLOSED)    0.00 (OPEN)    0.30 (GAP_MIN)

 ITER           ETOT              DE          GRAD        DDIFF     DIIS  NEXP   TIME(IT)  TIME(TOT)  DIAG
   1     -147.84750413    -147.84750413     0.00D+00     0.75D-01     0     0       0.11      0.11    start
   2     -147.84750413      -0.00000000     0.17D-06     0.28D-06     1     0       0.10      0.21    diag

 Final occupancy:  11

 !RHF STATE 1.1 Energy               -147.847504125533
  RHF One-electron energy            -321.224376614724
  RHF Two-electron energy             111.929015697773
  RHF Kinetic energy                  147.581758263158
  RHF Nuclear energy                   61.447856791419
  RHF Virial quotient                  -1.001800668765

 !RHF STATE 1.1 Dipole moment          -0.49140363    -0.60133377     0.49772400
 Dipole moment /Debye                  -1.24902345    -1.52843799     1.26508822

 Orbital energies:

           1.1          2.1          3.1          4.1          5.1          6.1          7.1          8.1          9.1         10.1
    -15.716871   -15.596817   -11.287633    -1.393665    -1.147137    -0.796124    -0.731648    -0.637140    -0.610952    -0.416677

          11.1         12.1         13.1
     -0.348510     0.113090     0.135552


 HOMO     11.1    -0.348510 =      -9.4835eV
 LUMO     12.1     0.113090 =       3.0773eV
 LUMO-HOMO         0.461600 =      12.5608eV

 Orbitals saved in record  2101.2


 **********************************************************************************************************************************
 DATASETS  * FILE   NREC   LENGTH (MB)   RECORD NAMES
              1      19      121.39       500      610      700      900      950      970     1000      129      960     1100   
                                          VAR    BASINP    GEOM    SYMINP    ZMAT    AOBASIS   BASIS     P2S    ABASIS      S 
                                         1400     1410     1200     1210     1080     1600     1650     1300     1700   
                                           T        V       H0       H01     AOSYM     SMH    MOLCAS    ERIS     OPER   

              2       5        1.14       700     1000      520     2100     2101   
                                         GEOM     BASIS   MCVARS     RHF      RHF  

 PROGRAMS   *        TOTAL    HF-SCF    HF-SCF       INT
 CPU TIMES  *         2.83      0.23      1.37      1.13
 REAL TIME  *         7.31 SEC
 DISK USED  *       413.64 MB
 **********************************************************************************************************************************


 PROGRAM * PAPT (Closed-shell)     Authors: C. Hampel, H.-J. Werner, 1991, P.J. Knowles, 2021


 Convergence thresholds:  THRVAR = 1.00D-08  THRDEN = 1.00D-06

 Number of core orbitals:           3 (   3 )
 Number of closed-shell orbitals:   8 (   8 )
 Number of external orbitals:     107 ( 107 )

 Molecular orbitals read from record     2101.2  Type=RHF/CANONICAL  

 Number of N-1 electron functions:               8
 Number of N-2 electron functions:              36
 Number of singly external CSFs:               856
 Number of doubly external CSFs:            366796
 Total number of CSFs:                      367653

 Length of J-op  integral file:               0.00 MB
 Length of K-op  integral file:               1.02 MB

 Integral transformation finished. Total CPU:   0.19 sec, npass=  1  Memory used:   1.15 MW

 Reference energy:                   -147.84750413

                        CORR.ENERGY   TOTAL ENERGY   ENERGY CHANGE
 MP2:                   -0.57609562  -148.42359975    -0.57609562

 SCS-MP2 correlation energy:           -0.56376281   (PS=  1.200000  PT=  0.333333)
 SCS-MP2 total energy:               -148.41126694
 Iteration:   1     0.2851D+00
 Iteration:   2     0.4559D+00
 Iteration:   3     0.1132D+00
 Iteration:   4     0.1065D+00
 Iteration:   5     0.6246D-01
 Iteration:   6     0.2829D-01
 Iteration:   7     0.1180D+00
 Iteration:   8     0.8767D-02
 Iteration:   9     0.7616D-02
 Iteration:  10     0.3969D-02
 Iteration:  11     0.1577D-02
 Iteration:  12     0.4252D-02
 Iteration:  13     0.5238D-03
 Iteration:  14     0.1228D-02
 Iteration:  15     0.2424D-03
 Iteration:  16     0.3160D-03
 Iteration:  17     0.1231D-03
 Iteration:  18     0.1003D-03
 Iteration:  19     0.5665D-04
 PAPT operator written to  7000.1
 PAPT orbitals and eigenvalues written to  7000.2

 MP3(D):                -0.57095782  -148.41846195     0.00513780



 RESULTS
 =======

  Reference energy                   -147.847504125532
  MP3 singlet pair energy              -0.377785654109
  MP3 triplet pair energy              -0.193172168482
  MP3 correlation energy               -0.570957822591

 !MP3 total energy                   -148.418461948123

 Timing summary (sec):

 STEP                 CPU(USER)    SYS     CPU(TOT)    WALL
 Transformation          0.20      0.02      0.22      0.30
 CCSD iterations         3.85      0.10      3.95      2.04

 Program statistics:

 Available memory in ccsd:               393215733
 Min. memory needed in ccsd:               1129080
 Max. memory used in ccsd:                 1430708
 Max. memory used in cckext:               1124942 ( 1 integral passes)



 **********************************************************************************************************************************
 DATASETS  * FILE   NREC   LENGTH (MB)   RECORD NAMES
              1      21      127.41       500      610      700      900      950      970     1000      129      960     1100   
                                          VAR    BASINP    GEOM    SYMINP    ZMAT    AOBASIS   BASIS     P2S    ABASIS      S 
                                         1400     1410     1200     1210     1080     1600     1650     1300     1700     1380   
                                           T        V       H0       H01     AOSYM     SMH    MOLCAS    ERIS     OPER     JKOP   
                                         7000   
                                        PAPT AO    

              2       6        1.56       700     1000      520     2100     2101     7000   
                                         GEOM     BASIS   MCVARS     RHF      RHF     PAPT   

 PROGRAMS   *        TOTAL      PAPT    HF-SCF    HF-SCF       INT
 CPU TIMES  *         3.96      1.13      0.23      1.37      1.13
 REAL TIME  *        10.01 SEC
 DISK USED  *       413.64 MB
 **********************************************************************************************************************************


 PROGRAM * MP3 (Closed-shell)     Authors: C. Hampel, H.-J. Werner, 1991, M. Deegan, P.J. Knowles, 1992


 Convergence thresholds:  THRVAR = 1.00D-08  THRDEN = 1.00D-06

 Number of core orbitals:           3 (   3 )
 Number of closed-shell orbitals:   8 (   8 )
 Number of external orbitals:     107 ( 107 )

 Molecular orbitals read from record     7000.2  Type=PAPT/CANONICAL (state 1.1)

 Number of N-1 electron functions:               8
 Number of N-2 electron functions:              36
 Number of singly external CSFs:               856
 Number of doubly external CSFs:            366796
 Total number of CSFs:                      367653

 Length of J-op  integral file:               0.00 MB
 Length of K-op  integral file:               1.02 MB

 Integral transformation finished. Total CPU:   0.17 sec, npass=  1  Memory used:   1.15 MW
 Orbital energies read from record       7000.2  Type=PAPT/CANONICAL (state 1.1)

 Reference energy:                   -147.84750413

                        CORR.ENERGY   TOTAL ENERGY   ENERGY CHANGE
 MP2:                   -0.57659881  -148.42410293    -0.57659881

 SCS-MP2 correlation energy:           -0.56723932   (PS=  1.200000  PT=  0.333333)
 SCS-MP2 total energy:               -148.41474344

 MP3(D):                -0.57684057  -148.42434469    -0.00024176



 RESULTS
 =======

  Reference energy                   -147.847504125533
  MP3 singlet pair energy              -0.381094066614
  MP3 triplet pair energy              -0.195746500539
  MP3 correlation energy               -0.576840567154

 !MP3 total energy                   -148.424344692686

 Timing summary (sec):

 STEP                 CPU(USER)    SYS     CPU(TOT)    WALL
 Transformation          0.29      0.03      0.32      0.50
 CCSD iterations         4.48      0.02      4.50      0.57

 Program statistics:

 Available memory in ccsd:               393215733
 Min. memory needed in ccsd:               1129080
 Max. memory used in ccsd:                 1430708
 Max. memory used in cckext:               1124942 ( 1 integral passes)



 **********************************************************************************************************************************
 DATASETS  * FILE   NREC   LENGTH (MB)   RECORD NAMES
              1      21      127.41       500      610      700      900      950      970     1000      129      960     1100   
                                          VAR    BASINP    GEOM    SYMINP    ZMAT    AOBASIS   BASIS     P2S    ABASIS      S 
                                         1400     1410     1200     1210     1080     1600     1650     1300     1700     1380   
                                           T        V       H0       H01     AOSYM     SMH    MOLCAS    ERIS     OPER     JKOP   
                                         7000   
                                        PAPT AO    

              2       6        1.56       700     1000      520     2100     2101     7000   
                                         GEOM     BASIS   MCVARS     RHF      RHF     PAPT   

 PROGRAMS   *        TOTAL       MP3      PAPT    HF-SCF    HF-SCF       INT
 CPU TIMES  *         4.67      0.71      1.13      0.23      1.37      1.13
 REAL TIME  *        11.32 SEC
 DISK USED  *       413.64 MB
 **********************************************************************************************************************************

 Dump information in style XML to xml output                                                                      

 Orbitals will not be exported.

 **********************************************************************************************************************************

 MP3/cc-pVTZ energy=   -148.424344692686

             MP3            PAPT          HF-SCF          HF-SCF
   -148.42434469   -148.41846195   -147.84750413   -147.84750413
 **********************************************************************************************************************************
 Molpro calculation terminated
