
 Working directory              : /var/folders/2v/xbgp75_9785319ghcgb4zr4r0000gp/T//molpro.0mdPacZl0g/
 Global scratch directory       : /var/folders/2v/xbgp75_9785319ghcgb4zr4r0000gp/T//molpro.0mdPacZl0g/
 Wavefunction directory         : /Users/sacpjk/wfu/
 Main file repository           : /var/folders/2v/xbgp75_9785319ghcgb4zr4r0000gp/T//molpro.0mdPacZl0g/

 id        : peterk

 Nodes                        nprocs
 Cardiff-University-G34YLXT77Y    1
 GA implementation: MPI file
 GA implementation (serial work in mppx): MPI file

 Using customized tuning parameters: mindgm=1; mindgv=20; mindgc=4; mindgr=1; noblas=0; minvec=7
 default implementation of scratch files=df  


 Variables initialized (1032), CPU time= 0.01 sec
 
 symmetry,nosym
 
 
 geometry={
            6
     CL         0.00000000      0.00000000      2.12296431
     C          0.00000000      0.00000000      0.27246587
     H         -0.51316170     -0.88882214     -0.05531446
     H         -0.51316170      0.88882214     -0.05531446
     H          1.02632340      0.00000000     -0.05531446
     F          0.00000000      0.00000000     -2.22948681
 }
 basis=cc-pVTZ
 
 charge=-1
 
 hf; hf; papt; mp2
 
 
 
 {put,xml;noorbitals,nobasis}
 Commands initialized (841), CPU time= 0.00 sec, 704 directives.
 Default parameters read. Elapsed time= 0.18 sec

 Checking input...
 Passed
1


                                         ***  PROGRAM SYSTEM MOLPRO  ***
                                       Copyright, TTI GmbH Stuttgart, 2015
                                    Version 2023.1 linked Tue Jun  6 09:54:11 2023


 **********************************************************************************************************************************
 LABEL *                                                                                                                                                                 
  64 bit serial version                                                                  DATE: 09-Jun-23          TIME: 16:04:38  
 **********************************************************************************************************************************

 SHA1:             8ebb0dd001088a5c915591db1a321413035db0b1
 **********************************************************************************************************************************

 Memory per process:       805 MW
 Total memory per node:   1074 MW
 Total GA space:           268 MW

 GA preallocation disabled
 GA check enabled

 Variable memory set to 805.3 MW

 ZSYMEL=NOSYM


 Geometry recognized as XYZ

 SETTING BASIS          =    CC-PVTZ
 SETTING CHARGE         =        -1.00000000                                  


 Recomputing integrals since basis changed


 Using spherical harmonics

 Library entry CL     S cc-pVTZ              selected for orbital group  1
 Library entry CL     P cc-pVTZ              selected for orbital group  1
 Library entry CL     D cc-pVTZ              selected for orbital group  1
 Library entry CL     F cc-pVTZ              selected for orbital group  1
 Library entry C      S cc-pVTZ              selected for orbital group  2
 Library entry C      P cc-pVTZ              selected for orbital group  2
 Library entry C      D cc-pVTZ              selected for orbital group  2
 Library entry C      F cc-pVTZ              selected for orbital group  2
 Library entry H      S cc-pVTZ              selected for orbital group  3
 Library entry H      P cc-pVTZ              selected for orbital group  3
 Library entry H      D cc-pVTZ              selected for orbital group  3
 Library entry F      S cc-pVTZ              selected for orbital group  4
 Library entry F      P cc-pVTZ              selected for orbital group  4
 Library entry F      D cc-pVTZ              selected for orbital group  4
 Library entry F      F cc-pVTZ              selected for orbital group  4


 PROGRAM * SEWARD (Integral evaluation for generally contracted gaussian basis sets)     Author: Roland Lindh, 1990

 Geometry written to block  1 of record 700


 Point group  C1  



 ATOMIC COORDINATES

 NR  ATOM    CHARGE       X              Y              Z

   1  CL     17.00    0.000000000    0.000000000    4.011821118
   2  C       6.00    0.000000000    0.000000000    0.514885873
   3  H       1.00   -0.969735071   -1.679630418   -0.104529180
   4  H       1.00   -0.969735071    1.679630418   -0.104529180
   5  H       1.00    1.939470141    0.000000000   -0.104529180
   6  F       9.00    0.000000000    0.000000000   -4.213119469

 Bond lengths in Bohr (Angstrom)

 1-2  3.496935246  2-3  2.035981202  2-4  2.035981202  2-5  2.035981197
     ( 1.850498440)     ( 1.077394854)     ( 1.077394854)     ( 1.077394852)

 Bond angles

  1-2-3  107.71209573   1-2-4  107.71209573   1-2-5  107.71209577   3-2-4  111.17159748

  3-2-5  111.17159724   4-2-5  111.17159724

 NUCLEAR CHARGE:                   35
 NUMBER OF PRIMITIVE AOS:         209
 NUMBER OF SYMMETRY AOS:          191
 NUMBER OF CONTRACTIONS:          136   (  136A   )
 NUMBER OF INNER CORE ORBITALS:     1   (    1A   )
 NUMBER OF OUTER CORE ORBITALS:     6   (    6A   )
 NUMBER OF VALENCE ORBITALS:       15   (   15A   )


 NUCLEAR REPULSION ENERGY   86.07628537


 Eigenvalues of metric

         1 0.120E-02 0.179E-02 0.179E-02 0.265E-02 0.370E-02 0.803E-02 0.101E-01 0.101E-01


 Contracted 2-electron integrals neglected if value below      1.0D-11
 AO integral compression algorithm  1   Integral accuracy      1.0D-11

     125.043 MB (compressed) written to integral file ( 31.3%)


 NUMBER OF SORTED TWO-ELECTRON INTEGRALS:   43398586.     BUFFER LENGTH:  32768
 NUMBER OF SEGMENTS:   3  SEGMENT LENGTH:   15998004      RECORD LENGTH: 524288

 Memory used in sort:      16.56 MW

 SORT1 READ    49841924. AND WROTE    28309053. INTEGRALS IN     83 RECORDS. CPU TIME:     0.30 SEC, REAL TIME:     0.40 SEC
 SORT2 READ    28309053. AND WROTE    43398586. INTEGRALS IN    477 RECORDS. CPU TIME:     0.34 SEC, REAL TIME:     0.41 SEC

 FILE SIZES:   FILE 1:   155.8 MBYTE,  FILE 4:   348.2 MBYTE,   TOTAL:    504.0 MBYTE

 OPERATOR DM      FOR CENTER  0  COORDINATES:    0.000000    0.000000    0.000000


 **********************************************************************************************************************************
 DATASETS  * FILE   NREC   LENGTH (MB)   RECORD NAMES
              1      19      131.78       500      610      700      900      950      970     1000      129      960     1100   
                                          VAR    BASINP    GEOM    SYMINP    ZMAT    AOBASIS   BASIS     P2S    ABASIS      S 
                                         1400     1410     1200     1210     1080     1600     1650     1300     1700   
                                           T        V       H0       H01     AOSYM     SMH    MOLCAS    ERIS     OPER   

 PROGRAMS   *        TOTAL       INT
 CPU TIMES  *         1.95      1.87
 REAL TIME  *         3.89 SEC
 DISK USED  *       481.10 MB
 **********************************************************************************************************************************


 Program * Restricted Hartree-Fock

 Orbital guess generated from atomic densities. Full valence occupancy:   22

 Initial occupancy:  18

 NELEC=   36   SYM=1   MS2= 0   THRE=1.0D-08   THRD=3.2D-06   THRG=3.2D-06  HFMA2=F  DIIS_START=2   DIIS_MAX=10   DIIS_INCORE=F

 Level shifts:    0.00 (CLOSED)    0.00 (OPEN)    0.30 (GAP_MIN)

 ITER           ETOT              DE          GRAD        DDIFF     DIIS  NEXP   TIME(IT)  TIME(TOT)  DIAG
   1     -598.50136918    -598.50136918     0.00D+00     0.86D-01     0     0       0.20      0.38    start
   2     -598.56547556      -0.06410638     0.78D-02     0.12D-01     1     0       0.20      0.58    diag
   3     -598.60381574      -0.03834018     0.59D-02     0.46D-02     2     0       0.20      0.78    diag
   4     -598.60457870      -0.00076295     0.41D-03     0.88D-03     3     0       0.20      0.98    diag
   5     -598.60463353      -0.00005483     0.10D-03     0.25D-03     4     0       0.19      1.17    diag
   6     -598.60463714      -0.00000361     0.28D-04     0.67D-04     5     0       0.20      1.37    diag
   7     -598.60463744      -0.00000030     0.74D-05     0.19D-04     6     0       0.19      1.56    diag
   8     -598.60463748      -0.00000004     0.28D-05     0.57D-05     7     0       0.20      1.76    fixocc
   9     -598.60463749      -0.00000001     0.96D-06     0.24D-05     8     0       0.20      1.96    diag
  10     -598.60463749      -0.00000000     0.15D-06     0.27D-06     0     0       0.20      2.16    diag/orth

 Final occupancy:  18

 !RHF STATE 1.1 Energy               -598.604637486044
  RHF One-electron energy           -1008.041595967594
  RHF Two-electron energy             323.360673114753
  RHF Kinetic energy                  598.725719144215
  RHF Nuclear energy                   86.076285366796
  RHF Virial quotient                  -0.999797767735

 !RHF STATE 1.1 Dipole moment           0.00000000    -0.00000000     2.16974928
 Dipole moment /Debye                   0.00000000    -0.00000000     5.51495258

 Orbital energies:

           1.1          2.1          3.1          4.1          5.1          6.1          7.1          8.1          9.1         10.1
   -104.659198   -25.818479   -11.110305   -10.385130    -7.851798    -7.850545    -7.850545    -1.084654    -0.948638    -0.737515

          11.1         12.1         13.1         14.1         15.1         16.1         17.1         18.1         19.1         20.1
     -0.434939    -0.434939    -0.364244    -0.279828    -0.279828    -0.191190    -0.191190    -0.187154     0.310877     0.364898


 HOMO     18.1    -0.187154 =      -5.0927eV
 LUMO     19.1     0.310877 =       8.4594eV
 LUMO-HOMO         0.498032 =      13.5521eV

 Orbitals saved in record  2100.2


 **********************************************************************************************************************************
 DATASETS  * FILE   NREC   LENGTH (MB)   RECORD NAMES
              1      19      131.78       500      610      700      900      950      970     1000      129      960     1100   
                                          VAR    BASINP    GEOM    SYMINP    ZMAT    AOBASIS   BASIS     P2S    ABASIS      S 
                                         1400     1410     1200     1210     1080     1600     1650     1300     1700   
                                           T        V       H0       H01     AOSYM     SMH    MOLCAS    ERIS     OPER   

              2       4        0.76       700     1000      520     2100   
                                         GEOM     BASIS   MCVARS     RHF  

 PROGRAMS   *        TOTAL    HF-SCF       INT
 CPU TIMES  *         4.11      2.16      1.87
 REAL TIME  *         6.53 SEC
 DISK USED  *       481.10 MB
 **********************************************************************************************************************************


 Program * Restricted Hartree-Fock

 Molecular orbitals read from record     2100.2  Type=RHF/CANONICAL  

 Initial occupancy:  18

 NELEC=   36   SYM=1   MS2= 0   THRE=1.0D-08   THRD=3.2D-06   THRG=3.2D-06  HFMA2=F  DIIS_START=2   DIIS_MAX=10   DIIS_INCORE=F

 Level shifts:    0.00 (CLOSED)    0.00 (OPEN)    0.30 (GAP_MIN)

 ITER           ETOT              DE          GRAD        DDIFF     DIIS  NEXP   TIME(IT)  TIME(TOT)  DIAG
   1     -598.60463749    -598.60463749     0.00D+00     0.85D-01     0     0       0.20      0.20    start
   2     -598.60463749      -0.00000000     0.69D-07     0.11D-06     1     0       0.20      0.40    diag

 Final occupancy:  18

 !RHF STATE 1.1 Energy               -598.604637486061
  RHF One-electron energy           -1008.041609485794
  RHF Two-electron energy             323.360686632937
  RHF Kinetic energy                  598.725738305483
  RHF Nuclear energy                   86.076285366796
  RHF Virial quotient                  -0.999797735738

 !RHF STATE 1.1 Dipole moment           0.00000000    -0.00000000     2.16974502
 Dipole moment /Debye                   0.00000000    -0.00000000     5.51494175

 Orbital energies:

           1.1          2.1          3.1          4.1          5.1          6.1          7.1          8.1          9.1         10.1
   -104.659196   -25.818486   -11.110306   -10.385128    -7.851796    -7.850543    -7.850543    -1.084656    -0.948638    -0.737515

          11.1         12.1         13.1         14.1         15.1         16.1         17.1         18.1         19.1         20.1
     -0.434939    -0.434939    -0.364243    -0.279827    -0.279827    -0.191193    -0.191193    -0.187156     0.310877     0.364898


 HOMO     18.1    -0.187156 =      -5.0928eV
 LUMO     19.1     0.310877 =       8.4594eV
 LUMO-HOMO         0.498034 =      13.5522eV

 Orbitals saved in record  2101.2


 **********************************************************************************************************************************
 DATASETS  * FILE   NREC   LENGTH (MB)   RECORD NAMES
              1      19      131.78       500      610      700      900      950      970     1000      129      960     1100   
                                          VAR    BASINP    GEOM    SYMINP    ZMAT    AOBASIS   BASIS     P2S    ABASIS      S 
                                         1400     1410     1200     1210     1080     1600     1650     1300     1700   
                                           T        V       H0       H01     AOSYM     SMH    MOLCAS    ERIS     OPER   

              2       5        1.36       700     1000      520     2100     2101   
                                         GEOM     BASIS   MCVARS     RHF      RHF  

 PROGRAMS   *        TOTAL    HF-SCF    HF-SCF       INT
 CPU TIMES  *         4.52      0.41      2.16      1.87
 REAL TIME  *         7.20 SEC
 DISK USED  *       481.10 MB
 **********************************************************************************************************************************


 PROGRAM * PAPT (Closed-shell)     Authors: C. Hampel, H.-J. Werner, 1991, P.J. Knowles, 2021


 Convergence thresholds:  THRVAR = 1.00D-08  THRDEN = 1.00D-06

 Number of core orbitals:           7 (   7 )
 Number of closed-shell orbitals:  11 (  11 )
 Number of external orbitals:     118 ( 118 )

 Molecular orbitals read from record     2101.2  Type=RHF/CANONICAL  

 Number of N-1 electron functions:              11
 Number of N-2 electron functions:              66
 Number of singly external CSFs:              1298
 Number of doubly external CSFs:            843051
 Total number of CSFs:                      844350

 Length of J-op  integral file:               0.00 MB
 Length of K-op  integral file:               1.33 MB

 Integral transformation finished. Total CPU:   0.36 sec, npass=  1  Memory used:   2.44 MW

 Reference energy:                   -598.60463749

                        CORR.ENERGY   TOTAL ENERGY   ENERGY CHANGE
 MP2:                   -0.64700257  -599.25164006    -0.64700257

 SCS-MP2 correlation energy:           -0.64007661   (PS=  1.200000  PT=  0.333333)
 SCS-MP2 total energy:               -599.24471410
 Iteration:   1     0.3568D+00
 Iteration:   2     0.4266D+00
 Iteration:   3     0.3642D+00
 Iteration:   4     0.3012D+00
 Iteration:   5     0.1740D+01
 Iteration:   6     0.1548D+00
 Iteration:   7     0.1503D+00
 Iteration:   8     0.1558D+00
 Iteration:   9     0.5352D-01
 Iteration:  10     0.1982D+00
 Iteration:  11     0.2690D-01
 Iteration:  12     0.1896D+00
 Iteration:  13     0.1214D-01
 Iteration:  14     0.1153D-01
 Iteration:  15     0.4666D-02
 Iteration:  16     0.1358D-02
 Iteration:  17     0.3100D-02
 Iteration:  18     0.4902D-03
 Iteration:  19     0.3834D-03
 Iteration:  20     0.4043D-03
 Iteration:  21     0.5462D-04
 PAPT operator written to  7000.1
 PAPT orbitals and eigenvalues written to  7000.2

 MP3(D):                -0.67194736  -599.27658485    -0.02494479



 RESULTS
 =======

  Reference energy                   -598.604637486061
  MP3 singlet pair energy              -0.449545784020
  MP3 triplet pair energy              -0.222401577025
  MP3 correlation energy               -0.671947361045

 !MP3 total energy                   -599.276584847106

 Timing summary (sec):

 STEP                 CPU(USER)    SYS     CPU(TOT)    WALL
 Transformation          0.38      0.04      0.42      0.56
 CCSD iterations         7.61      0.17      7.78      3.94

 Program statistics:

 Available memory in ccsd:               805305866
 Min. memory needed in ccsd:               2341778
 Max. memory used in ccsd:                 3058604
 Max. memory used in cckext:               2623567 ( 1 integral passes)



 **********************************************************************************************************************************
 DATASETS  * FILE   NREC   LENGTH (MB)   RECORD NAMES
              1      21      146.14       500      610      700      900      950      970     1000      129      960     1100   
                                          VAR    BASINP    GEOM    SYMINP    ZMAT    AOBASIS   BASIS     P2S    ABASIS      S 
                                         1400     1410     1200     1210     1080     1600     1650     1300     1700     1380   
                                           T        V       H0       H01     AOSYM     SMH    MOLCAS    ERIS     OPER     JKOP   
                                         7000   
                                        PAPT AO    

              2       6        1.88       700     1000      520     2100     2101     7000   
                                         GEOM     BASIS   MCVARS     RHF      RHF     PAPT   

 PROGRAMS   *        TOTAL      PAPT    HF-SCF    HF-SCF       INT
 CPU TIMES  *         7.90      3.38      0.41      2.16      1.87
 REAL TIME  *        11.82 SEC
 DISK USED  *       481.10 MB
 **********************************************************************************************************************************


 PROGRAM * MP2 (Closed-shell)     Authors: C. Hampel, H.-J. Werner, 1991, M. Deegan, P.J. Knowles, 1992


 Convergence thresholds:  THRVAR = 1.00D-08  THRDEN = 1.00D-06

 Number of core orbitals:           7 (   7 )
 Number of closed-shell orbitals:  11 (  11 )
 Number of external orbitals:     118 ( 118 )

 Molecular orbitals read from record     7000.2  Type=PAPT/CANONICAL (state 1.1)

 Number of N-1 electron functions:              11
 Number of N-2 electron functions:              66
 Number of singly external CSFs:              1298
 Number of doubly external CSFs:            843051
 Total number of CSFs:                      844350

 Length of J-op  integral file:               0.00 MB
 Length of K-op  integral file:               1.33 MB

 Integral transformation finished. Total CPU:   0.35 sec, npass=  1  Memory used:   2.44 MW
 Orbital energies read from record       7000.2  Type=PAPT/CANONICAL (state 1.1)

 Memory needed for MP2:                      0.09 MW

 SCS-MP2 correlation energy:           -0.673941317533   (PS=  1.200000  PT=  0.333333)
 SCS-MP2 total energy:               -599.278578803594


  Reference energy                   -598.604637486061
  MP2 singlet pair energy              -0.435526806334
  MP2 triplet pair energy              -0.243175419535
  MP2 correlation energy               -0.678702225869

 !MP2 total energy                   -599.283339711930


 **********************************************************************************************************************************
 DATASETS  * FILE   NREC   LENGTH (MB)   RECORD NAMES
              1      21      146.14       500      610      700      900      950      970     1000      129      960     1100   
                                          VAR    BASINP    GEOM    SYMINP    ZMAT    AOBASIS   BASIS     P2S    ABASIS      S 
                                         1400     1410     1200     1210     1080     1600     1650     1300     1700     1380   
                                           T        V       H0       H01     AOSYM     SMH    MOLCAS    ERIS     OPER     JKOP   
                                         7000   
                                        PAPT AO    

              2       6        1.88       700     1000      520     2100     2101     7000   
                                         GEOM     BASIS   MCVARS     RHF      RHF     PAPT   

 PROGRAMS   *        TOTAL       MP2      PAPT    HF-SCF    HF-SCF       INT
 CPU TIMES  *         8.51      0.60      3.38      0.41      2.16      1.87
 REAL TIME  *        12.79 SEC
 DISK USED  *       481.10 MB
 **********************************************************************************************************************************

 Dump information in style XML to xml output                                                                      

 Orbitals will not be exported.

 **********************************************************************************************************************************

 MP2/cc-pVTZ energy=   -599.283339711930

             MP2            PAPT          HF-SCF          HF-SCF
   -599.28333971   -599.27658485   -598.60463749   -598.60463749
 **********************************************************************************************************************************
 Molpro calculation terminated
