
 Working directory              : /var/folders/2v/xbgp75_9785319ghcgb4zr4r0000gp/T//molpro.JdmbSw3mvn/
 Global scratch directory       : /var/folders/2v/xbgp75_9785319ghcgb4zr4r0000gp/T//molpro.JdmbSw3mvn/
 Wavefunction directory         : /Users/sacpjk/wfu/
 Main file repository           : /var/folders/2v/xbgp75_9785319ghcgb4zr4r0000gp/T//molpro.JdmbSw3mvn/

 id        : peterk

 Nodes                        nprocs
 Cardiff-University-G34YLXT77Y    1
 GA implementation: MPI file
 GA implementation (serial work in mppx): MPI file

 Using customized tuning parameters: mindgm=1; mindgv=20; mindgc=4; mindgr=1; noblas=0; minvec=7
 default implementation of scratch files=df  


 Variables initialized (1032), CPU time= 0.01 sec
 
 symmetry,nosym
 
 
 geometry={
            4
     H          1.26209859      0.61673002      0.00000000
     S          0.00000026      1.05998000      0.00000000
     H         -0.50057601     -0.27862042      0.00000000
     H         -0.76152284     -1.39808960      0.00000000
 }
 basis=cc-pVDZ
 
 
 spin=1
 uhf
 
 
 
 {put,xml;noorbitals,nobasis}
 Commands initialized (841), CPU time= 0.00 sec, 704 directives.
 Default parameters read. Elapsed time= 0.11 sec

 Checking input...
 Passed
1


                                         ***  PROGRAM SYSTEM MOLPRO  ***
                                       Copyright, TTI GmbH Stuttgart, 2015
                                    Version 2023.1 linked Tue Jun  6 09:54:11 2023


 **********************************************************************************************************************************
 LABEL *                                                                                                                                                                 
  64 bit serial version                                                                  DATE: 09-Jun-23          TIME: 09:28:14  
 **********************************************************************************************************************************

 SHA1:             8ebb0dd001088a5c915591db1a321413035db0b1
 **********************************************************************************************************************************

 Memory per process:       805 MW
 Total memory per node:   1074 MW
 Total GA space:           268 MW

 GA preallocation disabled
 GA check enabled

 Variable memory set to 805.3 MW

 ZSYMEL=NOSYM


 Geometry recognized as XYZ

 SETTING BASIS          =    CC-PVDZ
 SETTING SPIN           =         1.00000000                                  


 Recomputing integrals since basis changed


 Using spherical harmonics

 Library entry H      S cc-pVDZ              selected for orbital group  1
 Library entry H      P cc-pVDZ              selected for orbital group  1
 Library entry S      S cc-pVDZ              selected for orbital group  2
 Library entry S      P cc-pVDZ              selected for orbital group  2
 Library entry S      D cc-pVDZ              selected for orbital group  2


 PROGRAM * SEWARD (Integral evaluation for generally contracted gaussian basis sets)     Author: Roland Lindh, 1990

 Geometry written to block  1 of record 700


 Point group  C1  



 ATOMIC COORDINATES

 NR  ATOM    CHARGE       X              Y              Z

   1  H       1.00    2.385020677    1.165450831    0.000000000
   2  S      16.00    0.000000491    2.003071898    0.000000000
   3  H       1.00   -0.945951563   -0.526516287    0.000000000
   4  H       1.00   -1.439069605   -2.642006442    0.000000000

 Bond lengths in Bohr (Angstrom)

 1-2  2.527831153  2-3  2.700674299
     ( 1.337670639)     ( 1.429135293)

 Bond angles

  1-2-3   91.15221577

 NUCLEAR CHARGE:                   19
 NUMBER OF PRIMITIVE AOS:          63
 NUMBER OF SYMMETRY AOS:           62
 NUMBER OF CONTRACTIONS:           33   (   33A   )
 NUMBER OF INNER CORE ORBITALS:     1   (    1A   )
 NUMBER OF OUTER CORE ORBITALS:     4   (    4A   )
 NUMBER OF VALENCE ORBITALS:        7   (    7A   )


 NUCLEAR REPULSION ENERGY   16.45754430

 EXTRA SYMMETRY OF AOS IN SYMMETRY 1:   1 1 1 1 2 1 1 1 1 1   1 2 1 1 2 1 1 2 1 1   2 1 2 1 1 1 1 2 1 1   1 1 2

 Eigenvalues of metric

         1 0.103E-01 0.321E-01 0.588E-01 0.750E-01 0.914E-01 0.998E-01 0.103E+00 0.130E+00


 Contracted 2-electron integrals neglected if value below      1.0D-11
 AO integral compression algorithm  1   Integral accuracy      1.0D-11

     0.786 MB (compressed) written to integral file ( 35.0%)


 NUMBER OF SORTED TWO-ELECTRON INTEGRALS:     157641.     BUFFER LENGTH:  32768
 NUMBER OF SEGMENTS:   1  SEGMENT LENGTH:     157641      RECORD LENGTH: 524288

 Memory used in sort:       0.71 MW

 SORT1 READ      210135. AND WROTE       79530. INTEGRALS IN      1 RECORDS. CPU TIME:     0.00 SEC, REAL TIME:     0.01 SEC
 SORT2 READ       79530. AND WROTE      157641. INTEGRALS IN      3 RECORDS. CPU TIME:     0.01 SEC, REAL TIME:     0.01 SEC

 FILE SIZES:   FILE 1:    30.9 MBYTE,  FILE 4:     4.3 MBYTE,   TOTAL:     35.1 MBYTE

 OPERATOR DM      FOR CENTER  0  COORDINATES:    0.000000    0.000000    0.000000


 **********************************************************************************************************************************
 DATASETS  * FILE   NREC   LENGTH (MB)   RECORD NAMES
              1      19       29.08       500      610      700      900      950      970     1000      129      960     1100   
                                          VAR    BASINP    GEOM    SYMINP    ZMAT    AOBASIS   BASIS     P2S    ABASIS      S 
                                         1400     1410     1200     1210     1080     1600     1650     1300     1700   
                                           T        V       H0       H01     AOSYM     SMH    MOLCAS    ERIS     OPER   

 PROGRAMS   *        TOTAL       INT
 CPU TIMES  *         0.18      0.10
 REAL TIME  *         0.58 SEC
 DISK USED  *        33.86 MB
 **********************************************************************************************************************************


 Program * Unrestricted Hartree-Fock

 Orbital guess generated from atomic densities. Full valence occupancy:   12

 Initial alpha occupancy:  10
 Initial beta  occupancy:   9

 Elapsed time for starting guess:      0.00 sec

 NELEC=   19   SYM=1   MS2=1   THRE=1.0D-08   THRD=3.2D-06   THRG=3.2D-06  HFMA2=F  DIIS_START=2   DIIS_MAX=10   DIIS_INCORE=F

 Initial level shifts:    0.20 (ALPHA)    0.20 (BETA)

 ITER         ETOT            DE          GRAD         DDIFF    DIIS  NEXP   TIME(IT)  TIME(TOT)  DIAG
   1   -399.13847259  -399.13847259     0.00D+00     0.00D+00     0     0       0.01      0.01    start
   2   -399.16701071    -0.02853812     0.82D-02     0.24D+00     1     0       0.00      0.01    diag
   3   -399.17284222    -0.00583151     0.34D-02     0.19D-01     2     0       0.00      0.01    diag
   4   -399.17517358    -0.00233136     0.17D-02     0.67D-02     3     0       0.00      0.01    diag
   5   -399.17553586    -0.00036228     0.63D-03     0.47D-02     4     0       0.00      0.01    diag
   6   -399.17559777    -0.00006190     0.26D-03     0.18D-02     5     0       0.00      0.01    diag
   7   -399.17561404    -0.00001627     0.13D-03     0.68D-03     6     0       0.00      0.01    diag
   8   -399.17562021    -0.00000617     0.70D-04     0.32D-03     7     0       0.00      0.01    diag
   9   -399.17562168    -0.00000147     0.34D-04     0.20D-03     7     0       0.01      0.02    diag
  10   -399.17562194    -0.00000026     0.15D-04     0.96D-04     7     0       0.00      0.02    diag/ort
  11   -399.17562199    -0.00000005     0.63D-05     0.41D-04     8     0       0.00      0.02    diag
  12   -399.17562199    -0.00000001     0.25D-05     0.16D-04     8     0       0.00      0.02    diag
  13   -399.17562200    -0.00000000     0.11D-05     0.60D-05     8     0       0.00      0.02    diag

 Final alpha occupancy:  10
 Final beta  occupancy:   9

 !UHF STATE 1.1 Energy               -399.175621995146
  UHF One-electron energy            -584.127878041744
  UHF Two-electron energy             168.494711746489
  UHF Kinetic energy                  399.174502930739
  UHF Nuclear energy                   16.457544300110
  UHF Virial quotient                  -1.000002803447

 !UHF STATE 1.1 Dipole moment           0.22833216    -0.44596260     0.00000000
 Dipole moment /Debye                   0.58036247    -1.13352387     0.00000000

 EXPECTATION VALUE OF S**2:             0.77951921

 Orbital energies for positive spin:

           1.1          2.1          3.1          4.1          5.1          6.1          7.1          8.1          9.1         10.1
    -91.966650    -8.968942    -6.656545    -6.648910    -6.645889    -0.989517    -0.649882    -0.530936    -0.422540    -0.384994

          11.1         12.1
      0.163612     0.225786

 Orbital energies for negative spin:

           1.1          2.1          3.1          4.1          5.1          6.1          7.1          8.1          9.1         10.1
    -91.962898    -8.964839    -6.647204    -6.643687    -6.639670    -0.957055    -0.583211    -0.497796    -0.377323     0.028915

          11.1
      0.169057


 HOMO     -9.1    -0.377323 =     -10.2675eV
 LUMO    -10.1     0.028915 =       0.7868eV
 LUMO-HOMO         0.406238 =      11.0543eV

 Orbitals saved in record  2200.2

 Occupation number threshold for pseudo-canonical orbitals: 1.9990 (occupied), 0.0010 (virtual)

 Number of pseudo-canonical occupied orbitals per symmetry:    8
 Number of active natural orbitals per symmetry:               3

 Natural orbitals saved to record    2200.2 (Orbital set 3)

 Orbital spaces for UNO-CAS (Min. occupation: 0.020  Max. occupation: 1.980):

 Closed:        9
 Active:        1


 **********************************************************************************************************************************
 DATASETS  * FILE   NREC   LENGTH (MB)   RECORD NAMES
              1      19       29.08       500      610      700      900      950      970     1000      129      960     1100   
                                          VAR    BASINP    GEOM    SYMINP    ZMAT    AOBASIS   BASIS     P2S    ABASIS      S 
                                         1400     1410     1200     1210     1080     1600     1650     1300     1700   
                                           T        V       H0       H01     AOSYM     SMH    MOLCAS    ERIS     OPER   

              2       4        0.48       700     1000      520     2200   
                                         GEOM     BASIS   MCVARS     UHF  

              4       3        0.25      2900     3000     3100   

 PROGRAMS   *        TOTAL   UHF-SCF       INT
 CPU TIMES  *         0.20      0.02      0.10
 REAL TIME  *         0.72 SEC
 DISK USED  *        33.86 MB
 **********************************************************************************************************************************

 Dump information in style XML to xml output                                                                      

 Orbitals will not be exported.

 **********************************************************************************************************************************

 UHF/cc-pVDZ energy=   -399.175621995146

         UHF-SCF
   -399.17562200
 **********************************************************************************************************************************
 Molpro calculation terminated
