
 Working directory              : /var/folders/2v/xbgp75_9785319ghcgb4zr4r0000gp/T//molpro.uIDCufbgnH/
 Global scratch directory       : /var/folders/2v/xbgp75_9785319ghcgb4zr4r0000gp/T//molpro.uIDCufbgnH/
 Wavefunction directory         : /Users/sacpjk/wfu/
 Main file repository           : /var/folders/2v/xbgp75_9785319ghcgb4zr4r0000gp/T//molpro.uIDCufbgnH/

 id        : peterk

 Nodes                        nprocs
 Cardiff-University-G34YLXT77Y    1
 GA implementation: MPI file
 GA implementation (serial work in mppx): MPI file

 Using customized tuning parameters: mindgm=1; mindgv=20; mindgc=4; mindgr=1; noblas=0; minvec=7
 default implementation of scratch files=df  


 Variables initialized (1032), CPU time= 0.01 sec
 
 symmetry,nosym
 
 
 geometry={
           10
     N         -0.01234627     -0.59896192      0.85529092
     N          1.40057789     -0.67279174      0.69167556
     H          1.79109995      0.27896721      0.69866684
     H          1.54441784     -1.03380871     -0.25061935
     H         -0.15705127     -0.36055947      1.84025932
     N         -0.53592587      0.61236963      0.14949390
     N         -0.56764650      0.25608390     -1.24106417
     H         -1.49741565      0.67903911      0.50796923
     H         -0.56243275      1.12334217     -1.77149744
     H         -1.40327738     -0.28368017     -1.48017482
 }
 basis=cc-pVDZ
 
 
 
 hf; ccsd
 
 
 
 {put,xml;noorbitals,nobasis}
 Commands initialized (841), CPU time= 0.00 sec, 704 directives.
 Default parameters read. Elapsed time= 0.33 sec

 Checking input...
 Passed
1


                                         ***  PROGRAM SYSTEM MOLPRO  ***
                                       Copyright, TTI GmbH Stuttgart, 2015
                                    Version 2023.1 linked Tue Jun  6 09:54:11 2023


 **********************************************************************************************************************************
 LABEL *                                                                                                                                                                 
  64 bit serial version                                                                  DATE: 13-Jun-23          TIME: 04:27:23  
 **********************************************************************************************************************************

 SHA1:             8ebb0dd001088a5c915591db1a321413035db0b1
 **********************************************************************************************************************************

 Memory per process:       393 MW
 Total memory per node:    524 MW
 Total GA space:           131 MW

 GA preallocation disabled
 GA check enabled

 Variable memory set to 393.2 MW

 ZSYMEL=NOSYM


 Geometry recognized as XYZ

 SETTING BASIS          =    CC-PVDZ


 Recomputing integrals since basis changed


 Using spherical harmonics

 Library entry N      S cc-pVDZ              selected for orbital group  1
 Library entry N      P cc-pVDZ              selected for orbital group  1
 Library entry N      D cc-pVDZ              selected for orbital group  1
 Library entry H      S cc-pVDZ              selected for orbital group  2
 Library entry H      P cc-pVDZ              selected for orbital group  2


 PROGRAM * SEWARD (Integral evaluation for generally contracted gaussian basis sets)     Author: Roland Lindh, 1990

 Geometry written to block  1 of record 700


 Point group  C1  



 ATOMIC COORDINATES

 NR  ATOM    CHARGE       X              Y              Z

   1  N       7.00   -0.023331069   -1.131873988    1.616265596
   2  N       7.00    2.646708628   -1.271392128    1.307077375
   3  H       1.00    3.384688367    0.527171625    1.320288980
   4  H       1.00    2.918526740   -1.953615327   -0.473601933
   5  H       1.00   -0.296783888   -0.681358650    3.477586113
   6  N       7.00   -1.012753117    1.157210888    0.282502528
   7  N       7.00   -1.072696421    0.483928436   -2.345271384
   8  H       1.00   -2.829705473    1.283197946    0.959922724
   9  H       1.00   -1.062843861    2.122809046   -3.347644992
  10  H       1.00   -2.651809925   -0.536077828   -2.797125026

 Bond lengths in Bohr (Angstrom)

 1-2  2.691500446  1-5  1.934490781  1-6  2.828036329  2-3  1.944124536  2-4  1.926170392
     ( 1.424280699)     ( 1.023688436)     ( 1.496532377)     ( 1.028786400)     ( 1.019285476)

  6- 7  2.713318668   6- 8  1.943215563   7- 9  1.921140176   7-10  1.933438376
       ( 1.435826405)       ( 1.028305392)       ( 1.016623600)       ( 1.023131527)

 Bond angles

  1-2-3  109.13724386   1-2-4  105.34032100   1-6-7  105.28562075   1-6-8  102.42706416

  2-1-5  105.23817493   2-1-6  109.56354845   3-2-4  106.28301414   5-1-6  102.46387755

  6- 7- 9  107.06846047   6- 7-10  112.04217348   7- 6- 8  109.45389628   9- 7-10  109.40849251

 NUCLEAR CHARGE:                   34
 NUMBER OF PRIMITIVE AOS:         150
 NUMBER OF SYMMETRY AOS:          146
 NUMBER OF CONTRACTIONS:           86   (   86A   )
 NUMBER OF INNER CORE ORBITALS:     0   (    0A   )
 NUMBER OF OUTER CORE ORBITALS:     4   (    4A   )
 NUMBER OF VALENCE ORBITALS:       22   (   22A   )


 NUCLEAR REPULSION ENERGY  136.41879043

 Eigenvalues of metric

         1 0.490E-02 0.609E-02 0.132E-01 0.213E-01 0.295E-01 0.349E-01 0.368E-01 0.405E-01


 Contracted 2-electron integrals neglected if value below      1.0D-11
 AO integral compression algorithm  1   Integral accuracy      1.0D-11

     33.554 MB (compressed) written to integral file ( 52.8%)


 NUMBER OF SORTED TWO-ELECTRON INTEGRALS:    6999411.     BUFFER LENGTH:  32768
 NUMBER OF SEGMENTS:   1  SEGMENT LENGTH:    6999411      RECORD LENGTH: 524288

 Memory used in sort:       7.56 MW

 SORT1 READ     7917205. AND WROTE     6943073. INTEGRALS IN     20 RECORDS. CPU TIME:     0.05 SEC, REAL TIME:     0.07 SEC
 SORT2 READ     6943073. AND WROTE     6999411. INTEGRALS IN    128 RECORDS. CPU TIME:     0.08 SEC, REAL TIME:     0.10 SEC

 FILE SIZES:   FILE 1:    64.0 MBYTE,  FILE 4:    84.0 MBYTE,   TOTAL:    147.9 MBYTE

 OPERATOR DM      FOR CENTER  0  COORDINATES:    0.000000    0.000000    0.000000


 **********************************************************************************************************************************
 DATASETS  * FILE   NREC   LENGTH (MB)   RECORD NAMES
              1      19       56.91       500      610      700      900      950      970     1000      129      960     1100   
                                          VAR    BASINP    GEOM    SYMINP    ZMAT    AOBASIS   BASIS     P2S    ABASIS      S 
                                         1400     1410     1200     1210     1080     1600     1650     1300     1700   
                                           T        V       H0       H01     AOSYM     SMH    MOLCAS    ERIS     OPER   

 PROGRAMS   *        TOTAL       INT
 CPU TIMES  *         0.63      0.54
 REAL TIME  *         1.79 SEC
 DISK USED  *       141.56 MB
 **********************************************************************************************************************************


 Program * Restricted Hartree-Fock

 Orbital guess generated from atomic densities. Full valence occupancy:   26

 Initial occupancy:  17

 NELEC=   34   SYM=1   MS2= 0   THRE=1.0D-08   THRD=3.2D-06   THRG=3.2D-06  HFMA2=F  DIIS_START=2   DIIS_MAX=10   DIIS_INCORE=F

 Level shifts:    0.00 (CLOSED)    0.00 (OPEN)    0.30 (GAP_MIN)

 ITER           ETOT              DE          GRAD        DDIFF     DIIS  NEXP   TIME(IT)  TIME(TOT)  DIAG
   1     -221.13313533    -221.13313533     0.00D+00     0.12D+00     0     0       0.03      0.06    start
   2     -221.17963939      -0.04650406     0.62D-02     0.12D-01     1     0       0.03      0.09    diag
   3     -221.18405570      -0.00441630     0.20D-02     0.37D-02     2     0       0.03      0.12    diag
   4     -221.18493211      -0.00087641     0.82D-03     0.14D-02     3     0       0.03      0.15    diag
   5     -221.18499536      -0.00006325     0.16D-03     0.38D-03     4     0       0.04      0.19    diag
   6     -221.18500129      -0.00000593     0.41D-04     0.12D-03     5     0       0.03      0.22    diag
   7     -221.18500200      -0.00000072     0.17D-04     0.40D-04     6     0       0.03      0.25    diag
   8     -221.18500209      -0.00000009     0.51D-05     0.15D-04     7     0       0.03      0.28    fixocc
   9     -221.18500209      -0.00000000     0.13D-05     0.30D-05     8     0       0.03      0.31    diag
  10     -221.18500209      -0.00000000     0.47D-06     0.10D-05     0     0       0.03      0.34    diag/orth

 Final occupancy:  17

 !RHF STATE 1.1 Energy               -221.185002094704
  RHF One-electron energy            -571.779082370247
  RHF Two-electron energy             214.175289848550
  RHF Kinetic energy                  220.769666719658
  RHF Nuclear energy                  136.418790426994
  RHF Virial quotient                  -1.001881306346

 !RHF STATE 1.1 Dipole moment          -0.76833430     0.66704662    -0.29643765
 Dipole moment /Debye                  -1.95291101     1.69546338    -0.75346935

 Orbital energies:

           1.1          2.1          3.1          4.1          5.1          6.1          7.1          8.1          9.1         10.1
    -15.607045   -15.599519   -15.575562   -15.559935    -1.319975    -1.207310    -1.047886    -0.911960    -0.702367    -0.683871

          11.1         12.1         13.1         14.1         15.1         16.1         17.1         18.1         19.1
     -0.647963    -0.606234    -0.571978    -0.489283    -0.422936    -0.397802    -0.362541     0.179726     0.210301


 HOMO     17.1    -0.362541 =      -9.8652eV
 LUMO     18.1     0.179726 =       4.8906eV
 LUMO-HOMO         0.542267 =      14.7558eV

 Orbitals saved in record  2100.2


 **********************************************************************************************************************************
 DATASETS  * FILE   NREC   LENGTH (MB)   RECORD NAMES
              1      19       56.91       500      610      700      900      950      970     1000      129      960     1100   
                                          VAR    BASINP    GEOM    SYMINP    ZMAT    AOBASIS   BASIS     P2S    ABASIS      S 
                                         1400     1410     1200     1210     1080     1600     1650     1300     1700   
                                           T        V       H0       H01     AOSYM     SMH    MOLCAS    ERIS     OPER   

              2       4        0.65       700     1000      520     2100   
                                         GEOM     BASIS   MCVARS     RHF  

 PROGRAMS   *        TOTAL    HF-SCF       INT
 CPU TIMES  *         0.97      0.34      0.54
 REAL TIME  *         2.54 SEC
 DISK USED  *       141.56 MB
 **********************************************************************************************************************************


 PROGRAM * CCSD (Closed-shell coupled cluster)     Authors: C. Hampel, H.-J. Werner, 1991, M. Deegan, P.J. Knowles, 1992


 Convergence thresholds:  THRVAR = 1.00D-08  THRDEN = 1.00D-06

 Number of core orbitals:           4 (   4 )
 Number of closed-shell orbitals:  13 (  13 )
 Number of external orbitals:      69 (  69 )

 Molecular orbitals read from record     2100.2  Type=RHF/CANONICAL  

 Number of N-1 electron functions:              13
 Number of N-2 electron functions:              91
 Number of singly external CSFs:               897
 Number of doubly external CSFs:            402753
 Total number of CSFs:                      403651

 Length of J-op  integral file:               0.00 MB
 Length of K-op  integral file:               0.57 MB
 Length of 3-ext integral record:             0.00 MB

 Integral transformation finished. Total CPU:   0.26 sec, npass=  1  Memory used:   5.80 MW

 Reference energy:                   -221.18500209

 MP2 singlet pair energy:              -0.43184585
 MP2 triplet pair energy:              -0.25933108
 MP2 correlation energy:               -0.69117692
 MP2 total energy:                   -221.87617902

 SCS-MP2 correlation energy:           -0.67957658   (PS=  1.200000  PT=  0.333333)
 SCS-MP2 total energy:               -221.86457867

 ITER.      SQ.NORM     CORR.ENERGY   TOTAL ENERGY   ENERGY CHANGE        DEN1      VAR(S)    VAR(P)  DIIS     TIME  TIME/IT
   1      1.22463880    -0.72629769  -221.91129979    -0.03512077    -0.01751396  0.22D-02  0.37D-02  1  1     1.95     0.64
   2      1.24193852    -0.73039108  -221.91539317    -0.00409339    -0.01814110  0.56D-04  0.45D-03  2  2     2.62     0.73
   3      1.24704912    -0.73063618  -221.91563828    -0.00024510    -0.00298206  0.46D-04  0.24D-04  3  3     3.29     0.77
   4      1.24874289    -0.73069241  -221.91569451    -0.00005623    -0.00070410  0.44D-05  0.34D-05  4  4     3.92     0.76
   5      1.24928393    -0.73070140  -221.91570349    -0.00000898    -0.00013861  0.14D-05  0.36D-06  5  5     4.61     0.76
   6      1.24948939    -0.73069250  -221.91569459     0.00000890    -0.00002922  0.19D-06  0.49D-07  6  6     5.28     0.78
   7      1.24955053    -0.73069086  -221.91569296     0.00000164    -0.00000291  0.14D-07  0.11D-07  6  2     5.96     0.81
   8      1.24957016    -0.73069000  -221.91569210     0.00000086    -0.00000204  0.23D-08  0.11D-08  6  1     6.60     0.81
   9      1.24957373    -0.73068992  -221.91569201     0.00000008     0.00000089  0.39D-09  0.17D-09  6  4     7.26     0.80

 Norm of t1 vector:      0.07225372      S-energy:     0.00000011      T1 diagnostic:  0.01001979
                                                                       D1 diagnostic:  0.02806508
                                                                       D2 diagnostic:  0.15421789 (internal)


 RESULTS
 =======

  Reference energy                   -221.185002094703
  CCSD singlet pair energy             -0.499652109458
  CCSD triplet pair energy             -0.231037921649
  CCSD correlation energy              -0.730689918927

 !CCSD total energy                  -221.915692013631

 Timing summary (sec):

 STEP                 CPU(USER)    SYS     CPU(TOT)    WALL
 Transformation          0.28      0.05      0.33      0.49
 CCSD iterations         7.02      0.38      7.40      7.45

 Program statistics:

 Available memory in ccsd:               393215307
 Min. memory needed in ccsd:               1141972
 Max. memory used in ccsd:                 1479972
 Max. memory used in cckext:               1454933 ( 9 integral passes)



 **********************************************************************************************************************************
 DATASETS  * FILE   NREC   LENGTH (MB)   RECORD NAMES
              1      20       81.29       500      610      700      900      950      970     1000      129      960     1100   
                                          VAR    BASINP    GEOM    SYMINP    ZMAT    AOBASIS   BASIS     P2S    ABASIS      S 
                                         1400     1410     1200     1210     1080     1600     1650     1300     1700     1380   
                                           T        V       H0       H01     AOSYM     SMH    MOLCAS    ERIS     OPER     JKOP   

              2       4        0.65       700     1000      520     2100   
                                         GEOM     BASIS   MCVARS     RHF  

 PROGRAMS   *        TOTAL      CCSD    HF-SCF       INT
 CPU TIMES  *         7.20      6.23      0.34      0.54
 REAL TIME  *        10.60 SEC
 DISK USED  *       149.50 MB
 **********************************************************************************************************************************

 Dump information in style XML to xml output                                                                      

 Orbitals will not be exported.

 **********************************************************************************************************************************

 CCSD/cc-pVDZ energy=   -221.915692013631

            CCSD          HF-SCF
   -221.91569201   -221.18500209
 **********************************************************************************************************************************
 Molpro calculation terminated
