
 Working directory              : /var/folders/2v/xbgp75_9785319ghcgb4zr4r0000gp/T//molpro.V1nb3YdeXr/
 Global scratch directory       : /var/folders/2v/xbgp75_9785319ghcgb4zr4r0000gp/T//molpro.V1nb3YdeXr/
 Wavefunction directory         : /Users/sacpjk/wfu/
 Main file repository           : /var/folders/2v/xbgp75_9785319ghcgb4zr4r0000gp/T//molpro.V1nb3YdeXr/

 id        : peterk

 Nodes                        nprocs
 Cardiff-University-G34YLXT77Y    1
 GA implementation: MPI file
 GA implementation (serial work in mppx): MPI file

 Using customized tuning parameters: mindgm=1; mindgv=20; mindgc=4; mindgr=1; noblas=0; minvec=7
 default implementation of scratch files=df  


 Variables initialized (1032), CPU time= 0.01 sec
 
 symmetry,nosym
 
 
 geometry={
 7
  n          0.124569655278   -0.403187953202   -0.817004660257
  h          1.114969132486   -0.615403079114   -0.845077133339
  h         -0.350417919872   -1.292734282935   -0.740169479530
  c         -0.157761603644    0.398564064054    0.371229986595
  h         -1.223605732468    0.612872378618    0.421017437514
  h          0.137231318991   -0.055096893267    1.323201890510
  h          0.355015149071    1.354985766005    0.286801958507
 }
 basis=aug-cc-pVTZ
 
 
 
 hf; hf; papt; mp3
 
 
 
 {put,xml;noorbitals,nobasis}
 Commands initialized (841), CPU time= 0.00 sec, 704 directives.
 Default parameters read. Elapsed time= 0.18 sec

 Checking input...
 Passed
1


                                         ***  PROGRAM SYSTEM MOLPRO  ***
                                       Copyright, TTI GmbH Stuttgart, 2015
                                    Version 2023.1 linked Tue Jun  6 09:54:11 2023


 **********************************************************************************************************************************
 LABEL *                                                                                                                                                                 
  64 bit serial version                                                                  DATE: 09-Jun-23          TIME: 01:14:44  
 **********************************************************************************************************************************

 SHA1:             8ebb0dd001088a5c915591db1a321413035db0b1
 **********************************************************************************************************************************

 Memory per process:       805 MW
 Total memory per node:   1074 MW
 Total GA space:           268 MW

 GA preallocation disabled
 GA check enabled

 Variable memory set to 805.3 MW

 ZSYMEL=NOSYM


 Geometry recognized as XYZ

 SETTING BASIS          =    AUG-CC-PVTZ


 Recomputing integrals since basis changed


 Using spherical harmonics

 Library entry N      S aug-cc-pVTZ          selected for orbital group  1
 Library entry N      P aug-cc-pVTZ          selected for orbital group  1
 Library entry N      D aug-cc-pVTZ          selected for orbital group  1
 Library entry N      F aug-cc-pVTZ          selected for orbital group  1
 Library entry H      S aug-cc-pVTZ          selected for orbital group  2
 Library entry H      P aug-cc-pVTZ          selected for orbital group  2
 Library entry H      D aug-cc-pVTZ          selected for orbital group  2
 Library entry C      S aug-cc-pVTZ          selected for orbital group  3
 Library entry C      P aug-cc-pVTZ          selected for orbital group  3
 Library entry C      D aug-cc-pVTZ          selected for orbital group  3
 Library entry C      F aug-cc-pVTZ          selected for orbital group  3


 PROGRAM * SEWARD (Integral evaluation for generally contracted gaussian basis sets)     Author: Roland Lindh, 1990

 Geometry written to block  1 of record 700


 Point group  C1  



 ATOMIC COORDINATES

 NR  ATOM    CHARGE       X              Y              Z

   1  N       7.00    0.235402532   -0.761914808   -1.543915050
   2  H       1.00    2.106986298   -1.162943276   -1.596964336
   3  H       1.00   -0.662193898   -2.442913747   -1.398717602
   4  C       6.00   -0.298126224    0.753176924    0.701523004
   5  H       1.00   -2.312279719    1.158160945    0.795607651
   6  H       1.00    0.259329609   -0.104118039    2.500489181
   7  H       1.00    0.670881402    2.560552001    0.541977154

 Bond lengths in Bohr (Angstrom)

 1-2  1.914801256  1-3  1.911156477  1-4  2.760823780  4-5  2.056618166  4-6  2.069297215
     ( 1.013269188)     ( 1.011340454)     ( 1.460965028)     ( 1.088315465)     ( 1.095024929)

 4-7  2.056948060
     ( 1.088490038)

 Bond angles

  1-4-5  109.54406629   1-4-6  115.31871979   1-4-7  109.15197352   2-1-3  106.07836562

  2-1-4  109.04774565   3-1-4  109.27730371   5-4-6  107.79679288   5-4-7  106.97091570

  6-4-7  107.73101274

 NUCLEAR CHARGE:                   18
 NUMBER OF PRIMITIVE AOS:         269
 NUMBER OF SYMMETRY AOS:          241
 NUMBER OF CONTRACTIONS:          207   (  207A   )
 NUMBER OF INNER CORE ORBITALS:     0   (    0A   )
 NUMBER OF OUTER CORE ORBITALS:     2   (    2A   )
 NUMBER OF VALENCE ORBITALS:       13   (   13A   )


 NUCLEAR REPULSION ENERGY   42.10593245

 Eigenvalues of metric

         1 0.393E-04 0.619E-04 0.643E-04 0.136E-03 0.156E-03 0.246E-03 0.391E-03 0.649E-03


 Contracted 2-electron integrals neglected if value below      1.0D-12
 AO integral compression algorithm  1   Integral accuracy      1.0D-12

     1336.934 MB (compressed) written to integral file ( 62.5%)


 NUMBER OF SORTED TWO-ELECTRON INTEGRALS:  231738156.     BUFFER LENGTH:  32768
 NUMBER OF SEGMENTS:  15  SEGMENT LENGTH:   15999503      RECORD LENGTH: 524288

 Memory used in sort:      16.56 MW

 SORT1 READ   267401021. AND WROTE   230488972. INTEGRALS IN    665 RECORDS. CPU TIME:     1.84 SEC, REAL TIME:     2.62 SEC
 SORT2 READ   230488972. AND WROTE   231738156. INTEGRALS IN   5100 RECORDS. CPU TIME:     1.46 SEC, REAL TIME:     1.96 SEC

 FILE SIZES:   FILE 1:  1368.6 MBYTE,  FILE 4:  2789.3 MBYTE,   TOTAL:   4157.9 MBYTE

 OPERATOR DM      FOR CENTER  0  COORDINATES:    0.000000    0.000000    0.000000


 **********************************************************************************************************************************
 DATASETS  * FILE   NREC   LENGTH (MB)   RECORD NAMES
              1      19     1161.59       500      610      700      900      950      970     1000      129      960     1100   
                                          VAR    BASINP    GEOM    SYMINP    ZMAT    AOBASIS   BASIS     P2S    ABASIS      S 
                                         1400     1410     1200     1210     1080     1600     1650     1300     1700   
                                           T        V       H0       H01     AOSYM     SMH    MOLCAS    ERIS     OPER   

 PROGRAMS   *        TOTAL       INT
 CPU TIMES  *         8.09      7.99
 REAL TIME  *        13.81 SEC
 DISK USED  *         3.87 GB
 **********************************************************************************************************************************


 Program * Restricted Hartree-Fock

 Orbital guess generated from atomic densities. Full valence occupancy:   15

 Initial occupancy:   9

 NELEC=   18   SYM=1   MS2= 0   THRE=1.0D-08   THRD=3.2D-06   THRG=3.2D-06  HFMA2=F  DIIS_START=2   DIIS_MAX=10   DIIS_INCORE=F

 Level shifts:    0.00 (CLOSED)    0.00 (OPEN)    0.30 (GAP_MIN)

 ITER           ETOT              DE          GRAD        DDIFF     DIIS  NEXP   TIME(IT)  TIME(TOT)  DIAG
   1      -95.22537461     -95.22537461     0.00D+00     0.41D-01     0     0       1.11      2.07    start
   2      -95.25106579      -0.02569118     0.37D-02     0.43D-02     1     0       1.04      3.11    diag
   3      -95.25483812      -0.00377233     0.16D-02     0.12D-02     2     0       1.04      4.15    diag
   4      -95.25535965      -0.00052152     0.46D-03     0.42D-03     3     0       1.21      5.36    diag
   5      -95.25538599      -0.00002635     0.89D-04     0.80D-04     4     0       1.15      6.51    diag
   6      -95.25538770      -0.00000170     0.21D-04     0.24D-04     5     0       1.14      7.65    diag
   7      -95.25538782      -0.00000012     0.60D-05     0.66D-05     6     0       1.16      8.81    diag
   8      -95.25538783      -0.00000001     0.16D-05     0.27D-05     7     0       1.09      9.90    fixocc
   9      -95.25538784      -0.00000000     0.41D-06     0.78D-06     8     0       1.09     10.99    diag
  10      -95.25538784      -0.00000000     0.88D-07     0.88D-07     0     0       1.04     12.03    diag/orth

 Final occupancy:   9

 !RHF STATE 1.1 Energy                -95.255387835392
  RHF One-electron energy            -211.559447236824
  RHF Two-electron energy              74.198126956341
  RHF Kinetic energy                   95.126823682826
  RHF Nuclear energy                   42.105932445091
  RHF Virial quotient                  -1.001351502632

 !RHF STATE 1.1 Dipole moment           0.16873248    -0.29237466     0.45791349
 Dipole moment /Debye                   0.42887518    -0.74314226     1.16389999

 Orbital energies:

           1.1          2.1          3.1          4.1          5.1          6.1          7.1          8.1          9.1         10.1
    -15.540490   -11.240251    -1.172054    -0.895786    -0.662927    -0.604370    -0.555711    -0.516107    -0.393900     0.029440

          11.1
      0.042824


 HOMO      9.1    -0.393900 =     -10.7186eV
 LUMO     10.1     0.029440 =       0.8011eV
 LUMO-HOMO         0.423341 =      11.5197eV

 Orbitals saved in record  2100.2


 **********************************************************************************************************************************
 DATASETS  * FILE   NREC   LENGTH (MB)   RECORD NAMES
              1      19     1161.59       500      610      700      900      950      970     1000      129      960     1100   
                                          VAR    BASINP    GEOM    SYMINP    ZMAT    AOBASIS   BASIS     P2S    ABASIS      S 
                                         1400     1410     1200     1210     1080     1600     1650     1300     1700   
                                           T        V       H0       H01     AOSYM     SMH    MOLCAS    ERIS     OPER   

              2       4        1.16       700     1000      520     2100   
                                         GEOM     BASIS   MCVARS     RHF  

 PROGRAMS   *        TOTAL    HF-SCF       INT
 CPU TIMES  *        20.12     12.04      7.99
 REAL TIME  *        30.79 SEC
 DISK USED  *         3.87 GB
 **********************************************************************************************************************************


 Program * Restricted Hartree-Fock

 Molecular orbitals read from record     2100.2  Type=RHF/CANONICAL  

 Initial occupancy:   9

 NELEC=   18   SYM=1   MS2= 0   THRE=1.0D-08   THRD=3.2D-06   THRG=3.2D-06  HFMA2=F  DIIS_START=2   DIIS_MAX=10   DIIS_INCORE=F

 Level shifts:    0.00 (CLOSED)    0.00 (OPEN)    0.30 (GAP_MIN)

 ITER           ETOT              DE          GRAD        DDIFF     DIIS  NEXP   TIME(IT)  TIME(TOT)  DIAG
   1      -95.25538784     -95.25538784     0.00D+00     0.42D-01     0     0       1.01      1.01    start
   2      -95.25538784      -0.00000000     0.41D-07     0.43D-07     1     0       1.03      2.04    diag

 Final occupancy:   9

 !RHF STATE 1.1 Energy                -95.255387835401
  RHF One-electron energy            -211.559449982842
  RHF Two-electron energy              74.198129702351
  RHF Kinetic energy                   95.126824088642
  RHF Nuclear energy                   42.105932445091
  RHF Virial quotient                  -1.001351498360

 !RHF STATE 1.1 Dipole moment           0.16873283    -0.29237515     0.45791511
 Dipole moment /Debye                   0.42887608    -0.74314351     1.16390411

 Orbital energies:

           1.1          2.1          3.1          4.1          5.1          6.1          7.1          8.1          9.1         10.1
    -15.540490   -11.240251    -1.172054    -0.895786    -0.662927    -0.604370    -0.555711    -0.516107    -0.393901     0.029440

          11.1
      0.042824


 HOMO      9.1    -0.393901 =     -10.7186eV
 LUMO     10.1     0.029440 =       0.8011eV
 LUMO-HOMO         0.423341 =      11.5197eV

 Orbitals saved in record  2101.2


 **********************************************************************************************************************************
 DATASETS  * FILE   NREC   LENGTH (MB)   RECORD NAMES
              1      19     1161.59       500      610      700      900      950      970     1000      129      960     1100   
                                          VAR    BASINP    GEOM    SYMINP    ZMAT    AOBASIS   BASIS     P2S    ABASIS      S 
                                         1400     1410     1200     1210     1080     1600     1650     1300     1700   
                                           T        V       H0       H01     AOSYM     SMH    MOLCAS    ERIS     OPER   

              2       5        2.41       700     1000      520     2100     2101   
                                         GEOM     BASIS   MCVARS     RHF      RHF  

 PROGRAMS   *        TOTAL    HF-SCF    HF-SCF       INT
 CPU TIMES  *        22.18      2.06     12.04      7.99
 REAL TIME  *        35.06 SEC
 DISK USED  *         3.87 GB
 **********************************************************************************************************************************


 PROGRAM * PAPT (Closed-shell)     Authors: C. Hampel, H.-J. Werner, 1991, P.J. Knowles, 2021


 Convergence thresholds:  THRVAR = 1.00D-08  THRDEN = 1.00D-06

 Number of core orbitals:           2 (   2 )
 Number of closed-shell orbitals:   7 (   7 )
 Number of external orbitals:     198 ( 198 )

 Molecular orbitals read from record     2101.2  Type=RHF/CANONICAL  

 Number of N-1 electron functions:               7
 Number of N-2 electron functions:              28
 Number of singly external CSFs:              1386
 Number of doubly external CSFs:            961191
 Total number of CSFs:                      962578

 Length of J-op  integral file:               0.00 MB
 Length of K-op  integral file:               3.00 MB

 Integral transformation finished. Total CPU:   1.53 sec, npass=  1  Memory used:   2.95 MW

 Reference energy:                    -95.25538784

                        CORR.ENERGY   TOTAL ENERGY   ENERGY CHANGE
 MP2:                   -0.41170855   -95.66709639    -0.41170855

 SCS-MP2 correlation energy:           -0.41613896   (PS=  1.200000  PT=  0.333333)
 SCS-MP2 total energy:                -95.67152680
 Iteration:   1     0.1812D+00
 Iteration:   2     0.2218D+00
 Iteration:   3     0.3889D-01
 Iteration:   4     0.3283D-01
 Iteration:   5     0.2504D-01
 Iteration:   6     0.7714D-02
 Iteration:   7     0.2631D+00
 Iteration:   8     0.2810D-02
 Iteration:   9     0.2638D-02
 Iteration:  10     0.2774D-02
 Iteration:  11     0.1064D-02
 Iteration:  12     0.3849D-01
 Iteration:  13     0.3864D-03
 Iteration:  14     0.3697D-03
 Iteration:  15     0.4193D-03
 Iteration:  16     0.9985D-04
 PAPT operator written to  7000.1
 PAPT orbitals and eigenvalues written to  7000.2

 MP3(D):                -0.43294808   -95.68833592    -0.02123953



 RESULTS
 =======

  Reference energy                    -95.255387835401
  MP3 singlet pair energy              -0.304311649761
  MP3 triplet pair energy              -0.128636433564
  MP3 correlation energy               -0.432948083325

 !MP3 total energy                    -95.688335918726

 Timing summary (sec):

 STEP                 CPU(USER)    SYS     CPU(TOT)    WALL
 Transformation          1.57      0.20      1.77      2.22
 CCSD iterations        25.89      0.32     26.21      8.19

 Program statistics:

 Available memory in ccsd:               805306163
 Min. memory needed in ccsd:               3040312
 Max. memory used in ccsd:                 3839467
 Max. memory used in cckext:               2734686 ( 1 integral passes)



 **********************************************************************************************************************************
 DATASETS  * FILE   NREC   LENGTH (MB)   RECORD NAMES
              1      21     1176.16       500      610      700      900      950      970     1000      129      960     1100   
                                          VAR    BASINP    GEOM    SYMINP    ZMAT    AOBASIS   BASIS     P2S    ABASIS      S 
                                         1400     1410     1200     1210     1080     1600     1650     1300     1700     1380   
                                           T        V       H0       H01     AOSYM     SMH    MOLCAS    ERIS     OPER     JKOP   
                                         7000   
                                        PAPT AO    

              2       6        3.49       700     1000      520     2100     2101     7000   
                                         GEOM     BASIS   MCVARS     RHF      RHF     PAPT   

 PROGRAMS   *        TOTAL      PAPT    HF-SCF    HF-SCF       INT
 CPU TIMES  *        27.37      5.19      2.06     12.04      7.99
 REAL TIME  *        46.09 SEC
 DISK USED  *         3.87 GB
 **********************************************************************************************************************************


 PROGRAM * MP3 (Closed-shell)     Authors: C. Hampel, H.-J. Werner, 1991, M. Deegan, P.J. Knowles, 1992


 Convergence thresholds:  THRVAR = 1.00D-08  THRDEN = 1.00D-06

 Number of core orbitals:           2 (   2 )
 Number of closed-shell orbitals:   7 (   7 )
 Number of external orbitals:     198 ( 198 )

 Molecular orbitals read from record     7000.2  Type=PAPT/CANONICAL (state 1.1)

 Number of N-1 electron functions:               7
 Number of N-2 electron functions:              28
 Number of singly external CSFs:              1386
 Number of doubly external CSFs:            961191
 Total number of CSFs:                      962578

 Length of J-op  integral file:               0.00 MB
 Length of K-op  integral file:               3.00 MB

 Integral transformation finished. Total CPU:   1.78 sec, npass=  1  Memory used:   2.95 MW
 Orbital energies read from record       7000.2  Type=PAPT/CANONICAL (state 1.1)

 Reference energy:                    -95.25538784

                        CORR.ENERGY   TOTAL ENERGY   ENERGY CHANGE
 MP2:                   -0.43770999   -95.69309782    -0.43770999

 SCS-MP2 correlation energy:           -0.44420864   (PS=  1.200000  PT=  0.333333)
 SCS-MP2 total energy:                -95.69959647

 MP3(D):                -0.43791443   -95.69330227    -0.00020444



 RESULTS
 =======

  Reference energy                    -95.255387835401
  MP3 singlet pair energy              -0.309804986403
  MP3 triplet pair energy              -0.128109443973
  MP3 correlation energy               -0.437914430375

 !MP3 total energy                    -95.693302265777

 Timing summary (sec):

 STEP                 CPU(USER)    SYS     CPU(TOT)    WALL
 Transformation          3.05      0.36      3.41      3.89
 CCSD iterations        30.09      0.20     30.29      3.61

 Program statistics:

 Available memory in ccsd:               805306163
 Min. memory needed in ccsd:               3040312
 Max. memory used in ccsd:                 3839467
 Max. memory used in cckext:               2734686 ( 1 integral passes)



 **********************************************************************************************************************************
 DATASETS  * FILE   NREC   LENGTH (MB)   RECORD NAMES
              1      21     1176.16       500      610      700      900      950      970     1000      129      960     1100   
                                          VAR    BASINP    GEOM    SYMINP    ZMAT    AOBASIS   BASIS     P2S    ABASIS      S 
                                         1400     1410     1200     1210     1080     1600     1650     1300     1700     1380   
                                           T        V       H0       H01     AOSYM     SMH    MOLCAS    ERIS     OPER     JKOP   
                                         7000   
                                        PAPT AO    

              2       6        3.49       700     1000      520     2100     2101     7000   
                                         GEOM     BASIS   MCVARS     RHF      RHF     PAPT   

 PROGRAMS   *        TOTAL       MP3      PAPT    HF-SCF    HF-SCF       INT
 CPU TIMES  *        33.05      5.67      5.19      2.06     12.04      7.99
 REAL TIME  *        54.42 SEC
 DISK USED  *         3.87 GB
 **********************************************************************************************************************************

 Dump information in style XML to xml output                                                                      

 Orbitals will not be exported.

 **********************************************************************************************************************************

 MP3/aug-cc-pVTZ energy=    -95.693302265777

             MP3            PAPT          HF-SCF          HF-SCF
    -95.69330227    -95.68833592    -95.25538784    -95.25538784
 **********************************************************************************************************************************
 Molpro calculation terminated
