
 Working directory              : /var/folders/2v/xbgp75_9785319ghcgb4zr4r0000gp/T//molpro.4ZrOfgezsu/
 Global scratch directory       : /var/folders/2v/xbgp75_9785319ghcgb4zr4r0000gp/T//molpro.4ZrOfgezsu/
 Wavefunction directory         : /Users/sacpjk/wfu/
 Main file repository           : /var/folders/2v/xbgp75_9785319ghcgb4zr4r0000gp/T//molpro.4ZrOfgezsu/

 id        : peterk

 Nodes                        nprocs
 Cardiff-University-G34YLXT77Y    1
 GA implementation: MPI file
 GA implementation (serial work in mppx): MPI file

 Using customized tuning parameters: mindgm=1; mindgv=20; mindgc=4; mindgr=1; noblas=0; minvec=7
 default implementation of scratch files=df  


 Variables initialized (1032), CPU time= 0.00 sec
 
 symmetry,nosym
 
 
 geometry={
 9
  o         -0.922075427238    0.661035175532   -0.004511951808
  h          0.042193368987    0.628562630671   -0.004158221689
  c         -1.383504346250   -0.674416801454    0.003760788250
  h         -2.469790848305   -0.643030365379    0.002898366921
  h         -1.061479151022   -1.233901361304   -0.877768215069
  h         -1.062541236219   -1.222596147687    0.892753686953
  o          1.993369735639    0.564530130397   -0.002063767774
  h          2.432573874862    0.952682329557   -0.761936449984
  h          2.431254029544    0.967134409455    0.751025764305
 }
 basis=aug-cc-pVDZ
 
 
 
 hf; mp4
 
 
 
 {put,xml;noorbitals,nobasis}
 Commands initialized (841), CPU time= 0.01 sec, 704 directives.
 Default parameters read. Elapsed time= 0.09 sec

 Checking input...
 Passed
1


                                         ***  PROGRAM SYSTEM MOLPRO  ***
                                       Copyright, TTI GmbH Stuttgart, 2015
                                    Version 2023.1 linked Tue Jun  6 09:54:11 2023


 **********************************************************************************************************************************
 LABEL *                                                                                                                                                                 
  64 bit serial version                                                                  DATE: 08-Jun-23          TIME: 21:50:46  
 **********************************************************************************************************************************

 SHA1:             8ebb0dd001088a5c915591db1a321413035db0b1
 **********************************************************************************************************************************

 Memory per process:       805 MW
 Total memory per node:   1074 MW
 Total GA space:           268 MW

 GA preallocation disabled
 GA check enabled

 Variable memory set to 805.3 MW

 ZSYMEL=NOSYM


 Geometry recognized as XYZ

 SETTING BASIS          =    AUG-CC-PVDZ


 Recomputing integrals since basis changed


 Using spherical harmonics

 Library entry O      S aug-cc-pVDZ          selected for orbital group  1
 Library entry O      P aug-cc-pVDZ          selected for orbital group  1
 Library entry O      D aug-cc-pVDZ          selected for orbital group  1
 Library entry H      S aug-cc-pVDZ          selected for orbital group  2
 Library entry H      P aug-cc-pVDZ          selected for orbital group  2
 Library entry C      S aug-cc-pVDZ          selected for orbital group  3
 Library entry C      P aug-cc-pVDZ          selected for orbital group  3
 Library entry C      D aug-cc-pVDZ          selected for orbital group  3


 PROGRAM * SEWARD (Integral evaluation for generally contracted gaussian basis sets)     Author: Roland Lindh, 1990

 Geometry written to block  1 of record 700


 Point group  C1  



 ATOMIC COORDINATES

 NR  ATOM    CHARGE       X              Y              Z

   1  O       8.00   -1.742470024    1.249175440   -0.008526353
   2  H       1.00    0.079733912    1.187811224   -0.007857900
   3  C       6.00   -2.614444307   -1.274463049    0.007106860
   4  H       1.00   -4.667228288   -1.215151280    0.005477120
   5  H       1.00   -2.005904882   -2.331735638   -1.658741527
   6  H       1.00   -2.007911933   -2.310371880    1.687059965
   7  O       8.00    3.766922865    1.066807336   -0.003899956
   8  H       1.00    4.596898401    1.800308687   -1.439851215
   9  H       1.00    4.594404255    1.827619160    1.419233007

 Bond lengths in Bohr (Angstrom)

 1-2  1.823237010  1-3  2.670081417  3-4  2.053641307  3-5  2.064750931  3-6  2.064759324
     ( 0.964815476)     ( 1.412946237)     ( 1.086740179)     ( 1.092619139)     ( 1.092623580)

 7-8  1.813515823  7-9  1.813523507
     ( 0.959671245)     ( 0.959675312)

 Bond angles

  1-3-4  107.40559297   1-3-5  112.51964703   1-3-6  112.52114044   2-1-3  107.13200477

  4-3-5  107.98411746   4-3-6  107.98497415   5-3-6  108.23763290   8-7-9  104.05491273

 NUCLEAR CHARGE:                   28
 NUMBER OF PRIMITIVE AOS:         177
 NUMBER OF SYMMETRY AOS:          171
 NUMBER OF CONTRACTIONS:          123   (  123A   )
 NUMBER OF INNER CORE ORBITALS:     0   (    0A   )
 NUMBER OF OUTER CORE ORBITALS:     3   (    3A   )
 NUMBER OF VALENCE ORBITALS:       18   (   18A   )


 NUCLEAR REPULSION ENERGY   78.74537443


 Eigenvalues of metric

         1 0.527E-03 0.728E-03 0.730E-03 0.827E-03 0.173E-02 0.191E-02 0.271E-02 0.374E-02


 Contracted 2-electron integrals neglected if value below      1.0D-11
 AO integral compression algorithm  1   Integral accuracy      1.0D-11

     133.431 MB (compressed) written to integral file ( 49.0%)


 NUMBER OF SORTED TWO-ELECTRON INTEGRALS:   29081751.     BUFFER LENGTH:  32768
 NUMBER OF SEGMENTS:   2  SEGMENT LENGTH:   15997996      RECORD LENGTH: 524288

 Memory used in sort:      16.56 MW

 SORT1 READ    34060019. AND WROTE    28200894. INTEGRALS IN     81 RECORDS. CPU TIME:     0.26 SEC, REAL TIME:     0.34 SEC
 SORT2 READ    28200894. AND WROTE    29081751. INTEGRALS IN    509 RECORDS. CPU TIME:     0.29 SEC, REAL TIME:     0.35 SEC

 FILE SIZES:   FILE 1:   164.1 MBYTE,  FILE 4:   339.8 MBYTE,   TOTAL:    503.9 MBYTE

 OPERATOR DM      FOR CENTER  0  COORDINATES:    0.000000    0.000000    0.000000


 **********************************************************************************************************************************
 DATASETS  * FILE   NREC   LENGTH (MB)   RECORD NAMES
              1      19      139.68       500      610      700      900      950      970     1000      129      960     1100   
                                          VAR    BASINP    GEOM    SYMINP    ZMAT    AOBASIS   BASIS     P2S    ABASIS      S 
                                         1400     1410     1200     1210     1080     1600     1650     1300     1700   
                                           T        V       H0       H01     AOSYM     SMH    MOLCAS    ERIS     OPER   

 PROGRAMS   *        TOTAL       INT
 CPU TIMES  *         1.56      1.46
 REAL TIME  *         2.49 SEC
 DISK USED  *       481.06 MB
 **********************************************************************************************************************************


 Program * Restricted Hartree-Fock

 Orbital guess generated from atomic densities. Full valence occupancy:   21

 Initial occupancy:  14

 NELEC=   28   SYM=1   MS2= 0   THRE=1.0D-08   THRD=3.2D-06   THRG=3.2D-06  HFMA2=F  DIIS_START=2   DIIS_MAX=10   DIIS_INCORE=F

 Level shifts:    0.00 (CLOSED)    0.00 (OPEN)    0.30 (GAP_MIN)

 ITER           ETOT              DE          GRAD        DDIFF     DIIS  NEXP   TIME(IT)  TIME(TOT)  DIAG
   1     -191.04481802    -191.04481802     0.00D+00     0.82D-01     0     0       0.16      0.30    start
   2     -191.09431003      -0.04949201     0.67D-02     0.11D-01     1     0       0.16      0.46    diag
   3     -191.10772948      -0.01341945     0.35D-02     0.36D-02     2     0       0.15      0.61    diag
   4     -191.10843347      -0.00070398     0.59D-03     0.93D-03     3     0       0.16      0.77    diag
   5     -191.10847349      -0.00004002     0.12D-03     0.22D-03     4     0       0.15      0.92    diag
   6     -191.10847545      -0.00000196     0.27D-04     0.51D-04     5     0       0.14      1.06    diag
   7     -191.10847573      -0.00000029     0.13D-04     0.17D-04     6     0       0.14      1.20    diag
   8     -191.10847575      -0.00000002     0.22D-05     0.50D-05     7     0       0.15      1.35    fixocc
   9     -191.10847576      -0.00000000     0.51D-06     0.94D-06     8     0       0.15      1.50    diag
  10     -191.10847576      -0.00000000     0.15D-06     0.25D-06     0     0       0.16      1.66    diag/orth

 Final occupancy:  14

 !RHF STATE 1.1 Energy               -191.108475755651
  RHF One-electron energy            -418.353962944770
  RHF Two-electron energy             148.500112754970
  RHF Kinetic energy                  190.835049686542
  RHF Nuclear energy                   78.745374434150
  RHF Virial quotient                  -1.001432787476

 !RHF STATE 1.1 Dipole moment           1.24483859    -0.00307941    -0.00095793
 Dipole moment /Debye                   3.16406410    -0.00782708    -0.00243481

 Orbital energies:

           1.1          2.1          3.1          4.1          5.1          6.1          7.1          8.1          9.1         10.1
    -20.603732   -20.538910   -11.259185    -1.384078    -1.336207    -0.906504    -0.743263    -0.679032    -0.611911    -0.598755

          11.1         12.1         13.1         14.1         15.1         16.1
     -0.573206    -0.538173    -0.478630    -0.425267     0.027401     0.049046


 HOMO     14.1    -0.425267 =     -11.5721eV
 LUMO     15.1     0.027401 =       0.7456eV
 LUMO-HOMO         0.452667 =      12.3177eV

 Orbitals saved in record  2100.2


 **********************************************************************************************************************************
 DATASETS  * FILE   NREC   LENGTH (MB)   RECORD NAMES
              1      19      139.68       500      610      700      900      950      970     1000      129      960     1100   
                                          VAR    BASINP    GEOM    SYMINP    ZMAT    AOBASIS   BASIS     P2S    ABASIS      S 
                                         1400     1410     1200     1210     1080     1600     1650     1300     1700   
                                           T        V       H0       H01     AOSYM     SMH    MOLCAS    ERIS     OPER   

              2       4        0.75       700     1000      520     2100   
                                         GEOM     BASIS   MCVARS     RHF  

 PROGRAMS   *        TOTAL    HF-SCF       INT
 CPU TIMES  *         3.22      1.66      1.46
 REAL TIME  *         4.66 SEC
 DISK USED  *       481.06 MB
 **********************************************************************************************************************************


 PROGRAM * MP4 (Closed-shell)     Authors: C. Hampel, H.-J. Werner, 1991, M. Deegan, P.J. Knowles, 1992


 Convergence thresholds:  THRVAR = 1.00D-08  THRDEN = 1.00D-06

 MP4(T)     terms to be evaluated (factor= 0.000)


 Number of core orbitals:           3 (   3 )
 Number of closed-shell orbitals:  11 (  11 )
 Number of external orbitals:     109 ( 109 )

 Molecular orbitals read from record     2100.2  Type=RHF/CANONICAL  

 Number of N-1 electron functions:              11
 Number of N-2 electron functions:              66
 Number of singly external CSFs:              1199
 Number of doubly external CSFs:            719400
 Total number of CSFs:                      720600

 Length of J-op  integral file:               0.00 MB
 Length of K-op  integral file:               1.10 MB

 Memory could be reduced to 19.48 Mwords without degradation in triples

 Integral transformation finished. Total CPU:   0.72 sec, npass=  1  Memory used:  13.25 MW

 Reference energy:                   -191.10847576

                        CORR.ENERGY   TOTAL ENERGY   ENERGY CHANGE
 MP2:                   -0.58228238  -191.69075814    -0.58228238

 SCS-MP2 correlation energy:           -0.57452194   (PS=  1.200000  PT=  0.333333)
 SCS-MP2 total energy:               -191.68299770

 MP3(D):                -0.60480119  -191.71327695    -0.02251881
 MP4(DQ):               -0.60858393  -191.71705968    -0.00378273
 MP4(SDQ):              -0.61329088  -191.72176664    -0.00470696

 Norm of t1 vector:      0.06326455      S-energy:    -0.00470696      T1 diagnostic:  0.00953749


 Total CPU time for triples:     12.92 sec


 RESULTS
 =======

  Reference energy                   -191.108475755651
  MP4(SDQ) singlet pair energy         -0.407030087280
  MP4(SDQ) triplet pair energy         -0.201553839410
  MP4(SDQ) correlation energy          -0.613290881704

  Triples contribution                 -0.016678038820
  Total correlation energy             -0.629968920524

  MP4(SDQ) total energy              -191.721766637355
 !MP4(SDTQ) total energy             -191.738444676175

 Timing summary (sec):

 STEP                 CPU(USER)    SYS     CPU(TOT)    WALL
 Transformation          0.74      0.07      0.81      0.90
 CCSD iterations         4.63      0.03      4.66      1.47
 Triples                12.92      0.58     13.50     14.20

 Program statistics:

 Available memory in ccsd:               805305870
 Min. memory needed in ccsd:               1995239
 Max. memory used in ccsd:                 2614165
 Max. memory used in cckext:               2150516 ( 1 integral passes)



 **********************************************************************************************************************************
 DATASETS  * FILE   NREC   LENGTH (MB)   RECORD NAMES
              1      20      206.21       500      610      700      900      950      970     1000      129      960     1100   
                                          VAR    BASINP    GEOM    SYMINP    ZMAT    AOBASIS   BASIS     P2S    ABASIS      S 
                                         1400     1410     1200     1210     1080     1600     1650     1300     1700     1380   
                                           T        V       H0       H01     AOSYM     SMH    MOLCAS    ERIS     OPER     JKOP   

              2       4        0.75       700     1000      520     2100   
                                         GEOM     BASIS   MCVARS     RHF  

 PROGRAMS   *        TOTAL       MP4    HF-SCF       INT
 CPU TIMES  *        18.17     14.94      1.66      1.46
 REAL TIME  *        21.50 SEC
 DISK USED  *       481.06 MB
 **********************************************************************************************************************************

 Dump information in style XML to xml output                                                                      

 Orbitals will not be exported.

 **********************************************************************************************************************************

 MP4/aug-cc-pVDZ energy=   -191.738444676175

             MP4          HF-SCF
   -191.73844468   -191.10847576
 **********************************************************************************************************************************
 Molpro calculation terminated
