
 Working directory              : /var/folders/2v/xbgp75_9785319ghcgb4zr4r0000gp/T//molpro.sWNRwssXZE/
 Global scratch directory       : /var/folders/2v/xbgp75_9785319ghcgb4zr4r0000gp/T//molpro.sWNRwssXZE/
 Wavefunction directory         : /Users/sacpjk/wfu/
 Main file repository           : /var/folders/2v/xbgp75_9785319ghcgb4zr4r0000gp/T//molpro.sWNRwssXZE/

 id        : peterk

 Nodes                        nprocs
 Cardiff-University-G34YLXT77Y    1
 GA implementation: MPI file
 GA implementation (serial work in mppx): MPI file

 Using customized tuning parameters: mindgm=1; mindgv=20; mindgc=4; mindgr=1; noblas=0; minvec=7
 default implementation of scratch files=df  


 Variables initialized (1032), CPU time= 0.00 sec
 
 symmetry,nosym
 
 
 geometry={
            7
     F          2.24953292     -0.16163470     -0.00906451
     C          0.83989310      0.02030650      0.00310752
     H          0.35178382     -0.87134447     -0.36481550
     H          0.52242274      0.21318049      1.01958309
     H          0.60022397      0.86229312     -0.63454561
     O         -1.81896698     -0.15832046     -0.00598050
     H         -2.74488958      0.09551952     -0.00828450
 }
 basis=cc-pVDZ
 
 charge=-1
 
 hf; hf; papt; mp2
 
 
 
 {put,xml;noorbitals,nobasis}
 Commands initialized (841), CPU time= 0.00 sec, 704 directives.
 Default parameters read. Elapsed time= 0.95 sec

 Checking input...
 Passed
1


                                         ***  PROGRAM SYSTEM MOLPRO  ***
                                       Copyright, TTI GmbH Stuttgart, 2015
                                    Version 2023.1 linked Tue Jun  6 09:54:11 2023


 **********************************************************************************************************************************
 LABEL *                                                                                                                                                                 
  64 bit serial version                                                                  DATE: 09-Jun-23          TIME: 15:35:57  
 **********************************************************************************************************************************

 SHA1:             8ebb0dd001088a5c915591db1a321413035db0b1
 **********************************************************************************************************************************

 Memory per process:       805 MW
 Total memory per node:   1074 MW
 Total GA space:           268 MW

 GA preallocation disabled
 GA check enabled

 Variable memory set to 805.3 MW

 ZSYMEL=NOSYM


 Geometry recognized as XYZ

 SETTING BASIS          =    CC-PVDZ
 SETTING CHARGE         =        -1.00000000                                  


 Recomputing integrals since basis changed


 Using spherical harmonics

 Library entry F      S cc-pVDZ              selected for orbital group  1
 Library entry F      P cc-pVDZ              selected for orbital group  1
 Library entry F      D cc-pVDZ              selected for orbital group  1
 Library entry C      S cc-pVDZ              selected for orbital group  2
 Library entry C      P cc-pVDZ              selected for orbital group  2
 Library entry C      D cc-pVDZ              selected for orbital group  2
 Library entry H      S cc-pVDZ              selected for orbital group  3
 Library entry H      P cc-pVDZ              selected for orbital group  3
 Library entry O      S cc-pVDZ              selected for orbital group  4
 Library entry O      P cc-pVDZ              selected for orbital group  4
 Library entry O      D cc-pVDZ              selected for orbital group  4


 PROGRAM * SEWARD (Integral evaluation for generally contracted gaussian basis sets)     Author: Roland Lindh, 1990

 Geometry written to block  1 of record 700


 Point group  C1  



 ATOMIC COORDINATES

 NR  ATOM    CHARGE       X              Y              Z

   1  F       9.00    4.251001127   -0.305445315   -0.017129441
   2  C       6.00    1.587167933    0.038373724    0.005872362
   3  H       1.00    0.664775075   -1.646602409   -0.689401381
   4  H       1.00    0.987235900    0.402852741    1.926732801
   5  H       1.00    1.134258917    1.629497836   -1.199117416
   6  O       8.00   -3.437349422   -0.299182309   -0.011301507
   7  H       1.00   -5.187089549    0.180505732   -0.015655436

 Bond lengths in Bohr (Angstrom)

 1-2  2.686028276  2-3  2.042880008  2-4  2.045108366  2-5  2.046656513  6-7  1.814307054
     ( 1.421384952)     ( 1.081045545)     ( 1.082224741)     ( 1.083043985)     ( 0.960089946)

 Bond angles

  1-2-3  109.83382105   1-2-4  108.77070472   1-2-5  108.29649717   3-2-4  109.52435453

  3-2-5  109.93347062   4-2-5  110.45808017

 NUCLEAR CHARGE:                   27
 NUMBER OF PRIMITIVE AOS:         109
 NUMBER OF SYMMETRY AOS:          106
 NUMBER OF CONTRACTIONS:           62   (   62A   )
 NUMBER OF INNER CORE ORBITALS:     0   (    0A   )
 NUMBER OF OUTER CORE ORBITALS:     3   (    3A   )
 NUMBER OF VALENCE ORBITALS:       16   (   16A   )


 NUCLEAR REPULSION ENERGY   67.43070998


 Eigenvalues of metric

         1 0.113E-01 0.219E-01 0.250E-01 0.353E-01 0.362E-01 0.415E-01 0.476E-01 0.494E-01


 Contracted 2-electron integrals neglected if value below      1.0D-11
 AO integral compression algorithm  1   Integral accuracy      1.0D-11

     8.126 MB (compressed) written to integral file ( 46.8%)


 NUMBER OF SORTED TWO-ELECTRON INTEGRALS:    1908081.     BUFFER LENGTH:  32768
 NUMBER OF SEGMENTS:   1  SEGMENT LENGTH:    1908081      RECORD LENGTH: 524288

 Memory used in sort:       2.47 MW

 SORT1 READ     2157270. AND WROTE     1677137. INTEGRALS IN      5 RECORDS. CPU TIME:     0.02 SEC, REAL TIME:     0.02 SEC
 SORT2 READ     1677137. AND WROTE     1908081. INTEGRALS IN     31 RECORDS. CPU TIME:     0.03 SEC, REAL TIME:     0.04 SEC

 FILE SIZES:   FILE 1:    38.4 MBYTE,  FILE 4:    21.0 MBYTE,   TOTAL:     59.4 MBYTE

 OPERATOR DM      FOR CENTER  0  COORDINATES:    0.000000    0.000000    0.000000


 **********************************************************************************************************************************
 DATASETS  * FILE   NREC   LENGTH (MB)   RECORD NAMES
              1      19       35.14       500      610      700      900      950      970     1000      129      960     1100   
                                          VAR    BASINP    GEOM    SYMINP    ZMAT    AOBASIS   BASIS     P2S    ABASIS      S 
                                         1400     1410     1200     1210     1080     1600     1650     1300     1700   
                                           T        V       H0       H01     AOSYM     SMH    MOLCAS    ERIS     OPER   

 PROGRAMS   *        TOTAL       INT
 CPU TIMES  *         0.32      0.22
 REAL TIME  *         1.72 SEC
 DISK USED  *        57.07 MB
 **********************************************************************************************************************************


 Program * Restricted Hartree-Fock

 Orbital guess generated from atomic densities. Full valence occupancy:   19

 Initial occupancy:  14

 NELEC=   28   SYM=1   MS2= 0   THRE=1.0D-08   THRD=3.2D-06   THRG=3.2D-06  HFMA2=F  DIIS_START=2   DIIS_MAX=10   DIIS_INCORE=F

 Level shifts:    0.00 (CLOSED)    0.00 (OPEN)    0.30 (GAP_MIN)

 ITER           ETOT              DE          GRAD        DDIFF     DIIS  NEXP   TIME(IT)  TIME(TOT)  DIAG
   1     -214.27393101    -214.27393101     0.00D+00     0.16D+00     0     0       0.01      0.02    start
   2     -214.36269571      -0.08876470     0.16D-01     0.35D-01     1     0       0.01      0.03    diag
   3     -214.40765432      -0.04495861     0.97D-02     0.13D-01     2     0       0.01      0.04    diag
   4     -214.40821209      -0.00055777     0.68D-03     0.16D-02     3     0       0.01      0.05    diag
   5     -214.40825586      -0.00004377     0.19D-03     0.50D-03     4     0       0.01      0.06    diag
   6     -214.40825927      -0.00000341     0.52D-04     0.12D-03     5     0       0.01      0.07    diag
   7     -214.40825985      -0.00000059     0.23D-04     0.55D-04     6     0       0.01      0.08    diag
   8     -214.40825990      -0.00000004     0.50D-05     0.18D-04     7     0       0.01      0.09    fixocc
   9     -214.40825990      -0.00000000     0.11D-05     0.34D-05     8     0       0.01      0.10    diag
  10     -214.40825990      -0.00000000     0.24D-06     0.77D-06     9     0       0.01      0.11    diag/orth
  11     -214.40825990      -0.00000000     0.70D-07     0.16D-06     0     0       0.00      0.11    diag

 Final occupancy:  14

 !RHF STATE 1.1 Energy               -214.408259900004
  RHF One-electron energy            -438.060381342566
  RHF Two-electron energy             156.221411467152
  RHF Kinetic energy                  214.525180139007
  RHF Nuclear energy                   67.430709975409
  RHF Virial quotient                  -0.999454981280

 !RHF STATE 1.1 Dipole moment           1.55035622     0.46403153     0.01538349
 Dipole moment /Debye                   3.94061247     1.17945051     0.03910092

 Orbital energies:

           1.1          2.1          3.1          4.1          5.1          6.1          7.1          8.1          9.1         10.1
    -26.086946   -20.120480   -11.107416    -1.390381    -0.862616    -0.751986    -0.497047    -0.495499    -0.469921    -0.338019

          11.1         12.1         13.1         14.1         15.1         16.1
     -0.334510    -0.208036    -0.073623    -0.072296     0.382030     0.446152


 HOMO     14.1    -0.072296 =      -1.9673eV
 LUMO     15.1     0.382030 =      10.3956eV
 LUMO-HOMO         0.454327 =      12.3629eV

 Orbitals saved in record  2100.2


 **********************************************************************************************************************************
 DATASETS  * FILE   NREC   LENGTH (MB)   RECORD NAMES
              1      19       35.14       500      610      700      900      950      970     1000      129      960     1100   
                                          VAR    BASINP    GEOM    SYMINP    ZMAT    AOBASIS   BASIS     P2S    ABASIS      S 
                                         1400     1410     1200     1210     1080     1600     1650     1300     1700   
                                           T        V       H0       H01     AOSYM     SMH    MOLCAS    ERIS     OPER   

              2       4        0.54       700     1000      520     2100   
                                         GEOM     BASIS   MCVARS     RHF  

 PROGRAMS   *        TOTAL    HF-SCF       INT
 CPU TIMES  *         0.44      0.12      0.22
 REAL TIME  *         2.11 SEC
 DISK USED  *        57.07 MB
 **********************************************************************************************************************************


 Program * Restricted Hartree-Fock

 Molecular orbitals read from record     2100.2  Type=RHF/CANONICAL  

 Initial occupancy:  14

 NELEC=   28   SYM=1   MS2= 0   THRE=1.0D-08   THRD=3.2D-06   THRG=3.2D-06  HFMA2=F  DIIS_START=2   DIIS_MAX=10   DIIS_INCORE=F

 Level shifts:    0.00 (CLOSED)    0.00 (OPEN)    0.30 (GAP_MIN)

 ITER           ETOT              DE          GRAD        DDIFF     DIIS  NEXP   TIME(IT)  TIME(TOT)  DIAG
   1     -214.40825990    -214.40825990     0.00D+00     0.16D+00     0     0       0.00      0.00    start
   2     -214.40825990      -0.00000000     0.38D-07     0.86D-07     1     0       0.01      0.01    diag

 Final occupancy:  14

 !RHF STATE 1.1 Energy               -214.408259900008
  RHF One-electron energy            -438.060382670333
  RHF Two-electron energy             156.221412794916
  RHF Kinetic energy                  214.525181447968
  RHF Nuclear energy                   67.430709975409
  RHF Virial quotient                  -0.999454975182

 !RHF STATE 1.1 Dipole moment           1.55035707     0.46403078     0.01538346
 Dipole moment /Debye                   3.94061462     1.17944859     0.03910087

 Orbital energies:

           1.1          2.1          3.1          4.1          5.1          6.1          7.1          8.1          9.1         10.1
    -26.086947   -20.120480   -11.107416    -1.390381    -0.862616    -0.751986    -0.497047    -0.495499    -0.469921    -0.338019

          11.1         12.1         13.1         14.1         15.1         16.1
     -0.334510    -0.208036    -0.073623    -0.072296     0.382030     0.446152


 HOMO     14.1    -0.072296 =      -1.9673eV
 LUMO     15.1     0.382030 =      10.3956eV
 LUMO-HOMO         0.454327 =      12.3629eV

 Orbitals saved in record  2101.2


 **********************************************************************************************************************************
 DATASETS  * FILE   NREC   LENGTH (MB)   RECORD NAMES
              1      19       35.14       500      610      700      900      950      970     1000      129      960     1100   
                                          VAR    BASINP    GEOM    SYMINP    ZMAT    AOBASIS   BASIS     P2S    ABASIS      S 
                                         1400     1410     1200     1210     1080     1600     1650     1300     1700   
                                           T        V       H0       H01     AOSYM     SMH    MOLCAS    ERIS     OPER   

              2       5        0.74       700     1000      520     2100     2101   
                                         GEOM     BASIS   MCVARS     RHF      RHF  

 PROGRAMS   *        TOTAL    HF-SCF    HF-SCF       INT
 CPU TIMES  *         0.46      0.02      0.12      0.22
 REAL TIME  *         2.40 SEC
 DISK USED  *        57.07 MB
 **********************************************************************************************************************************


 PROGRAM * PAPT (Closed-shell)     Authors: C. Hampel, H.-J. Werner, 1991, P.J. Knowles, 2021


 Convergence thresholds:  THRVAR = 1.00D-08  THRDEN = 1.00D-06

 Number of core orbitals:           3 (   3 )
 Number of closed-shell orbitals:  11 (  11 )
 Number of external orbitals:      48 (  48 )

 Molecular orbitals read from record     2101.2  Type=RHF/CANONICAL  

 Number of N-1 electron functions:              11
 Number of N-2 electron functions:              66
 Number of singly external CSFs:               528
 Number of doubly external CSFs:            139656
 Total number of CSFs:                      140185

 Length of J-op  integral file:               0.00 MB
 Length of K-op  integral file:               0.33 MB

 Integral transformation finished. Total CPU:   0.02 sec, npass=  1  Memory used:   0.55 MW

 Reference energy:                   -214.40825990

                        CORR.ENERGY   TOTAL ENERGY   ENERGY CHANGE
 MP2:                   -0.53233345  -214.94059335    -0.53233345

 SCS-MP2 correlation energy:           -0.52392031   (PS=  1.200000  PT=  0.333333)
 SCS-MP2 total energy:               -214.93218021
 Iteration:   1     0.2607D+00
 Iteration:   2     0.5805D+00
 Iteration:   3     0.1760D+00
 Iteration:   4     0.8667D-01
 Iteration:   5     0.6442D+00
 Iteration:   6     0.4445D-01
 Iteration:   7     0.6247D-01
 Iteration:   8     0.1685D-01
 Iteration:   9     0.1301D-01
 Iteration:  10     0.1484D-01
 Iteration:  11     0.6319D-02
 Iteration:  12     0.1661D-01
 Iteration:  13     0.3497D-02
 Iteration:  14     0.5303D-01
 Iteration:  15     0.1281D-02
 Iteration:  16     0.1143D-02
 Iteration:  17     0.1024D-02
 Iteration:  18     0.4944D-03
 Iteration:  19     0.1865D-02
 Iteration:  20     0.1926D-03
 Iteration:  21     0.1825D-03
 Iteration:  22     0.8295D-03
 Iteration:  23     0.1113D-03
 Iteration:  24     0.1204D-03
 Iteration:  25     0.1638D-03
 Iteration:  26     0.5470D-04
 PAPT operator written to  7000.1
 PAPT orbitals and eigenvalues written to  7000.2

 MP3(D):                -0.55154689  -214.95980679    -0.01921344



 RESULTS
 =======

  Reference energy                   -214.408259900008
  MP3 singlet pair energy              -0.367683244194
  MP3 triplet pair energy              -0.183863644481
  MP3 correlation energy               -0.551546888675

 !MP3 total energy                   -214.959806788683

 Timing summary (sec):

 STEP                 CPU(USER)    SYS     CPU(TOT)    WALL
 Transformation          0.02      0.00      0.02      0.09
 CCSD iterations         1.13      0.05      1.18      1.13

 Program statistics:

 Available memory in ccsd:               805305870
 Min. memory needed in ccsd:                431957
 Max. memory used in ccsd:                  542265
 Max. memory used in cckext:                579355 ( 1 integral passes)



 **********************************************************************************************************************************
 DATASETS  * FILE   NREC   LENGTH (MB)   RECORD NAMES
              1      21       38.13       500      610      700      900      950      970     1000      129      960     1100   
                                          VAR    BASINP    GEOM    SYMINP    ZMAT    AOBASIS   BASIS     P2S    ABASIS      S 
                                         1400     1410     1200     1210     1080     1600     1650     1300     1700     1380   
                                           T        V       H0       H01     AOSYM     SMH    MOLCAS    ERIS     OPER     JKOP   
                                         7000   
                                        PAPT AO    

              2       6        0.93       700     1000      520     2100     2101     7000   
                                         GEOM     BASIS   MCVARS     RHF      RHF     PAPT   

 PROGRAMS   *        TOTAL      PAPT    HF-SCF    HF-SCF       INT
 CPU TIMES  *         1.06      0.59      0.02      0.12      0.22
 REAL TIME  *         3.82 SEC
 DISK USED  *        57.07 MB
 **********************************************************************************************************************************


 PROGRAM * MP2 (Closed-shell)     Authors: C. Hampel, H.-J. Werner, 1991, M. Deegan, P.J. Knowles, 1992


 Convergence thresholds:  THRVAR = 1.00D-08  THRDEN = 1.00D-06

 Number of core orbitals:           3 (   3 )
 Number of closed-shell orbitals:  11 (  11 )
 Number of external orbitals:      48 (  48 )

 Molecular orbitals read from record     7000.2  Type=PAPT/CANONICAL (state 1.1)

 Number of N-1 electron functions:              11
 Number of N-2 electron functions:              66
 Number of singly external CSFs:               528
 Number of doubly external CSFs:            139656
 Total number of CSFs:                      140185

 Length of J-op  integral file:               0.00 MB
 Length of K-op  integral file:               0.33 MB

 Integral transformation finished. Total CPU:   0.02 sec, npass=  1  Memory used:   0.55 MW
 Orbital energies read from record       7000.2  Type=PAPT/CANONICAL (state 1.1)

 Memory needed for MP2:                      0.02 MW

 SCS-MP2 correlation energy:           -0.550599981432   (PS=  1.200000  PT=  0.333333)
 SCS-MP2 total energy:               -214.958859881441


  Reference energy                   -214.408259900008
  MP2 singlet pair energy              -0.353501281669
  MP2 triplet pair energy              -0.203140355512
  MP2 correlation energy               -0.556641637181

 !MP2 total energy                   -214.964901537189


 **********************************************************************************************************************************
 DATASETS  * FILE   NREC   LENGTH (MB)   RECORD NAMES
              1      21       38.13       500      610      700      900      950      970     1000      129      960     1100   
                                          VAR    BASINP    GEOM    SYMINP    ZMAT    AOBASIS   BASIS     P2S    ABASIS      S 
                                         1400     1410     1200     1210     1080     1600     1650     1300     1700     1380   
                                           T        V       H0       H01     AOSYM     SMH    MOLCAS    ERIS     OPER     JKOP   
                                         7000   
                                        PAPT AO    

              2       6        0.93       700     1000      520     2100     2101     7000   
                                         GEOM     BASIS   MCVARS     RHF      RHF     PAPT   

 PROGRAMS   *        TOTAL       MP2      PAPT    HF-SCF    HF-SCF       INT
 CPU TIMES  *         1.14      0.07      0.59      0.02      0.12      0.22
 REAL TIME  *         4.13 SEC
 DISK USED  *        57.07 MB
 **********************************************************************************************************************************

 Dump information in style XML to xml output                                                                      

 Orbitals will not be exported.

 **********************************************************************************************************************************

 MP2/cc-pVDZ energy=   -214.964901537189

             MP2            PAPT          HF-SCF          HF-SCF
   -214.96490154   -214.95980679   -214.40825990   -214.40825990
 **********************************************************************************************************************************
 Molpro calculation terminated
