
 Working directory              : /var/folders/2v/xbgp75_9785319ghcgb4zr4r0000gp/T//molpro.hMWnmaBtou/
 Global scratch directory       : /var/folders/2v/xbgp75_9785319ghcgb4zr4r0000gp/T//molpro.hMWnmaBtou/
 Wavefunction directory         : /Users/sacpjk/wfu/
 Main file repository           : /var/folders/2v/xbgp75_9785319ghcgb4zr4r0000gp/T//molpro.hMWnmaBtou/

 id        : peterk

 Nodes                        nprocs
 Cardiff-University-G34YLXT77Y    1
 GA implementation: MPI file
 GA implementation (serial work in mppx): MPI file

 Using customized tuning parameters: mindgm=1; mindgv=20; mindgc=4; mindgr=1; noblas=0; minvec=7
 default implementation of scratch files=df  


 Variables initialized (1032), CPU time= 0.00 sec
 
 symmetry,nosym
 
 
 geometry={
           10
     N         -0.01234627     -0.59896192      0.85529092
     N          1.40057789     -0.67279174      0.69167556
     H          1.79109995      0.27896721      0.69866684
     H          1.54441784     -1.03380871     -0.25061935
     H         -0.15705127     -0.36055947      1.84025932
     N         -0.53592587      0.61236963      0.14949390
     N         -0.56764650      0.25608390     -1.24106417
     H         -1.49741565      0.67903911      0.50796923
     H         -0.56243275      1.12334217     -1.77149744
     H         -1.40327738     -0.28368017     -1.48017482
 }
 basis=cc-pVTZ
 
 
 
 hf; ccsd
 
 
 
 {put,xml;noorbitals,nobasis}
 Commands initialized (841), CPU time= 0.01 sec, 704 directives.
 Default parameters read. Elapsed time= 0.54 sec

 Checking input...
 Passed
1


                                         ***  PROGRAM SYSTEM MOLPRO  ***
                                       Copyright, TTI GmbH Stuttgart, 2015
                                    Version 2023.1 linked Tue Jun  6 09:54:11 2023


 **********************************************************************************************************************************
 LABEL *                                                                                                                                                                 
  64 bit serial version                                                                  DATE: 13-Jun-23          TIME: 05:22:21  
 **********************************************************************************************************************************

 SHA1:             8ebb0dd001088a5c915591db1a321413035db0b1
 **********************************************************************************************************************************

 Memory per process:       393 MW
 Total memory per node:    524 MW
 Total GA space:           131 MW

 GA preallocation disabled
 GA check enabled

 Variable memory set to 393.2 MW

 ZSYMEL=NOSYM


 Geometry recognized as XYZ

 SETTING BASIS          =    CC-PVTZ


 Recomputing integrals since basis changed


 Using spherical harmonics

 Library entry N      S cc-pVTZ              selected for orbital group  1
 Library entry N      P cc-pVTZ              selected for orbital group  1
 Library entry N      D cc-pVTZ              selected for orbital group  1
 Library entry N      F cc-pVTZ              selected for orbital group  1
 Library entry H      S cc-pVTZ              selected for orbital group  2
 Library entry H      P cc-pVTZ              selected for orbital group  2
 Library entry H      D cc-pVTZ              selected for orbital group  2


 PROGRAM * SEWARD (Integral evaluation for generally contracted gaussian basis sets)     Author: Roland Lindh, 1990

 Geometry written to block  1 of record 700


 Point group  C1  



 ATOMIC COORDINATES

 NR  ATOM    CHARGE       X              Y              Z

   1  N       7.00   -0.023331069   -1.131873988    1.616265596
   2  N       7.00    2.646708628   -1.271392128    1.307077375
   3  H       1.00    3.384688367    0.527171625    1.320288980
   4  H       1.00    2.918526740   -1.953615327   -0.473601933
   5  H       1.00   -0.296783888   -0.681358650    3.477586113
   6  N       7.00   -1.012753117    1.157210888    0.282502528
   7  N       7.00   -1.072696421    0.483928436   -2.345271384
   8  H       1.00   -2.829705473    1.283197946    0.959922724
   9  H       1.00   -1.062843861    2.122809046   -3.347644992
  10  H       1.00   -2.651809925   -0.536077828   -2.797125026

 Bond lengths in Bohr (Angstrom)

 1-2  2.691500446  1-5  1.934490781  1-6  2.828036329  2-3  1.944124536  2-4  1.926170392
     ( 1.424280699)     ( 1.023688436)     ( 1.496532377)     ( 1.028786400)     ( 1.019285476)

  6- 7  2.713318668   6- 8  1.943215563   7- 9  1.921140176   7-10  1.933438376
       ( 1.435826405)       ( 1.028305392)       ( 1.016623600)       ( 1.023131527)

 Bond angles

  1-2-3  109.13724386   1-2-4  105.34032100   1-6-7  105.28562075   1-6-8  102.42706416

  2-1-5  105.23817493   2-1-6  109.56354845   3-2-4  106.28301414   5-1-6  102.46387755

  6- 7- 9  107.06846047   6- 7-10  112.04217348   7- 6- 8  109.45389628   9- 7-10  109.40849251

 NUCLEAR CHARGE:                   34
 NUMBER OF PRIMITIVE AOS:         290
 NUMBER OF SYMMETRY AOS:          264
 NUMBER OF CONTRACTIONS:          204   (  204A   )
 NUMBER OF INNER CORE ORBITALS:     0   (    0A   )
 NUMBER OF OUTER CORE ORBITALS:     4   (    4A   )
 NUMBER OF VALENCE ORBITALS:       22   (   22A   )


 NUCLEAR REPULSION ENERGY  136.41879043


 Eigenvalues of metric

         1 0.782E-03 0.102E-02 0.144E-02 0.198E-02 0.236E-02 0.257E-02 0.311E-02 0.330E-02


 Contracted 2-electron integrals neglected if value below      1.0D-11
 AO integral compression algorithm  1   Integral accuracy      1.0D-11

     842.269 MB (compressed) written to integral file ( 44.0%)


 NUMBER OF SORTED TWO-ELECTRON INTEGRALS:  218624505.     BUFFER LENGTH:  32768
 NUMBER OF SEGMENTS:  14  SEGMENT LENGTH:   15999503      RECORD LENGTH: 524288

 Memory used in sort:      16.56 MW

 SORT1 READ   239352524. AND WROTE   200629366. INTEGRALS IN    581 RECORDS. CPU TIME:     1.83 SEC, REAL TIME:     2.70 SEC
 SORT2 READ   200629366. AND WROTE   218624505. INTEGRALS IN   3213 RECORDS. CPU TIME:     1.43 SEC, REAL TIME:     1.94 SEC

 FILE SIZES:   FILE 1:   874.0 MBYTE,  FILE 4:  2437.0 MBYTE,   TOTAL:   3310.9 MBYTE

 OPERATOR DM      FOR CENTER  0  COORDINATES:    0.000000    0.000000    0.000000


 **********************************************************************************************************************************
 DATASETS  * FILE   NREC   LENGTH (MB)   RECORD NAMES
              1      19      762.45       500      610      700      900      950      970     1000      129      960     1100   
                                          VAR    BASINP    GEOM    SYMINP    ZMAT    AOBASIS   BASIS     P2S    ABASIS      S 
                                         1400     1410     1200     1210     1080     1600     1650     1300     1700   
                                           T        V       H0       H01     AOSYM     SMH    MOLCAS    ERIS     OPER   

 PROGRAMS   *        TOTAL       INT
 CPU TIMES  *         9.06      8.96
 REAL TIME  *        12.88 SEC
 DISK USED  *         3.08 GB
 **********************************************************************************************************************************


 Program * Restricted Hartree-Fock

 Orbital guess generated from atomic densities. Full valence occupancy:   26

 Initial occupancy:  17

 NELEC=   34   SYM=1   MS2= 0   THRE=1.0D-08   THRD=3.2D-06   THRG=3.2D-06  HFMA2=F  DIIS_START=2   DIIS_MAX=10   DIIS_INCORE=F

 Level shifts:    0.00 (CLOSED)    0.00 (OPEN)    0.30 (GAP_MIN)

 ITER           ETOT              DE          GRAD        DDIFF     DIIS  NEXP   TIME(IT)  TIME(TOT)  DIAG
   1     -221.19813360    -221.19813360     0.00D+00     0.53D-01     0     0       1.02      1.99    start
   2     -221.24553575      -0.04740215     0.40D-02     0.49D-02     1     0       1.02      3.01    diag
   3     -221.25033330      -0.00479756     0.13D-02     0.14D-02     2     0       1.02      4.03    diag
   4     -221.25131308      -0.00097978     0.54D-03     0.56D-03     3     0       0.99      5.02    diag
   5     -221.25139389      -0.00008080     0.12D-03     0.16D-03     4     0       0.96      5.98    diag
   6     -221.25140114      -0.00000726     0.29D-04     0.56D-04     5     0       0.96      6.94    diag
   7     -221.25140211      -0.00000097     0.12D-04     0.19D-04     6     0       0.98      7.92    diag
   8     -221.25140225      -0.00000014     0.41D-05     0.87D-05     7     0       1.03      8.95    fixocc
   9     -221.25140226      -0.00000001     0.10D-05     0.18D-05     8     0       1.02      9.97    diag
  10     -221.25140226      -0.00000000     0.37D-06     0.58D-06     0     0       1.09     11.06    diag/orth

 Final occupancy:  17

 !RHF STATE 1.1 Energy               -221.251402257517
  RHF One-electron energy            -571.787619089685
  RHF Two-electron energy             214.117426405175
  RHF Kinetic energy                  220.744604503378
  RHF Nuclear energy                  136.418790426994
  RHF Virial quotient                  -1.002295855680

 !RHF STATE 1.1 Dipole moment          -0.76512844     0.66261502    -0.29035490
 Dipole moment /Debye                  -1.94476252     1.68419939    -0.73800855

 Orbital energies:

           1.1          2.1          3.1          4.1          5.1          6.1          7.1          8.1          9.1         10.1
    -15.609423   -15.602073   -15.574607   -15.559562    -1.323242    -1.210921    -1.051438    -0.915353    -0.706785    -0.688760

          11.1         12.1         13.1         14.1         15.1         16.1         17.1         18.1         19.1
     -0.652933    -0.611373    -0.576810    -0.493802    -0.427798    -0.403402    -0.367984     0.137525     0.163122


 HOMO     17.1    -0.367984 =     -10.0134eV
 LUMO     18.1     0.137525 =       3.7422eV
 LUMO-HOMO         0.505509 =      13.7556eV

 Orbitals saved in record  2100.2


 **********************************************************************************************************************************
 DATASETS  * FILE   NREC   LENGTH (MB)   RECORD NAMES
              1      19      762.45       500      610      700      900      950      970     1000      129      960     1100   
                                          VAR    BASINP    GEOM    SYMINP    ZMAT    AOBASIS   BASIS     P2S    ABASIS      S 
                                         1400     1410     1200     1210     1080     1600     1650     1300     1700   
                                           T        V       H0       H01     AOSYM     SMH    MOLCAS    ERIS     OPER   

              2       4        1.19       700     1000      520     2100   
                                         GEOM     BASIS   MCVARS     RHF  

 PROGRAMS   *        TOTAL    HF-SCF       INT
 CPU TIMES  *        20.13     11.07      8.96
 REAL TIME  *        25.94 SEC
 DISK USED  *         3.08 GB
 **********************************************************************************************************************************


 PROGRAM * CCSD (Closed-shell coupled cluster)     Authors: C. Hampel, H.-J. Werner, 1991, M. Deegan, P.J. Knowles, 1992


 Convergence thresholds:  THRVAR = 1.00D-08  THRDEN = 1.00D-06

 Number of core orbitals:           4 (   4 )
 Number of closed-shell orbitals:  13 (  13 )
 Number of external orbitals:     187 ( 187 )

 Molecular orbitals read from record     2100.2  Type=RHF/CANONICAL  

 Number of N-1 electron functions:              13
 Number of N-2 electron functions:              91
 Number of singly external CSFs:              2431
 Number of doubly external CSFs:           2956096
 Total number of CSFs:                     2958528

 Length of J-op  integral file:               0.00 MB
 Length of K-op  integral file:               2.92 MB
 Length of 3-ext integral record:             0.00 MB

 Integral transformation finished. Total CPU:   6.36 sec, npass=  1  Memory used:  66.89 MW

 Reference energy:                   -221.25140226

 MP2 singlet pair energy:              -0.54882645
 MP2 triplet pair energy:              -0.31400275
 MP2 correlation energy:               -0.86282921
 MP2 total energy:                   -222.11423146

 SCS-MP2 correlation energy:           -0.85397123   (PS=  1.200000  PT=  0.333333)
 SCS-MP2 total energy:               -222.10537349

 ITER.      SQ.NORM     CORR.ENERGY   TOTAL ENERGY   ENERGY CHANGE        DEN1      VAR(S)    VAR(P)  DIIS     TIME  TIME/IT
   1      1.24611696    -0.88608475  -222.13748701    -0.02325554    -0.00174467  0.29D-02  0.41D-02  1  1    36.55    10.63
   2      1.26229823    -0.88838742  -222.13978968    -0.00230267    -0.01914413  0.62D-04  0.52D-03  2  2    47.29    11.24
   3      1.26847582    -0.88856698  -222.13996924    -0.00017956    -0.00382818  0.46D-04  0.29D-04  3  3    57.89    11.39
   4      1.27043073    -0.88862369  -222.14002595    -0.00005671    -0.00086366  0.51D-05  0.43D-05  4  4    68.81    11.55
   5      1.27107089    -0.88863984  -222.14004210    -0.00001615    -0.00017269  0.21D-05  0.41D-06  5  5    79.08    11.50
   6      1.27132517    -0.88862995  -222.14003221     0.00000989    -0.00004059  0.28D-06  0.71D-07  6  6    89.42    11.49
   7      1.27139742    -0.88862829  -222.14003055     0.00000166    -0.00000349  0.29D-07  0.14D-07  6  2    99.24    11.41
   8      1.27142039    -0.88862725  -222.14002951     0.00000104    -0.00000138  0.47D-08  0.18D-08  6  1   110.03    11.47
   9      1.27142778    -0.88862708  -222.14002933     0.00000017     0.00000009  0.68D-09  0.23D-09  6  3   120.91    11.55
  10      1.27142864    -0.88862713  -222.14002938    -0.00000005     0.00000010  0.15D-09  0.43D-10  6  4   132.03    11.64

 Norm of t1 vector:      0.07550365      S-energy:     0.00000005      T1 diagnostic:  0.01047047
                                                                       D1 diagnostic:  0.02896407
                                                                       D2 diagnostic:  0.15684274 (internal)


 RESULTS
 =======

  Reference energy                   -221.251402257517
  CCSD singlet pair energy             -0.608319203906
  CCSD triplet pair energy             -0.280307975531
  CCSD correlation energy              -0.888627127168

 !CCSD total energy                  -222.140029384684

 Timing summary (sec):

 STEP                 CPU(USER)    SYS     CPU(TOT)    WALL
 Transformation          6.50      0.49      6.99      7.28
 CCSD iterations       125.66      4.82    130.48    116.76

 Program statistics:

 Available memory in ccsd:               393215307
 Min. memory needed in ccsd:               7623489
 Max. memory used in ccsd:                10267091
 Max. memory used in cckext:               7977282 (10 integral passes)



 **********************************************************************************************************************************
 DATASETS  * FILE   NREC   LENGTH (MB)   RECORD NAMES
              1      20     1132.52       500      610      700      900      950      970     1000      129      960     1100   
                                          VAR    BASINP    GEOM    SYMINP    ZMAT    AOBASIS   BASIS     P2S    ABASIS      S 
                                         1400     1410     1200     1210     1080     1600     1650     1300     1700     1380   
                                           T        V       H0       H01     AOSYM     SMH    MOLCAS    ERIS     OPER     JKOP   

              2       4        1.19       700     1000      520     2100   
                                         GEOM     BASIS   MCVARS     RHF  

 PROGRAMS   *        TOTAL      CCSD    HF-SCF       INT
 CPU TIMES  *       132.05    111.92     11.07      8.96
 REAL TIME  *       150.30 SEC
 DISK USED  *         3.08 GB
 **********************************************************************************************************************************

 Dump information in style XML to xml output                                                                      

 Orbitals will not be exported.

 **********************************************************************************************************************************

 CCSD/cc-pVTZ energy=   -222.140029384684

            CCSD          HF-SCF
   -222.14002938   -221.25140226
 **********************************************************************************************************************************
 Molpro calculation terminated
