
 Working directory              : /var/folders/2v/xbgp75_9785319ghcgb4zr4r0000gp/T//molpro.0ILK598wAh/
 Global scratch directory       : /var/folders/2v/xbgp75_9785319ghcgb4zr4r0000gp/T//molpro.0ILK598wAh/
 Wavefunction directory         : /Users/sacpjk/wfu/
 Main file repository           : /var/folders/2v/xbgp75_9785319ghcgb4zr4r0000gp/T//molpro.0ILK598wAh/

 id        : peterk

 Nodes                        nprocs
 Cardiff-University-G34YLXT77Y    1
 GA implementation: MPI file
 GA implementation (serial work in mppx): MPI file

 Using customized tuning parameters: mindgm=1; mindgv=20; mindgc=4; mindgr=1; noblas=0; minvec=7
 default implementation of scratch files=df  


 Variables initialized (1032), CPU time= 0.00 sec
 
 symmetry,nosym
 
 
 geometry={
            5
     C          0.00000000      0.00000000     -0.14991697
     CL         0.00000000      0.00000000      1.63280180
     H         -0.51399780     -0.89027030     -0.49429494
     H         -0.51399780      0.89027030     -0.49429494
     H          1.02799560      0.00000000     -0.49429494
 }
 basis=cc-pVDZ
 
 
 
 hf; ccsd(t)
 
 
 
 {put,xml;noorbitals,nobasis}
 Commands initialized (841), CPU time= 0.01 sec, 704 directives.
 Default parameters read. Elapsed time= 1.30 sec

 Checking input...
 Passed
1


                                         ***  PROGRAM SYSTEM MOLPRO  ***
                                       Copyright, TTI GmbH Stuttgart, 2015
                                    Version 2023.1 linked Tue Jun  6 09:54:11 2023


 **********************************************************************************************************************************
 LABEL *                                                                                                                                                                 
  64 bit serial version                                                                  DATE: 09-Jun-23          TIME: 16:06:55  
 **********************************************************************************************************************************

 SHA1:             8ebb0dd001088a5c915591db1a321413035db0b1
 **********************************************************************************************************************************

 Memory per process:       805 MW
 Total memory per node:   1074 MW
 Total GA space:           268 MW

 GA preallocation disabled
 GA check enabled

 Variable memory set to 805.3 MW

 ZSYMEL=NOSYM


 Geometry recognized as XYZ

 SETTING BASIS          =    CC-PVDZ


 Recomputing integrals since basis changed


 Using spherical harmonics

 Library entry C      S cc-pVDZ              selected for orbital group  1
 Library entry C      P cc-pVDZ              selected for orbital group  1
 Library entry C      D cc-pVDZ              selected for orbital group  1
 Library entry CL     S cc-pVDZ              selected for orbital group  2
 Library entry CL     P cc-pVDZ              selected for orbital group  2
 Library entry CL     D cc-pVDZ              selected for orbital group  2
 Library entry H      S cc-pVDZ              selected for orbital group  3
 Library entry H      P cc-pVDZ              selected for orbital group  3


 PROGRAM * SEWARD (Integral evaluation for generally contracted gaussian basis sets)     Author: Roland Lindh, 1990

 Geometry written to block  1 of record 700


 Point group  C1  



 ATOMIC COORDINATES

 NR  ATOM    CHARGE       X              Y              Z

   1  C       6.00    0.000000000    0.000000000   -0.283302015
   2  CL     17.00    0.000000000    0.000000000    3.085548218
   3  H       1.00   -0.971315071   -1.682367044   -0.934082061
   4  H       1.00   -0.971315071    1.682367044   -0.934082061
   5  H       1.00    1.942630141    0.000000000   -0.934082061

 Bond lengths in Bohr (Angstrom)

 1-2  3.368850233  1-3  2.048737784  1-4  2.048737784  1-5  2.048737791
     ( 1.782718770)     ( 1.084145346)     ( 1.084145346)     ( 1.084145350)

 Bond angles

  2-1-3  108.52082168   2-1-4  108.52082168   2-1-5  108.52082162   3-1-4  110.40466842

  3-1-5  110.40466877   4-1-5  110.40466877

 NUCLEAR CHARGE:                   26
 NUMBER OF PRIMITIVE AOS:          90
 NUMBER OF SYMMETRY AOS:           88
 NUMBER OF CONTRACTIONS:           47   (   47A   )
 NUMBER OF INNER CORE ORBITALS:     1   (    1A   )
 NUMBER OF OUTER CORE ORBITALS:     5   (    5A   )
 NUMBER OF VALENCE ORBITALS:       11   (   11A   )


 NUCLEAR REPULSION ENERGY   51.37849152


 Eigenvalues of metric

         1 0.863E-02 0.183E-01 0.365E-01 0.365E-01 0.464E-01 0.488E-01 0.488E-01 0.926E-01


 Contracted 2-electron integrals neglected if value below      1.0D-11
 AO integral compression algorithm  1   Integral accuracy      1.0D-11

     2.884 MB (compressed) written to integral file ( 42.9%)


 NUMBER OF SORTED TWO-ELECTRON INTEGRALS:     636756.     BUFFER LENGTH:  32768
 NUMBER OF SEGMENTS:   1  SEGMENT LENGTH:     636756      RECORD LENGTH: 524288

 Memory used in sort:       1.19 MW

 SORT1 READ      803108. AND WROTE      473807. INTEGRALS IN      2 RECORDS. CPU TIME:     0.00 SEC, REAL TIME:     0.01 SEC
 SORT2 READ      473807. AND WROTE      636756. INTEGRALS IN     11 RECORDS. CPU TIME:     0.02 SEC, REAL TIME:     0.02 SEC

 FILE SIZES:   FILE 1:    33.0 MBYTE,  FILE 4:     8.5 MBYTE,   TOTAL:     41.5 MBYTE

 OPERATOR DM      FOR CENTER  0  COORDINATES:    0.000000    0.000000    0.000000


 **********************************************************************************************************************************
 DATASETS  * FILE   NREC   LENGTH (MB)   RECORD NAMES
              1      19       30.87       500      610      700      900      950      970     1000      129      960     1100   
                                          VAR    BASINP    GEOM    SYMINP    ZMAT    AOBASIS   BASIS     P2S    ABASIS      S 
                                         1400     1410     1200     1210     1080     1600     1650     1300     1700   
                                           T        V       H0       H01     AOSYM     SMH    MOLCAS    ERIS     OPER   

 PROGRAMS   *        TOTAL       INT
 CPU TIMES  *         0.25      0.16
 REAL TIME  *         2.20 SEC
 DISK USED  *        39.94 MB
 **********************************************************************************************************************************


 Program * Restricted Hartree-Fock

 Orbital guess generated from atomic densities. Full valence occupancy:   17

 Initial occupancy:  13

 NELEC=   26   SYM=1   MS2= 0   THRE=1.0D-08   THRD=3.2D-06   THRG=3.2D-06  HFMA2=F  DIIS_START=2   DIIS_MAX=10   DIIS_INCORE=F

 Level shifts:    0.00 (CLOSED)    0.00 (OPEN)    0.30 (GAP_MIN)

 ITER           ETOT              DE          GRAD        DDIFF     DIIS  NEXP   TIME(IT)  TIME(TOT)  DIAG
   1     -499.10032386    -499.10032386     0.00D+00     0.20D+00     0     0       0.01      0.01    start
   2     -499.11568600      -0.01536213     0.50D-02     0.13D-01     1     0       0.00      0.01    diag
   3     -499.11752884      -0.00184284     0.18D-02     0.37D-02     2     0       0.00      0.01    diag
   4     -499.11780806      -0.00027923     0.66D-03     0.17D-02     3     0       0.01      0.02    diag
   5     -499.11781398      -0.00000592     0.77D-04     0.21D-03     4     0       0.00      0.02    diag
   6     -499.11781422      -0.00000024     0.16D-04     0.62D-04     5     0       0.00      0.02    diag
   7     -499.11781424      -0.00000001     0.32D-05     0.12D-04     6     0       0.01      0.03    diag
   8     -499.11781424      -0.00000000     0.73D-06     0.35D-05     7     0       0.00      0.03    fixocc
   9     -499.11781424      -0.00000000     0.10D-06     0.44D-06     8     0       0.01      0.04    diag
  10     -499.11781424       0.00000000     0.19D-07     0.60D-07     0     0       0.00      0.04    diag/orth

 Final occupancy:  13

 !RHF STATE 1.1 Energy               -499.117814237720
  RHF One-electron energy            -790.262211261934
  RHF Two-electron energy             239.765905503298
  RHF Kinetic energy                  499.131309421512
  RHF Nuclear energy                   51.378491520917
  RHF Virial quotient                  -0.999972962658

 !RHF STATE 1.1 Dipole moment          -0.00000000    -0.00000000    -0.85722552
 Dipole moment /Debye                  -0.00000000    -0.00000000    -2.17884993

 Orbital energies:

           1.1          2.1          3.1          4.1          5.1          6.1          7.1          8.1          9.1         10.1
   -104.816513   -11.296054   -10.543372    -8.010967    -8.007540    -8.007540    -1.126757    -0.915011    -0.617399    -0.617399

          11.1         12.1         13.1         14.1         15.1
     -0.542346    -0.432149    -0.432149     0.169571     0.226874


 HOMO     13.1    -0.432149 =     -11.7594eV
 LUMO     14.1     0.169571 =       4.6143eV
 LUMO-HOMO         0.601720 =      16.3736eV

 Orbitals saved in record  2100.2


 **********************************************************************************************************************************
 DATASETS  * FILE   NREC   LENGTH (MB)   RECORD NAMES
              1      19       30.87       500      610      700      900      950      970     1000      129      960     1100   
                                          VAR    BASINP    GEOM    SYMINP    ZMAT    AOBASIS   BASIS     P2S    ABASIS      S 
                                         1400     1410     1200     1210     1080     1600     1650     1300     1700   
                                           T        V       H0       H01     AOSYM     SMH    MOLCAS    ERIS     OPER   

              2       4        0.48       700     1000      520     2100   
                                         GEOM     BASIS   MCVARS     RHF  

 PROGRAMS   *        TOTAL    HF-SCF       INT
 CPU TIMES  *         0.29      0.04      0.16
 REAL TIME  *         2.50 SEC
 DISK USED  *        39.94 MB
 **********************************************************************************************************************************


 PROGRAM * CCSD (Closed-shell coupled cluster)     Authors: C. Hampel, H.-J. Werner, 1991, M. Deegan, P.J. Knowles, 1992


 Convergence thresholds:  THRVAR = 1.00D-08  THRDEN = 1.00D-06

 CCSD(T)     terms to be evaluated (factor= 1.000)


 Number of core orbitals:           6 (   6 )
 Number of closed-shell orbitals:   7 (   7 )
 Number of external orbitals:      34 (  34 )

 Molecular orbitals read from record     2100.2  Type=RHF/CANONICAL  

 Number of N-1 electron functions:               7
 Number of N-2 electron functions:              28
 Number of singly external CSFs:               238
 Number of doubly external CSFs:             28441
 Total number of CSFs:                       28680

 Length of J-op  integral file:               0.00 MB
 Length of K-op  integral file:               0.21 MB
 Length of 3-ext integral record:             0.00 MB

 Memory could be reduced to 0.52 Mwords without degradation in triples

 Integral transformation finished. Total CPU:   0.01 sec, npass=  1  Memory used:   0.63 MW

 Reference energy:                   -499.11781424

 MP2 singlet pair energy:              -0.18377620
 MP2 triplet pair energy:              -0.10116425
 MP2 correlation energy:               -0.28494044
 MP2 total energy:                   -499.40275468

 SCS-MP2 correlation energy:           -0.28347808   (PS=  1.200000  PT=  0.333333)
 SCS-MP2 total energy:               -499.40129232

 ITER.      SQ.NORM     CORR.ENERGY   TOTAL ENERGY   ENERGY CHANGE        DEN1      VAR(S)    VAR(P)  DIIS     TIME  TIME/IT
   1      1.11731641    -0.31283509  -499.43064933    -0.02789465    -0.02013652  0.65D-03  0.17D-02  1  1     0.43     0.04
   2      1.12634367    -0.31468230  -499.43249653    -0.00184721    -0.00875202  0.29D-04  0.11D-03  2  2     0.48     0.05
   3      1.12781666    -0.31479055  -499.43260479    -0.00010826    -0.00077238  0.67D-05  0.71D-05  3  3     0.50     0.04
   4      1.12826991    -0.31480138  -499.43261562    -0.00001083    -0.00016868  0.27D-06  0.47D-06  4  4     0.53     0.05
   5      1.12834760    -0.31480073  -499.43261497     0.00000065    -0.00002679  0.31D-07  0.30D-07  5  5     0.56     0.05
   6      1.12835785    -0.31480011  -499.43261435     0.00000062    -0.00000292  0.38D-08  0.21D-08  6  6     0.59     0.05

 Norm of t1 vector:      0.03747055      S-energy:    -0.00000112      T1 diagnostic:  0.00708127
                                                                       D1 diagnostic:  0.02079516
                                                                       D2 diagnostic:  0.14531121 (internal)


 Total CPU time for triples:      0.05 sec


 RESULTS
 =======

  Reference energy                   -499.117814237720
  CCSD singlet pair energy             -0.218970251158
  CCSD triplet pair energy             -0.095828747631
  CCSD correlation energy              -0.314800114204

  Triples (T) contribution             -0.007066693595
  Total correlation energy             -0.321866807799

  CCSD total energy                  -499.432614351924
  CCSD[T] energy                     -499.439849205863
  CCSD-T energy                      -499.439595128344
 !CCSD(T) total energy               -499.439681045519

 Timing summary (sec):

 STEP                 CPU(USER)    SYS     CPU(TOT)    WALL
 Transformation          0.01      0.00      0.01      0.10
 CCSD iterations         0.60      0.02      0.62      0.37
 Triples                 0.05      0.00      0.05      0.06

 Program statistics:

 Available memory in ccsd:               805306159
 Min. memory needed in ccsd:                111039
 Max. memory used in ccsd:                  128182
 Max. memory used in cckext:                173141 ( 6 integral passes)



 **********************************************************************************************************************************
 DATASETS  * FILE   NREC   LENGTH (MB)   RECORD NAMES
              1      20       32.70       500      610      700      900      950      970     1000      129      960     1100   
                                          VAR    BASINP    GEOM    SYMINP    ZMAT    AOBASIS   BASIS     P2S    ABASIS      S 
                                         1400     1410     1200     1210     1080     1600     1650     1300     1700     1380   
                                           T        V       H0       H01     AOSYM     SMH    MOLCAS    ERIS     OPER     JKOP   

              2       4        0.48       700     1000      520     2100   
                                         GEOM     BASIS   MCVARS     RHF  

 PROGRAMS   *        TOTAL   CCSD(T)    HF-SCF       INT
 CPU TIMES  *         0.58      0.29      0.04      0.16
 REAL TIME  *         3.14 SEC
 DISK USED  *        39.94 MB
 **********************************************************************************************************************************

 Dump information in style XML to xml output                                                                      

 Orbitals will not be exported.

 **********************************************************************************************************************************

 CCSD(T)/cc-pVDZ energy=   -499.439681045519

         CCSD(T)          HF-SCF
   -499.43968105   -499.11781424
 **********************************************************************************************************************************
 Molpro calculation terminated
