
 Working directory              : /var/folders/2v/xbgp75_9785319ghcgb4zr4r0000gp/T//molpro.O1zg2otaj9/
 Global scratch directory       : /var/folders/2v/xbgp75_9785319ghcgb4zr4r0000gp/T//molpro.O1zg2otaj9/
 Wavefunction directory         : /Users/sacpjk/wfu/
 Main file repository           : /var/folders/2v/xbgp75_9785319ghcgb4zr4r0000gp/T//molpro.O1zg2otaj9/

 id        : peterk

 Nodes                        nprocs
 Cardiff-University-G34YLXT77Y    1
 GA implementation: MPI file
 GA implementation (serial work in mppx): MPI file

 Using customized tuning parameters: mindgm=1; mindgv=20; mindgc=4; mindgr=1; noblas=0; minvec=7
 default implementation of scratch files=df  


 Variables initialized (1032), CPU time= 0.00 sec
 
 symmetry,nosym
 
 
 geometry={
 8
  c         -0.599179283624   -0.073947245371   -2.181549262247
  h         -1.661184757513   -0.073903693025   -2.187469867169
  c          0.612659846218   -0.074040771100   -2.178320389897
  h          1.674686116244   -0.074170208913   -2.178516658034
  c         -0.004809305818    0.054960260919    1.576327718762
  h         -0.001414925875    0.021225208683    0.513030837012
  c         -0.008745728896    0.093250284111    2.787793101879
  h         -0.012011960631    0.126626164698    3.848704519799
 }
 basis=aug-cc-pVTZ
 
 
 
 hf; mp3; counterpoise
 
 
 
 {put,xml;noorbitals,nobasis}
 Commands initialized (841), CPU time= 0.00 sec, 704 directives.
 Default parameters read. Elapsed time= 0.07 sec

 Checking input...
 Passed
1


                                         ***  PROGRAM SYSTEM MOLPRO  ***
                                       Copyright, TTI GmbH Stuttgart, 2015
                                    Version 2023.1 linked Tue Jun  6 09:54:11 2023


 **********************************************************************************************************************************
 LABEL *                                                                                                                                                                 
  64 bit serial version                                                                  DATE: 07-Jun-23          TIME: 08:02:39  
 **********************************************************************************************************************************

 SHA1:             8ebb0dd001088a5c915591db1a321413035db0b1
 **********************************************************************************************************************************

 Memory per process:       805 MW
 Total memory per node:   1074 MW
 Total GA space:           268 MW

 GA preallocation disabled
 GA check enabled

 Variable memory set to 805.3 MW

 ZSYMEL=NOSYM


 Geometry recognized as XYZ

 SETTING BASIS          =    AUG-CC-PVTZ


 Recomputing integrals since basis changed


 Using spherical harmonics

 Library entry C      S aug-cc-pVTZ          selected for orbital group  1
 Library entry C      P aug-cc-pVTZ          selected for orbital group  1
 Library entry C      D aug-cc-pVTZ          selected for orbital group  1
 Library entry C      F aug-cc-pVTZ          selected for orbital group  1
 Library entry H      S aug-cc-pVTZ          selected for orbital group  2
 Library entry H      P aug-cc-pVTZ          selected for orbital group  2
 Library entry H      D aug-cc-pVTZ          selected for orbital group  2


 PROGRAM * SEWARD (Integral evaluation for generally contracted gaussian basis sets)     Author: Roland Lindh, 1990

 Geometry written to block  1 of record 700


 Point group  C1  



 ATOMIC COORDINATES

 NR  ATOM    CHARGE       X              Y              Z

   1  C       6.00   -1.132284746   -0.139740041   -4.122530633
   2  H       1.00   -3.139184234   -0.139657739   -4.133718955
   3  C       6.00    1.157759317   -0.139916779   -4.116428949
   4  H       1.00    3.164698104   -0.140161381   -4.116799842
   5  C       6.00   -0.009088271    0.103859841    2.978827671
   6  H       1.00   -0.002673822    0.040109831    0.969487775
   7  C       6.00   -0.016527032    0.176217498    5.268165455
   8  H       1.00   -0.022699316    0.239288771    7.272997477

 Bond lengths in Bohr (Angstrom)

 1-2  2.006930677  1-3  2.290052198  3-4  2.006938837  5-6  2.010361168  5-7  2.290493059
     ( 1.062021978)     ( 1.211843435)     ( 1.062026296)     ( 1.063837316)     ( 1.212076729)

 7-8  2.005833373
     ( 1.061441310)

 Bond angles

  1-3-4  179.83673055   2-1-3  179.83323133   5-7-8  179.98711663   6-5-7  179.99237077

 NUCLEAR CHARGE:                   28
 NUMBER OF PRIMITIVE AOS:         376
 NUMBER OF SYMMETRY AOS:          332
 NUMBER OF CONTRACTIONS:          276   (  276A   )
 NUMBER OF INNER CORE ORBITALS:     0   (    0A   )
 NUMBER OF OUTER CORE ORBITALS:     4   (    4A   )
 NUMBER OF VALENCE ORBITALS:       20   (   20A   )


 NUCLEAR REPULSION ENERGY   73.51391653


 Eigenvalues of metric

         1 0.543E-05 0.799E-05 0.801E-05 0.126E-04 0.258E-04 0.681E-04 0.947E-04 0.981E-04


 Contracted 2-electron integrals neglected if value below      1.0D-12
 AO integral compression algorithm  1   Integral accuracy      1.0D-12

     2657.092 MB (compressed) written to integral file ( 40.2%)


 NUMBER OF SORTED TWO-ELECTRON INTEGRALS:  730632651.     BUFFER LENGTH:  32768
 NUMBER OF SEGMENTS:  46  SEGMENT LENGTH:   15999984      RECORD LENGTH: 262144

 Memory used in sort:      16.29 MW

 SORT1 READ   826065247. AND WROTE   615124118. INTEGRALS IN   3541 RECORDS. CPU TIME:     6.25 SEC, REAL TIME:    10.63 SEC
 SORT2 READ   615124118. AND WROTE   730632651. INTEGRALS IN  10136 RECORDS. CPU TIME:     4.56 SEC, REAL TIME:    15.84 SEC

 FILE SIZES:   FILE 1:  2690.0 MBYTE,  FILE 4:  7426.1 MBYTE,   TOTAL:  10116.1 MBYTE

 OPERATOR DM      FOR CENTER  0  COORDINATES:    0.000000    0.000000    0.000000


 **********************************************************************************************************************************
 DATASETS  * FILE   NREC   LENGTH (MB)   RECORD NAMES
              1      19     2260.40       500      610      700      900      950      970     1000      129      960     1100   
                                          VAR    BASINP    GEOM    SYMINP    ZMAT    AOBASIS   BASIS     P2S    ABASIS      S 
                                         1400     1410     1200     1210     1080     1600     1650     1300     1700   
                                           T        V       H0       H01     AOSYM     SMH    MOLCAS    ERIS     OPER   

 PROGRAMS   *        TOTAL       INT
 CPU TIMES  *        26.61     26.52
 REAL TIME  *        49.59 SEC
 DISK USED  *         9.42 GB
 **********************************************************************************************************************************


 Program * Restricted Hartree-Fock

 Orbital guess generated from atomic densities. Full valence occupancy:   24

 Initial occupancy:  14

 NELEC=   28   SYM=1   MS2= 0   THRE=1.0D-08   THRD=3.2D-06   THRG=3.2D-06  HFMA2=F  DIIS_START=2   DIIS_MAX=10   DIIS_INCORE=F

 Level shifts:    0.00 (CLOSED)    0.00 (OPEN)    0.30 (GAP_MIN)

 ITER           ETOT              DE          GRAD        DDIFF     DIIS  NEXP   TIME(IT)  TIME(TOT)  DIAG
   1     -153.66938885    -153.66938885     0.00D+00     0.40D-01     0     0       3.44      6.53    start
   2     -153.69644791      -0.02705906     0.27D-02     0.61D-02     1     0       3.51     10.04    diag
   3     -153.69890324      -0.00245533     0.80D-03     0.11D-02     2     0       3.52     13.56    diag
   4     -153.69916526      -0.00026202     0.18D-03     0.45D-03     3     0       3.57     17.13    diag
   5     -153.69917768      -0.00001243     0.45D-04     0.84D-04     4     0       3.51     20.64    diag
   6     -153.69917952      -0.00000184     0.20D-04     0.22D-04     5     0       3.50     24.14    diag
   7     -153.69917968      -0.00000016     0.46D-05     0.90D-05     6     0       3.45     27.59    diag
   8     -153.69917968      -0.00000000     0.59D-06     0.21D-05     7     0       3.51     31.10    fixocc
   9     -153.69917968      -0.00000000     0.20D-06     0.30D-06     0     0       3.50     34.60    diag

 Final occupancy:  14

 !RHF STATE 1.1 Energy               -153.699179684693
  RHF One-electron energy            -351.241300741079
  RHF Two-electron energy             124.028204530238
  RHF Kinetic energy                  153.290820578166
  RHF Nuclear energy                   73.513916526148
  RHF Virial quotient                  -1.002663950163

 !RHF STATE 1.1 Dipole moment           0.00050895    -0.00499793    -0.14032674
 Dipole moment /Debye                   0.00129361    -0.01270348    -0.35667499

 Orbital energies:

           1.1          2.1          3.1          4.1          5.1          6.1          7.1          8.1          9.1         10.1
    -11.256566   -11.252955   -11.238729   -11.235064    -1.039345    -1.021035    -0.778662    -0.761422    -0.690787    -0.673597

          11.1         12.1         13.1         14.1         15.1         16.1
     -0.420782    -0.419451    -0.402173    -0.401878     0.028707     0.032427


 HOMO     14.1    -0.401878 =     -10.9357eV
 LUMO     15.1     0.028707 =       0.7812eV
 LUMO-HOMO         0.430586 =      11.7168eV

 Orbitals saved in record  2100.2


 **********************************************************************************************************************************
 DATASETS  * FILE   NREC   LENGTH (MB)   RECORD NAMES
              1      19     2260.40       500      610      700      900      950      970     1000      129      960     1100   
                                          VAR    BASINP    GEOM    SYMINP    ZMAT    AOBASIS   BASIS     P2S    ABASIS      S 
                                         1400     1410     1200     1210     1080     1600     1650     1300     1700   
                                           T        V       H0       H01     AOSYM     SMH    MOLCAS    ERIS     OPER   

              2       4        1.70       700     1000      520     2100   
                                         GEOM     BASIS   MCVARS     RHF  

 PROGRAMS   *        TOTAL    HF-SCF       INT
 CPU TIMES  *        61.21     34.60     26.52
 REAL TIME  *        98.65 SEC
 DISK USED  *         9.42 GB
 **********************************************************************************************************************************


 PROGRAM * MP3 (Closed-shell)     Authors: C. Hampel, H.-J. Werner, 1991, M. Deegan, P.J. Knowles, 1992


 Convergence thresholds:  THRVAR = 1.00D-08  THRDEN = 1.00D-06

 Number of core orbitals:           4 (   4 )
 Number of closed-shell orbitals:  10 (  10 )
 Number of external orbitals:     262 ( 262 )

 Molecular orbitals read from record     2100.2  Type=RHF/CANONICAL  

 Number of N-1 electron functions:              10
 Number of N-2 electron functions:              55
 Number of singly external CSFs:              2620
 Number of doubly external CSFs:           3433510
 Total number of CSFs:                     3436131

 Length of J-op  integral file:               0.00 MB
 Length of K-op  integral file:               5.29 MB

 Integral transformation finished. Total CPU:   6.20 sec, npass=  1  Memory used:   8.67 MW

 Reference energy:                   -153.69917968

                        CORR.ENERGY   TOTAL ENERGY   ENERGY CHANGE
 MP2:                   -0.63203082  -154.33121050    -0.63203082

 SCS-MP2 correlation energy:           -0.63176472   (PS=  1.200000  PT=  0.333333)
 SCS-MP2 total energy:               -154.33094440

 MP3(D):                -0.64947038  -154.34865006    -0.01743956



 RESULTS
 =======

  Reference energy                   -153.699179684693
  MP3 singlet pair energy              -0.449209309734
  MP3 triplet pair energy              -0.200261067170
  MP3 correlation energy               -0.649470376905

 !MP3 total energy                   -154.348650061597

 Timing summary (sec):

 STEP                 CPU(USER)    SYS     CPU(TOT)    WALL
 Transformation          6.38      0.50      6.88      8.18
 CCSD iterations        72.66      0.48     73.14     14.13

 Program statistics:

 Available memory in ccsd:               805305954
 Min. memory needed in ccsd:               9354231
 Max. memory used in ccsd:                12370511
 Max. memory used in cckext:               9003488 ( 1 integral passes)



 **********************************************************************************************************************************
 DATASETS  * FILE   NREC   LENGTH (MB)   RECORD NAMES
              1      20     2309.57       500      610      700      900      950      970     1000      129      960     1100   
                                          VAR    BASINP    GEOM    SYMINP    ZMAT    AOBASIS   BASIS     P2S    ABASIS      S 
                                         1400     1410     1200     1210     1080     1600     1650     1300     1700     1380   
                                           T        V       H0       H01     AOSYM     SMH    MOLCAS    ERIS     OPER     JKOP   

              2       4        1.70       700     1000      520     2100   
                                         GEOM     BASIS   MCVARS     RHF  

 PROGRAMS   *        TOTAL       MP3    HF-SCF       INT
 CPU TIMES  *        78.96     17.75     34.60     26.52
 REAL TIME  *       121.03 SEC
 DISK USED  *         9.42 GB
 **********************************************************************************************************************************

 Counterpoise: absolute minimum monomer separation=    -1.000 Bragg radius scale factor=     1.400 Number of monomers= 2

 Counterpoise  MP3  energy

 Running default procedure: HF-SCF000  MP3

 Assignment of unique atoms to monomers:
1-8     1     1     1     1     2     2     2     2

 *** Long output written to logfile /Users/sacpjk/current/PAPT/S66/22d5add9/51.molpro/run/1.molpro/1.log ***


 Description                       ENERGY          ENERGR          ENERGC
 Raw                        -154.34865006   -153.69917968   -154.34865006
 Dimer basis, monomer 1      -77.17319211    -76.84919617    -77.17319211
 Dimer basis, monomer 2      -77.17313309    -76.84916273    -77.17313309
 Monomer basis, monomer 1    -77.17290358    -76.84913685    -77.17290358
 Monomer basis, monomer 2    -77.17288847    -76.84908951    -77.17288847
 Counterpoise correction       0.00053314      0.00013254      0.00053314
 Counterpoise corrected     -154.34811692   -153.69904714   -154.34811692


 **********************************************************************************************************************************
 DATASETS  * FILE   NREC   LENGTH (MB)   RECORD NAMES
              1      18       31.41       500      610      700      900      950      970     1000      129      960     1100   
                                          VAR    BASINP    GEOM    SYMINP    ZMAT    AOBASIS   BASIS     P2S    ABASIS      S 
                                         1400     1410     1200     1210     1080     1600     1650     1700   
                                           T        V       H0       H01     AOSYM     SMH    MOLCAS    OPER   

              2       9        5.66       700     1000      520     2100     2101      701     1001     2102      702   
                                         GEOM     BASIS   MCVARS     RHF      RHF     GEOM     BASIS     RHF     GEOM   

 PROGRAMS   *        TOTALCOUNTERPOI    HF-SCF       INT       MP3    HF-SCF       INT       MP3    HF-SCF       INT       MP3
 CPU TIMES  *       172.63      0.69      2.16      1.80      0.83      2.34      1.95      9.05     33.91      0.04      9.91
 REAL TIME  *       236.62 SEC
 DISK USED  *         9.42 GB
 **********************************************************************************************************************************

 Dump information in style XML to xml output                                                                      

 Orbitals will not be exported.

 **********************************************************************************************************************************

 MP3/aug-cc-pVTZ energy=   -154.348116917787

             MP3          HF-SCF             MP3          HF-SCF             MP3          HF-SCF             MP3          HF-SCF
    -77.17288847    -76.84908951    -77.17290358    -76.84913685    -77.17313309    -76.84916273    -77.17319211    -76.84919617
 **********************************************************************************************************************************
 Molpro calculation terminated
