
 Working directory              : /var/folders/2v/xbgp75_9785319ghcgb4zr4r0000gp/T//molpro.BMFQOuA3dW/
 Global scratch directory       : /var/folders/2v/xbgp75_9785319ghcgb4zr4r0000gp/T//molpro.BMFQOuA3dW/
 Wavefunction directory         : /Users/sacpjk/wfu/
 Main file repository           : /var/folders/2v/xbgp75_9785319ghcgb4zr4r0000gp/T//molpro.BMFQOuA3dW/

 id        : peterk

 Nodes                        nprocs
 Cardiff-University-G34YLXT77Y    1
 GA implementation: MPI file
 GA implementation (serial work in mppx): MPI file

 Using customized tuning parameters: mindgm=1; mindgv=20; mindgc=4; mindgr=1; noblas=0; minvec=7
 default implementation of scratch files=df  


 Variables initialized (1032), CPU time= 0.00 sec
 
 core,small
 angstrom
 
 geometry={
 H;C,H,1.06553056;N,C,1.15383982,H,180
 }
 basis=cc-pCVQZ
 
 
 
 hf; ccsd(t)
 
 
 
 {put,xml;noorbitals,nobasis}
 Commands initialized (841), CPU time= 0.01 sec, 704 directives.
 Default parameters read. Elapsed time= 0.80 sec

 Checking input...
 Passed
1


                                         ***  PROGRAM SYSTEM MOLPRO  ***
                                       Copyright, TTI GmbH Stuttgart, 2015
                                    Version 2023.1 linked Tue Jun  6 09:54:11 2023


 **********************************************************************************************************************************
 LABEL *                                                                                                                                                                 
  64 bit serial version                                                                  DATE: 12-Jun-23          TIME: 10:56:26  
 **********************************************************************************************************************************

 SHA1:             8ebb0dd001088a5c915591db1a321413035db0b1
 **********************************************************************************************************************************

 Memory per process:       393 MW
 Total memory per node:    524 MW
 Total GA space:           131 MW

 GA preallocation disabled
 GA check enabled

 Variable memory set to 393.2 MW

 ZUNIT=ANG

 SETTING BASIS          =    CC-PCVQZ


 Recomputing integrals since basis changed


 Using spherical harmonics

 Library entry H      S cc-pVQZ              selected for orbital group  1
 Library entry H      P cc-pVQZ              selected for orbital group  1
 Library entry H      D cc-pVQZ              selected for orbital group  1
 Library entry H      F cc-pVQZ              selected for orbital group  1
 Library entry C      S cc-pCVQZ             selected for orbital group  2
 Library entry C      P cc-pCVQZ             selected for orbital group  2
 Library entry C      D cc-pCVQZ             selected for orbital group  2
 Library entry C      F cc-pCVQZ             selected for orbital group  2
 Library entry C      G cc-pCVQZ             selected for orbital group  2
 Library entry N      S cc-pCVQZ             selected for orbital group  3
 Library entry N      P cc-pCVQZ             selected for orbital group  3
 Library entry N      D cc-pCVQZ             selected for orbital group  3
 Library entry N      F cc-pCVQZ             selected for orbital group  3
 Library entry N      G cc-pCVQZ             selected for orbital group  3


 PROGRAM * SEWARD (Integral evaluation for generally contracted gaussian basis sets)     Author: Roland Lindh, 1990

 Geometry written to block  1 of record 700

 Orientation using atomic masses  
 Molecule type: Linear
 Symmetry elements: X,Y
 Rotational constants:      44.4511927     44.4511927      0.0000000 GHz  (calculated with average atomic masses)

 Point group  C2v 



 ATOMIC COORDINATES

 NR  ATOM    CHARGE       X              Y              Z

   1  H       1.00    0.000000000    0.000000000   -3.068530878
   2  C       6.00    0.000000000    0.000000000   -1.054969942
   3  N       7.00    0.000000000    0.000000000    1.125471309

 Bond lengths in Bohr (Angstrom)

 1-2  2.013560936  2-3  2.180441251
     ( 1.065530560)     ( 1.153839820)

 Bond angles

  1-2-3  179.99999879

 NUCLEAR CHARGE:                   14
 NUMBER OF PRIMITIVE AOS:         271
 NUMBER OF SYMMETRY AOS:          226
 NUMBER OF CONTRACTIONS:          198   (   81A1  +   47B1  +   47B2  +   23A2  )
 NUMBER OF INNER CORE ORBITALS:     0   (    0A1  +    0B1  +    0B2  +    0A2  )
 NUMBER OF OUTER CORE ORBITALS:     2   (    2A1  +    0B1  +    0B2  +    0A2  )
 NUMBER OF VALENCE ORBITALS:        9   (    5A1  +    2B1  +    2B2  +    0A2  )


 NUCLEAR REPULSION ENERGY   23.91100196

 EXTRA SYMMETRY OF AOS IN SYMMETRY 1:   1 1 1 1 1 1 1 1 2 1   2 1 2 1 1 1 1 1 1 1   1 1 1 1 1 1 1 1 1 2   1 2 1 2 1 2 1 2 1 2
                                        1 2 1 2 1 3 2 1 1 1   1 1 1 1 1 1 1 1 1 1   1 1 1 2 1 2 1 2 1 2   1 2 1 2 1 2 1 2 1 3
                                        2
 EXTRA SYMMETRY OF AOS IN SYMMETRY 2:   1 1 1 1 1 1 2 1 1 1   1 1 1 1 1 1 1 1 1 1   2 1 2 1 2 1 2 1 1 1   1 1 1 1 1 1 1 1 1 1
                                        2 1 2 1 2 1 2
 EXTRA SYMMETRY OF AOS IN SYMMETRY 3:   1 1 1 1 1 1 2 1 1 1   1 1 1 1 1 1 1 1 1 1   2 1 2 1 2 1 2 1 1 1   1 1 1 1 1 1 1 1 1 1
                                        2 1 2 1 2 1 2
 EXTRA SYMMETRY OF AOS IN SYMMETRY 4:   1 1 1 1 1 1 1 1 1 1   1 1 2 1 1 1 1 1 1 1   1 1 2

 Eigenvalues of metric

         1 0.264E-04 0.272E-04 0.170E-03 0.189E-03 0.727E-03 0.971E-03 0.121E-02 0.145E-02
         2 0.134E-02 0.192E-02 0.370E-02 0.670E-02 0.195E-01 0.499E-01 0.857E-01 0.950E-01
         3 0.134E-02 0.192E-02 0.370E-02 0.670E-02 0.195E-01 0.499E-01 0.857E-01 0.950E-01
         4 0.744E-01 0.110E+00 0.167E+00 0.197E+00 0.367E+00 0.438E+00 0.462E+00 0.481E+00


 Contracted 2-electron integrals neglected if value below      1.0D-12
 AO integral compression algorithm  1   Integral accuracy      1.0D-12

     199.754 MB (compressed) written to integral file ( 40.0%)


 NUMBER OF SORTED TWO-ELECTRON INTEGRALS:   50085456.     BUFFER LENGTH:  32768
 NUMBER OF SEGMENTS:   4  SEGMENT LENGTH:   15999498      RECORD LENGTH: 524288

 Memory used in sort:      16.56 MW

 SORT1 READ    62358122. AND WROTE    33260610. INTEGRALS IN     97 RECORDS. CPU TIME:     0.59 SEC, REAL TIME:     0.70 SEC
 SORT2 READ    33260610. AND WROTE    50085456. INTEGRALS IN    762 RECORDS. CPU TIME:     0.43 SEC, REAL TIME:     0.52 SEC

 FILE SIZES:   FILE 1:   230.7 MBYTE,  FILE 4:   406.9 MBYTE,   TOTAL:    637.6 MBYTE

 OPERATOR DM      FOR CENTER  0  COORDINATES:    0.000000    0.000000    0.000000


 **********************************************************************************************************************************
 DATASETS  * FILE   NREC   LENGTH (MB)   RECORD NAMES
              1      19      184.56       500      610      700      900      950      970     1000      129      960     1100   
                                          VAR    BASINP    GEOM    SYMINP    ZMAT    AOBASIS   BASIS     P2S    ABASIS      S 
                                         1400     1410     1200     1210     1080     1600     1650     1300     1700   
                                           T        V       H0       H01     AOSYM     SMH    MOLCAS    ERIS     OPER   

 PROGRAMS   *        TOTAL       INT
 CPU TIMES  *         4.90      4.79
 REAL TIME  *         9.13 SEC
 DISK USED  *       608.43 MB
 **********************************************************************************************************************************


 Program * Restricted Hartree-Fock

 Orbital guess generated from atomic densities. Full valence occupancy:    7   2   2   0

 Initial occupancy:   5   1   1   0

 NELEC=   14   SYM=1   MS2= 0   THRE=1.0D-08   THRD=3.2D-06   THRG=3.2D-06  HFMA2=F  DIIS_START=2   DIIS_MAX=10   DIIS_INCORE=F

 Level shifts:    0.00 (CLOSED)    0.00 (OPEN)    0.30 (GAP_MIN)

 ITER           ETOT              DE          GRAD        DDIFF     DIIS  NEXP   TIME(IT)  TIME(TOT)  DIAG
   1      -92.88997945     -92.88997945     0.00D+00     0.66D-01     0     0       0.12      0.23    start
   2      -92.89897910      -0.00899965     0.71D-02     0.71D-02     1     0       0.12      0.35    diag
   3      -92.91422267      -0.01524357     0.63D-02     0.37D-02     2     0       0.12      0.47    diag
   4      -92.91445304      -0.00023037     0.53D-03     0.57D-03     3     0       0.12      0.59    diag
   5      -92.91446622      -0.00001317     0.11D-03     0.17D-03     4     0       0.13      0.72    diag
   6      -92.91446700      -0.00000078     0.31D-04     0.40D-04     5     0       0.13      0.85    diag
   7      -92.91446707      -0.00000008     0.11D-04     0.14D-04     6     0       0.13      0.98    diag
   8      -92.91446708      -0.00000000     0.24D-05     0.26D-05     7     0       0.13      1.11    fixocc
   9      -92.91446708      -0.00000000     0.27D-06     0.27D-06     0     0       0.13      1.24    diag

 Final occupancy:   5   1   1   0

 !RHF STATE 1.1 Energy                -92.914467075476
  RHF One-electron energy            -172.625534570246
  RHF Two-electron energy              55.800065535080
  RHF Kinetic energy                   92.723964150976
  RHF Nuclear energy                   23.911001959690
  RHF Virial quotient                  -1.002054516610

 !RHF STATE 1.1 Dipole moment           0.00000000     0.00000000    -1.29122920
 Dipole moment /Debye                   0.00000000     0.00000000    -3.28197725

 Orbital energies:

           1.1          2.1          3.1          4.1          5.1          6.1          7.1
    -15.598067   -11.290965    -1.235781    -0.812987    -0.582042     0.116515     0.185633

           1.2          2.2          3.2
     -0.496432     0.152045     0.337799

           1.3          2.3          3.3
     -0.496432     0.152045     0.337799

           1.4          2.4
      0.597369     1.074367


 HOMO      1.3    -0.496432 =     -13.5086eV
 LUMO      6.1     0.116515 =       3.1705eV
 LUMO-HOMO         0.612947 =      16.6791eV

 Orbitals saved in record  2100.2


 **********************************************************************************************************************************
 DATASETS  * FILE   NREC   LENGTH (MB)   RECORD NAMES
              1      19      184.56       500      610      700      900      950      970     1000      129      960     1100   
                                          VAR    BASINP    GEOM    SYMINP    ZMAT    AOBASIS   BASIS     P2S    ABASIS      S 
                                         1400     1410     1200     1210     1080     1600     1650     1300     1700   
                                           T        V       H0       H01     AOSYM     SMH    MOLCAS    ERIS     OPER   

              2       4        0.59       700     1000      520     2100   
                                         GEOM     BASIS   MCVARS     RHF  

 PROGRAMS   *        TOTAL    HF-SCF       INT
 CPU TIMES  *         6.14      1.25      4.79
 REAL TIME  *        12.00 SEC
 DISK USED  *       608.43 MB
 **********************************************************************************************************************************


 PROGRAM * CCSD (Closed-shell coupled cluster)     Authors: C. Hampel, H.-J. Werner, 1991, M. Deegan, P.J. Knowles, 1992


 CORETYPE=SMALL

 Convergence thresholds:  THRVAR = 1.00D-08  THRDEN = 1.00D-06

 CCSD(T)     terms to be evaluated (factor= 1.000)


 Number of closed-shell orbitals:   7 (   5   1   1   0 )
 Number of external orbitals:     191 (  76  46  46  23 )

 Molecular orbitals read from record     2100.2  Type=RHF/CANONICAL  

 Number of N-1 electron functions:               7
 Number of N-2 electron functions:              28
 Number of singly external CSFs:               472
 Number of doubly external CSFs:            241726
 Total number of CSFs:                      242199

 Length of J-op  integral file:               0.00 MB
 Length of K-op  integral file:               0.85 MB
 Length of 3-ext integral record:             0.00 MB

 Memory could be reduced to 17.83 Mwords without degradation in triples

 Integral transformation finished. Total CPU:   0.37 sec, npass=  1  Memory used:   2.38 MW

 Reference energy:                    -92.91446708

 MP2 singlet pair energy:              -0.32807279
 MP2 triplet pair energy:              -0.14827893
 MP2 correlation energy:               -0.47635172
 MP2 total energy:                    -93.39081880

 SCS-MP2 correlation energy:           -0.48594980   (PS=  1.200000  PT=  0.333333)
 SCS-MP2 total energy:                -93.40041687

 ITER.      SQ.NORM     CORR.ENERGY   TOTAL ENERGY   ENERGY CHANGE        DEN1      VAR(S)    VAR(P)  DIIS     TIME  TIME/IT
   1      1.11697389    -0.47887589   -93.39334297    -0.00252417     0.01196816  0.30D-02  0.31D-02  1  1     7.02     0.56
   2      1.12662597    -0.47881001   -93.39327708     0.00006589    -0.01149231  0.48D-04  0.41D-03  2  2     7.40     0.53
   3      1.13056812    -0.47899265   -93.39345973    -0.00018265    -0.00178864  0.22D-04  0.58D-04  3  3     7.84     0.53
   4      1.13322923    -0.47901106   -93.39347814    -0.00001841    -0.00118096  0.62D-06  0.58D-05  4  4     8.27     0.52
   5      1.13383167    -0.47902248   -93.39348955    -0.00001141    -0.00016578  0.10D-06  0.47D-06  5  5     8.67     0.52
   6      1.13393403    -0.47902610   -93.39349318    -0.00000363    -0.00001201  0.90D-08  0.40D-07  6  6     9.12     0.53
   7      1.13394616    -0.47902743   -93.39349450    -0.00000133    -0.00000304  0.10D-08  0.39D-08  6  1     9.82     0.58
   8      1.13394986    -0.47902764   -93.39349471    -0.00000021    -0.00000170  0.94D-10  0.21D-09  6  2    10.21     0.57
   9      1.13394964    -0.47902773   -93.39349480    -0.00000009     0.00000025  0.50D-11  0.15D-10  6  3    10.63     0.56

 Norm of t1 vector:      0.06768412      S-energy:     0.00000004      T1 diagnostic:  0.01279110
                                                                       D1 diagnostic:  0.03098232
                                                                       D2 diagnostic:  0.17708343 (internal)

 Doubles amplitudes (print threshold =  0.500E-01):

         I         J         SYM. A    SYM. B    A         B      T(IJ, AB)

         6         6         2         2         1         1     -0.07506315
         7         7         3         3         1         1     -0.07506315


 Total CPU time for triples:      3.31 sec


 RESULTS
 =======

  Reference energy                    -92.914467075476

  Correlated core orbitals:             1.1       2.1
  Orbital energies:                   -15.5981  -11.2910

  CCSD core-core energy                -0.081400107490
  CCSD core-valence energy             -0.030192119675
  CCSD valence correlation energy      -0.367435500568

  CCSD singlet pair energy             -0.351970953378
  CCSD triplet pair energy             -0.127056815628
  CCSD correlation energy              -0.479027727733

  Triples (T) contribution             -0.020586776377
  Total correlation energy             -0.499614504110

  CCSD total energy                   -93.393494803209
  CCSD[T] energy                      -93.415042473438
  CCSD-T energy                       -93.413661114949
 !CCSD(T) total energy                -93.414081579586

 Timing summary (sec):

 STEP                 CPU(USER)    SYS     CPU(TOT)    WALL
 Transformation          0.38      0.05      0.43      1.71
 CCSD iterations        10.26      0.41     10.67      6.64
 Triples                 3.31      0.19      3.50      3.67

 Program statistics:

 Available memory in ccsd:               393215799
 Min. memory needed in ccsd:                782056
 Max. memory used in ccsd:                  983373
 Max. memory used in cckext:               1049265 ( 9 integral passes)



 **********************************************************************************************************************************
 DATASETS  * FILE   NREC   LENGTH (MB)   RECORD NAMES
              1      20      236.49       500      610      700      900      950      970     1000      129      960     1100   
                                          VAR    BASINP    GEOM    SYMINP    ZMAT    AOBASIS   BASIS     P2S    ABASIS      S 
                                         1400     1410     1200     1210     1080     1600     1650     1300     1700     1380   
                                           T        V       H0       H01     AOSYM     SMH    MOLCAS    ERIS     OPER     JKOP   

              2       4        0.59       700     1000      520     2100   
                                         GEOM     BASIS   MCVARS     RHF  

 PROGRAMS   *        TOTAL   CCSD(T)    HF-SCF       INT
 CPU TIMES  *        13.85      7.71      1.25      4.79
 REAL TIME  *        25.17 SEC
 DISK USED  *       608.43 MB
 **********************************************************************************************************************************

 Dump information in style XML to xml output                                                                      

 Orbitals will not be exported.

 **********************************************************************************************************************************

 CCSD(T)/cc-pCVQZ energy=    -93.414081579586

         CCSD(T)          HF-SCF
    -93.41408158    -92.91446708
 **********************************************************************************************************************************
 Molpro calculation terminated
