
 Working directory              : /var/folders/2v/xbgp75_9785319ghcgb4zr4r0000gp/T//molpro.VDUnVtT0I9/
 Global scratch directory       : /var/folders/2v/xbgp75_9785319ghcgb4zr4r0000gp/T//molpro.VDUnVtT0I9/
 Wavefunction directory         : /Users/sacpjk/wfu/
 Main file repository           : /var/folders/2v/xbgp75_9785319ghcgb4zr4r0000gp/T//molpro.VDUnVtT0I9/

 id        : peterk

 Nodes                        nprocs
 Cardiff-University-G34YLXT77Y    1
 GA implementation: MPI file
 GA implementation (serial work in mppx): MPI file

 Using customized tuning parameters: mindgm=1; mindgv=20; mindgc=4; mindgr=1; noblas=0; minvec=7
 default implementation of scratch files=df  


 Variables initialized (1032), CPU time= 0.01 sec
 
 symmetry,nosym
 
 
 geometry={
            7
     F          2.13770264      0.08258780     -0.00019942
     C          0.37794222      0.10635278      0.00019758
     H          0.32799218      1.17531485     -0.01182043
     H          0.32424814     -0.43224626     -0.92301475
     H          0.32457115     -0.41169619      0.93505886
     O         -1.60571838      0.19903310     -0.00018942
     H         -1.88673796     -0.71934608     -0.00003242
 }
 basis=cc-pVTZ
 
 charge=-1
 
 hf; hf; papt; mp3
 
 
 
 {put,xml;noorbitals,nobasis}
 Commands initialized (841), CPU time= 0.00 sec, 704 directives.
 Default parameters read. Elapsed time= 0.51 sec

 Checking input...
 Passed
1


                                         ***  PROGRAM SYSTEM MOLPRO  ***
                                       Copyright, TTI GmbH Stuttgart, 2015
                                    Version 2023.1 linked Tue Jun  6 09:54:11 2023


 **********************************************************************************************************************************
 LABEL *                                                                                                                                                                 
  64 bit serial version                                                                  DATE: 09-Jun-23          TIME: 15:37:19  
 **********************************************************************************************************************************

 SHA1:             8ebb0dd001088a5c915591db1a321413035db0b1
 **********************************************************************************************************************************

 Memory per process:       805 MW
 Total memory per node:   1074 MW
 Total GA space:           268 MW

 GA preallocation disabled
 GA check enabled

 Variable memory set to 805.3 MW

 ZSYMEL=NOSYM


 Geometry recognized as XYZ

 SETTING BASIS          =    CC-PVTZ
 SETTING CHARGE         =        -1.00000000                                  


 Recomputing integrals since basis changed


 Using spherical harmonics

 Library entry F      S cc-pVTZ              selected for orbital group  1
 Library entry F      P cc-pVTZ              selected for orbital group  1
 Library entry F      D cc-pVTZ              selected for orbital group  1
 Library entry F      F cc-pVTZ              selected for orbital group  1
 Library entry C      S cc-pVTZ              selected for orbital group  2
 Library entry C      P cc-pVTZ              selected for orbital group  2
 Library entry C      D cc-pVTZ              selected for orbital group  2
 Library entry C      F cc-pVTZ              selected for orbital group  2
 Library entry H      S cc-pVTZ              selected for orbital group  3
 Library entry H      P cc-pVTZ              selected for orbital group  3
 Library entry H      D cc-pVTZ              selected for orbital group  3
 Library entry O      S cc-pVTZ              selected for orbital group  4
 Library entry O      P cc-pVTZ              selected for orbital group  4
 Library entry O      D cc-pVTZ              selected for orbital group  4
 Library entry O      F cc-pVTZ              selected for orbital group  4


 PROGRAM * SEWARD (Integral evaluation for generally contracted gaussian basis sets)     Author: Roland Lindh, 1990

 Geometry written to block  1 of record 700


 Point group  C1  



 ATOMIC COORDINATES

 NR  ATOM    CHARGE       X              Y              Z

   1  F       9.00    4.039672525    0.156068323   -0.000376849
   2  C       6.00    0.714207287    0.200977627    0.000373372
   3  H       1.00    0.619815391    2.221023177   -0.022337375
   4  H       1.00    0.612740181   -0.816827050   -1.744245086
   5  H       1.00    0.613350581   -0.777993046    1.767005156
   6  O       8.00   -3.034367971    0.376118049   -0.000357952
   7  H       1.00   -3.565418013   -1.359367080   -0.000061265

 Bond lengths in Bohr (Angstrom)

 1-2  3.325768552  2-3  2.022377223  2-4  2.022353950  2-5  2.022261979  2-6  3.752664543
     ( 1.759920927)     ( 1.070195938)     ( 1.070183623)     ( 1.070134954)     ( 1.985824556)

 6-7  1.814916766
     ( 0.960412592)

 Bond angles

  1-2-3   93.44869885   1-2-4   92.47466509   1-2-5   92.49480240   1-2-6  178.09854057

  2-6-7  104.33883428   3-2-4  119.38447735   3-2-5  119.40772142   3-2-6   84.64984361

  4-2-5  120.49624797   4-2-6   88.46441585   5-2-6   88.44965287

 NUCLEAR CHARGE:                   27
 NUMBER OF PRIMITIVE AOS:         209
 NUMBER OF SYMMETRY AOS:          190
 NUMBER OF CONTRACTIONS:          146   (  146A   )
 NUMBER OF INNER CORE ORBITALS:     0   (    0A   )
 NUMBER OF OUTER CORE ORBITALS:     3   (    3A   )
 NUMBER OF VALENCE ORBITALS:       16   (   16A   )


 NUCLEAR REPULSION ENERGY   69.00549297


 Eigenvalues of metric

         1 0.117E-02 0.171E-02 0.180E-02 0.231E-02 0.303E-02 0.617E-02 0.731E-02 0.910E-02


 Contracted 2-electron integrals neglected if value below      1.0D-11
 AO integral compression algorithm  1   Integral accuracy      1.0D-11

     210.239 MB (compressed) written to integral file ( 40.9%)


 NUMBER OF SORTED TWO-ELECTRON INTEGRALS:   57582546.     BUFFER LENGTH:  32768
 NUMBER OF SEGMENTS:   4  SEGMENT LENGTH:   15999503      RECORD LENGTH: 524288

 Memory used in sort:      16.56 MW

 SORT1 READ    64202411. AND WROTE    49303367. INTEGRALS IN    143 RECORDS. CPU TIME:     0.47 SEC, REAL TIME:     0.61 SEC
 SORT2 READ    49303367. AND WROTE    57582546. INTEGRALS IN    802 RECORDS. CPU TIME:     0.49 SEC, REAL TIME:     0.61 SEC

 FILE SIZES:   FILE 1:   241.1 MBYTE,  FILE 4:   599.9 MBYTE,   TOTAL:    841.0 MBYTE

 OPERATOR DM      FOR CENTER  0  COORDINATES:    0.000000    0.000000    0.000000


 **********************************************************************************************************************************
 DATASETS  * FILE   NREC   LENGTH (MB)   RECORD NAMES
              1      19      205.12       500      610      700      900      950      970     1000      129      960     1100   
                                          VAR    BASINP    GEOM    SYMINP    ZMAT    AOBASIS   BASIS     P2S    ABASIS      S 
                                         1400     1410     1200     1210     1080     1600     1650     1300     1700   
                                           T        V       H0       H01     AOSYM     SMH    MOLCAS    ERIS     OPER   

 PROGRAMS   *        TOTAL       INT
 CPU TIMES  *         2.55      2.45
 REAL TIME  *         4.27 SEC
 DISK USED  *       802.48 MB
 **********************************************************************************************************************************


 Program * Restricted Hartree-Fock

 Orbital guess generated from atomic densities. Full valence occupancy:   19

 Initial occupancy:  14

 NELEC=   28   SYM=1   MS2= 0   THRE=1.0D-08   THRD=3.2D-06   THRG=3.2D-06  HFMA2=F  DIIS_START=2   DIIS_MAX=10   DIIS_INCORE=F

 Level shifts:    0.00 (CLOSED)    0.00 (OPEN)    0.30 (GAP_MIN)

 ITER           ETOT              DE          GRAD        DDIFF     DIIS  NEXP   TIME(IT)  TIME(TOT)  DIAG
   1     -214.35648132    -214.35648132     0.00D+00     0.70D-01     0     0       0.27      0.53    start
   2     -214.42420989      -0.06772857     0.92D-02     0.13D-01     1     0       0.27      0.80    diag
   3     -214.47771335      -0.05350346     0.69D-02     0.49D-02     2     0       0.27      1.07    diag
   4     -214.47859163      -0.00087829     0.52D-03     0.83D-03     3     0       0.27      1.34    diag
   5     -214.47872378      -0.00013215     0.23D-03     0.27D-03     4     0       0.26      1.60    diag
   6     -214.47875536      -0.00003158     0.97D-04     0.14D-03     5     0       0.28      1.88    diag
   7     -214.47875991      -0.00000455     0.30D-04     0.64D-04     6     0       0.26      2.14    diag
   8     -214.47876030      -0.00000040     0.94D-05     0.20D-04     7     0       0.28      2.42    fixocc
   9     -214.47876032      -0.00000002     0.20D-05     0.50D-05     8     0       0.27      2.69    diag
  10     -214.47876032      -0.00000000     0.50D-06     0.14D-05     9     0       0.26      2.95    diag/orth
  11     -214.47876032      -0.00000000     0.13D-06     0.18D-06     0     0       0.27      3.22    diag

 Final occupancy:  14

 !RHF STATE 1.1 Energy               -214.478760321880
  RHF One-electron energy            -441.795690394533
  RHF Two-electron energy             158.311437100541
  RHF Kinetic energy                  214.512566846206
  RHF Nuclear energy                   69.005492972112
  RHF Virial quotient                  -0.999842403059

 !RHF STATE 1.1 Dipole moment          -0.32663148    -0.70305105     0.00060006
 Dipole moment /Debye                  -0.83021441    -1.78697753     0.00152520

 Orbital energies:

           1.1          2.1          3.1          4.1          5.1          6.1          7.1          8.1          9.1         10.1
    -25.936410   -20.228069   -11.103049    -1.214058    -0.980637    -0.723106    -0.423487    -0.422985    -0.338160    -0.304966

          11.1         12.1         13.1         14.1         15.1         16.1
     -0.293406    -0.282215    -0.177123    -0.158736     0.321299     0.373543


 HOMO     14.1    -0.158736 =      -4.3194eV
 LUMO     15.1     0.321299 =       8.7430eV
 LUMO-HOMO         0.480035 =      13.0624eV

 Orbitals saved in record  2100.2


 **********************************************************************************************************************************
 DATASETS  * FILE   NREC   LENGTH (MB)   RECORD NAMES
              1      19      205.12       500      610      700      900      950      970     1000      129      960     1100   
                                          VAR    BASINP    GEOM    SYMINP    ZMAT    AOBASIS   BASIS     P2S    ABASIS      S 
                                         1400     1410     1200     1210     1080     1600     1650     1300     1700   
                                           T        V       H0       H01     AOSYM     SMH    MOLCAS    ERIS     OPER   

              2       4        0.82       700     1000      520     2100   
                                         GEOM     BASIS   MCVARS     RHF  

 PROGRAMS   *        TOTAL    HF-SCF       INT
 CPU TIMES  *         5.77      3.22      2.45
 REAL TIME  *         8.02 SEC
 DISK USED  *       802.48 MB
 **********************************************************************************************************************************


 Program * Restricted Hartree-Fock

 Molecular orbitals read from record     2100.2  Type=RHF/CANONICAL  

 Initial occupancy:  14

 NELEC=   28   SYM=1   MS2= 0   THRE=1.0D-08   THRD=3.2D-06   THRG=3.2D-06  HFMA2=F  DIIS_START=2   DIIS_MAX=10   DIIS_INCORE=F

 Level shifts:    0.00 (CLOSED)    0.00 (OPEN)    0.30 (GAP_MIN)

 ITER           ETOT              DE          GRAD        DDIFF     DIIS  NEXP   TIME(IT)  TIME(TOT)  DIAG
   1     -214.47876032    -214.47876032     0.00D+00     0.70D-01     0     0       0.26      0.26    start
   2     -214.47876032      -0.00000000     0.63D-07     0.93D-07     1     0       0.26      0.52    diag

 Final occupancy:  14

 !RHF STATE 1.1 Energy               -214.478760321896
  RHF One-electron energy            -441.795694261904
  RHF Two-electron energy             158.311440967896
  RHF Kinetic energy                  214.512571265031
  RHF Nuclear energy                   69.005492972112
  RHF Virial quotient                  -0.999842382463

 !RHF STATE 1.1 Dipole moment          -0.32662088    -0.70305312     0.00060005
 Dipole moment /Debye                  -0.83018747    -1.78698278     0.00152518

 Orbital energies:

           1.1          2.1          3.1          4.1          5.1          6.1          7.1          8.1          9.1         10.1
    -25.936409   -20.228072   -11.103048    -1.214057    -0.980637    -0.723106    -0.423487    -0.422985    -0.338160    -0.304966

          11.1         12.1         13.1         14.1         15.1         16.1
     -0.293406    -0.282215    -0.177124    -0.158737     0.321299     0.373543


 HOMO     14.1    -0.158737 =      -4.3195eV
 LUMO     15.1     0.321299 =       8.7430eV
 LUMO-HOMO         0.480036 =      13.0624eV

 Orbitals saved in record  2101.2


 **********************************************************************************************************************************
 DATASETS  * FILE   NREC   LENGTH (MB)   RECORD NAMES
              1      19      205.12       500      610      700      900      950      970     1000      129      960     1100   
                                          VAR    BASINP    GEOM    SYMINP    ZMAT    AOBASIS   BASIS     P2S    ABASIS      S 
                                         1400     1410     1200     1210     1080     1600     1650     1300     1700   
                                           T        V       H0       H01     AOSYM     SMH    MOLCAS    ERIS     OPER   

              2       5        1.50       700     1000      520     2100     2101   
                                         GEOM     BASIS   MCVARS     RHF      RHF  

 PROGRAMS   *        TOTAL    HF-SCF    HF-SCF       INT
 CPU TIMES  *         6.30      0.53      3.22      2.45
 REAL TIME  *         8.76 SEC
 DISK USED  *       802.48 MB
 **********************************************************************************************************************************


 PROGRAM * PAPT (Closed-shell)     Authors: C. Hampel, H.-J. Werner, 1991, P.J. Knowles, 2021


 Convergence thresholds:  THRVAR = 1.00D-08  THRDEN = 1.00D-06

 Number of core orbitals:           3 (   3 )
 Number of closed-shell orbitals:  11 (  11 )
 Number of external orbitals:     132 ( 132 )

 Molecular orbitals read from record     2101.2  Type=RHF/CANONICAL  

 Number of N-1 electron functions:              11
 Number of N-2 electron functions:              66
 Number of singly external CSFs:              1452
 Number of doubly external CSFs:           1054878
 Total number of CSFs:                     1056331

 Length of J-op  integral file:               0.00 MB
 Length of K-op  integral file:               1.53 MB

 Integral transformation finished. Total CPU:   0.46 sec, npass=  1  Memory used:   2.81 MW

 Reference energy:                   -214.47876032

                        CORR.ENERGY   TOTAL ENERGY   ENERGY CHANGE
 MP2:                   -0.71757838  -215.19633871    -0.71757838

 SCS-MP2 correlation energy:           -0.70893403   (PS=  1.200000  PT=  0.333333)
 SCS-MP2 total energy:               -215.18769435
 Iteration:   1     0.2609D+00
 Iteration:   2     0.2955D+00
 Iteration:   3     0.1565D+00
 Iteration:   4     0.1090D+00
 Iteration:   5     0.2138D+01
 Iteration:   6     0.9138D-01
 Iteration:   7     0.1391D+00
 Iteration:   8     0.5393D-01
 Iteration:   9     0.3832D-01
 Iteration:  10     0.4337D-01
 Iteration:  11     0.1529D-01
 Iteration:  12     0.8532D-01
 Iteration:  13     0.8548D-02
 Iteration:  14     0.7732D-02
 Iteration:  15     0.6990D-02
 Iteration:  16     0.2810D-02
 Iteration:  17     0.9180D-02
 Iteration:  18     0.1426D-02
 Iteration:  19     0.7017D-03
 Iteration:  20     0.5159D-02
 Iteration:  21     0.2499D-03
 Iteration:  22     0.5037D-03
 Iteration:  23     0.1450D-03
 Iteration:  24     0.1096D-03
 Iteration:  25     0.7163D-04
 PAPT operator written to  7000.1
 PAPT orbitals and eigenvalues written to  7000.2

 MP3(D):                -0.72132783  -215.20008815    -0.00374944



 RESULTS
 =======

  Reference energy                   -214.478760321896
  MP3 singlet pair energy              -0.483490968706
  MP3 triplet pair energy              -0.237836857049
  MP3 correlation energy               -0.721327825754

 !MP3 total energy                   -215.200088147651

 Timing summary (sec):

 STEP                 CPU(USER)    SYS     CPU(TOT)    WALL
 Transformation          0.49      0.04      0.53      0.64
 CCSD iterations        10.60      0.21     10.81      5.37

 Program statistics:

 Available memory in ccsd:               805305870
 Min. memory needed in ccsd:               2884166
 Max. memory used in ccsd:                 3801126
 Max. memory used in cckext:               3019439 ( 1 integral passes)



 **********************************************************************************************************************************
 DATASETS  * FILE   NREC   LENGTH (MB)   RECORD NAMES
              1      21      221.67       500      610      700      900      950      970     1000      129      960     1100   
                                          VAR    BASINP    GEOM    SYMINP    ZMAT    AOBASIS   BASIS     P2S    ABASIS      S 
                                         1400     1410     1200     1210     1080     1600     1650     1300     1700     1380   
                                           T        V       H0       H01     AOSYM     SMH    MOLCAS    ERIS     OPER     JKOP   
                                         7000   
                                        PAPT AO    

              2       6        2.08       700     1000      520     2100     2101     7000   
                                         GEOM     BASIS   MCVARS     RHF      RHF     PAPT   

 PROGRAMS   *        TOTAL      PAPT    HF-SCF    HF-SCF       INT
 CPU TIMES  *        10.99      4.69      0.53      3.22      2.45
 REAL TIME  *        14.86 SEC
 DISK USED  *       802.48 MB
 **********************************************************************************************************************************


 PROGRAM * MP3 (Closed-shell)     Authors: C. Hampel, H.-J. Werner, 1991, M. Deegan, P.J. Knowles, 1992


 Convergence thresholds:  THRVAR = 1.00D-08  THRDEN = 1.00D-06

 Number of core orbitals:           3 (   3 )
 Number of closed-shell orbitals:  11 (  11 )
 Number of external orbitals:     132 ( 132 )

 Molecular orbitals read from record     7000.2  Type=PAPT/CANONICAL (state 1.1)

 Number of N-1 electron functions:              11
 Number of N-2 electron functions:              66
 Number of singly external CSFs:              1452
 Number of doubly external CSFs:           1054878
 Total number of CSFs:                     1056331

 Length of J-op  integral file:               0.00 MB
 Length of K-op  integral file:               1.53 MB

 Integral transformation finished. Total CPU:   0.44 sec, npass=  1  Memory used:   2.81 MW
 Orbital energies read from record       7000.2  Type=PAPT/CANONICAL (state 1.1)

 Reference energy:                   -214.47876032

                        CORR.ENERGY   TOTAL ENERGY   ENERGY CHANGE
 MP2:                   -0.72846215  -215.20722247    -0.72846215

 SCS-MP2 correlation energy:           -0.72280422   (PS=  1.200000  PT=  0.333333)
 SCS-MP2 total energy:               -215.20156454

 MP3(D):                -0.72862058  -215.20738091    -0.00015843



 RESULTS
 =======

  Reference energy                   -214.478760321896
  MP3 singlet pair energy              -0.488272792880
  MP3 triplet pair energy              -0.240347791180
  MP3 correlation energy               -0.728620584060

 !MP3 total energy                   -215.207380905956

 Timing summary (sec):

 STEP                 CPU(USER)    SYS     CPU(TOT)    WALL
 Transformation          0.75      0.07      0.82      0.92
 CCSD iterations        12.27      0.08     12.35      1.49

 Program statistics:

 Available memory in ccsd:               805305870
 Min. memory needed in ccsd:               2884166
 Max. memory used in ccsd:                 3801126
 Max. memory used in cckext:               3019439 ( 1 integral passes)



 **********************************************************************************************************************************
 DATASETS  * FILE   NREC   LENGTH (MB)   RECORD NAMES
              1      21      221.67       500      610      700      900      950      970     1000      129      960     1100   
                                          VAR    BASINP    GEOM    SYMINP    ZMAT    AOBASIS   BASIS     P2S    ABASIS      S 
                                         1400     1410     1200     1210     1080     1600     1650     1300     1700     1380   
                                           T        V       H0       H01     AOSYM     SMH    MOLCAS    ERIS     OPER     JKOP   
                                         7000   
                                        PAPT AO    

              2       6        2.08       700     1000      520     2100     2101     7000   
                                         GEOM     BASIS   MCVARS     RHF      RHF     PAPT   

 PROGRAMS   *        TOTAL       MP3      PAPT    HF-SCF    HF-SCF       INT
 CPU TIMES  *        12.92      1.93      4.69      0.53      3.22      2.45
 REAL TIME  *        17.41 SEC
 DISK USED  *       802.48 MB
 **********************************************************************************************************************************

 Dump information in style XML to xml output                                                                      

 Orbitals will not be exported.

 **********************************************************************************************************************************

 MP3/cc-pVTZ energy=   -215.207380905956

             MP3            PAPT          HF-SCF          HF-SCF
   -215.20738091   -215.20008815   -214.47876032   -214.47876032
 **********************************************************************************************************************************
 Molpro calculation terminated
