
 Working directory              : /var/folders/2v/xbgp75_9785319ghcgb4zr4r0000gp/T//molpro.qMZ2a65bhY/
 Global scratch directory       : /var/folders/2v/xbgp75_9785319ghcgb4zr4r0000gp/T//molpro.qMZ2a65bhY/
 Wavefunction directory         : /Users/sacpjk/wfu/
 Main file repository           : /var/folders/2v/xbgp75_9785319ghcgb4zr4r0000gp/T//molpro.qMZ2a65bhY/

 id        : peterk

 Nodes                        nprocs
 Cardiff-University-G34YLXT77Y    1
 GA implementation: MPI file
 GA implementation (serial work in mppx): MPI file

 Using customized tuning parameters: mindgm=1; mindgv=20; mindgc=4; mindgr=1; noblas=0; minvec=7
 default implementation of scratch files=df  


 Variables initialized (1032), CPU time= 0.00 sec
 
 symmetry,nosym
 
 
 geometry={
            6
     F          0.00000000      0.00000000     -1.99680889
     C          0.00000000      0.00000000      0.05274751
     H         -0.53104260      0.91979276     -0.07385286
     H         -0.53104260     -0.91979276     -0.07385286
     H          1.06208520      0.00000000     -0.07385286
     CL         0.00000000      0.00000000      2.16561997
 }
 basis=cc-pVTZ
 
 charge=-1
 
 hf; mp2
 
 
 
 {put,xml;noorbitals,nobasis}
 Commands initialized (841), CPU time= 0.01 sec, 704 directives.
 Default parameters read. Elapsed time= 0.33 sec

 Checking input...
 Passed
1


                                         ***  PROGRAM SYSTEM MOLPRO  ***
                                       Copyright, TTI GmbH Stuttgart, 2015
                                    Version 2023.1 linked Tue Jun  6 09:54:11 2023


 **********************************************************************************************************************************
 LABEL *                                                                                                                                                                 
  64 bit serial version                                                                  DATE: 09-Jun-23          TIME: 16:01:35  
 **********************************************************************************************************************************

 SHA1:             8ebb0dd001088a5c915591db1a321413035db0b1
 **********************************************************************************************************************************

 Memory per process:       805 MW
 Total memory per node:   1074 MW
 Total GA space:           268 MW

 GA preallocation disabled
 GA check enabled

 Variable memory set to 805.3 MW

 ZSYMEL=NOSYM


 Geometry recognized as XYZ

 SETTING BASIS          =    CC-PVTZ
 SETTING CHARGE         =        -1.00000000                                  


 Recomputing integrals since basis changed


 Using spherical harmonics

 Library entry F      S cc-pVTZ              selected for orbital group  1
 Library entry F      P cc-pVTZ              selected for orbital group  1
 Library entry F      D cc-pVTZ              selected for orbital group  1
 Library entry F      F cc-pVTZ              selected for orbital group  1
 Library entry C      S cc-pVTZ              selected for orbital group  2
 Library entry C      P cc-pVTZ              selected for orbital group  2
 Library entry C      D cc-pVTZ              selected for orbital group  2
 Library entry C      F cc-pVTZ              selected for orbital group  2
 Library entry H      S cc-pVTZ              selected for orbital group  3
 Library entry H      P cc-pVTZ              selected for orbital group  3
 Library entry H      D cc-pVTZ              selected for orbital group  3
 Library entry CL     S cc-pVTZ              selected for orbital group  4
 Library entry CL     P cc-pVTZ              selected for orbital group  4
 Library entry CL     D cc-pVTZ              selected for orbital group  4
 Library entry CL     F cc-pVTZ              selected for orbital group  4


 PROGRAM * SEWARD (Integral evaluation for generally contracted gaussian basis sets)     Author: Roland Lindh, 1990

 Geometry written to block  1 of record 700


 Point group  C1  



 ATOMIC COORDINATES

 NR  ATOM    CHARGE       X              Y              Z

   1  F       9.00    0.000000000    0.000000000   -3.773421925
   2  C       6.00    0.000000000    0.000000000    0.099678348
   3  H       1.00   -1.003525075    1.738156408   -0.139561679
   4  H       1.00   -1.003525075   -1.738156408   -0.139561679
   5  H       1.00    2.007050149    0.000000000   -0.139561679
   6  CL     17.00    0.000000000    0.000000000    4.092428633

 Bond lengths in Bohr (Angstrom)

 2-3  2.021258535  2-4  2.021258535  2-5  2.021258541  2-6  3.992750286
     ( 1.069603954)     ( 1.069603954)     ( 1.069603957)     ( 2.112872460)

 Bond angles

  3-2-4  118.61917631   3-2-5  118.61917664   3-2-6   96.79757334   4-2-5  118.61917664

  4-2-6   96.79757334   5-2-6   96.79757331

 NUCLEAR CHARGE:                   35
 NUMBER OF PRIMITIVE AOS:         209
 NUMBER OF SYMMETRY AOS:          191
 NUMBER OF CONTRACTIONS:          136   (  136A   )
 NUMBER OF INNER CORE ORBITALS:     1   (    1A   )
 NUMBER OF OUTER CORE ORBITALS:     6   (    6A   )
 NUMBER OF VALENCE ORBITALS:       15   (   15A   )


 NUCLEAR REPULSION ENERGY   86.10071454


 Eigenvalues of metric

         1 0.118E-02 0.180E-02 0.180E-02 0.251E-02 0.463E-02 0.970E-02 0.985E-02 0.985E-02


 Contracted 2-electron integrals neglected if value below      1.0D-11
 AO integral compression algorithm  1   Integral accuracy      1.0D-11

     130.023 MB (compressed) written to integral file ( 32.2%)


 NUMBER OF SORTED TWO-ELECTRON INTEGRALS:   43398586.     BUFFER LENGTH:  32768
 NUMBER OF SEGMENTS:   3  SEGMENT LENGTH:   15998004      RECORD LENGTH: 524288

 Memory used in sort:      16.56 MW

 SORT1 READ    50436982. AND WROTE    29001750. INTEGRALS IN     84 RECORDS. CPU TIME:     0.27 SEC, REAL TIME:     0.34 SEC
 SORT2 READ    29001750. AND WROTE    43398586. INTEGRALS IN    496 RECORDS. CPU TIME:     0.31 SEC, REAL TIME:     0.38 SEC

 FILE SIZES:   FILE 1:   160.8 MBYTE,  FILE 4:   352.4 MBYTE,   TOTAL:    513.2 MBYTE

 OPERATOR DM      FOR CENTER  0  COORDINATES:    0.000000    0.000000    0.000000


 **********************************************************************************************************************************
 DATASETS  * FILE   NREC   LENGTH (MB)   RECORD NAMES
              1      19      136.05       500      610      700      900      950      970     1000      129      960     1100   
                                          VAR    BASINP    GEOM    SYMINP    ZMAT    AOBASIS   BASIS     P2S    ABASIS      S 
                                         1400     1410     1200     1210     1080     1600     1650     1300     1700   
                                           T        V       H0       H01     AOSYM     SMH    MOLCAS    ERIS     OPER   

 PROGRAMS   *        TOTAL       INT
 CPU TIMES  *         1.76      1.67
 REAL TIME  *         3.54 SEC
 DISK USED  *       489.85 MB
 **********************************************************************************************************************************


 Program * Restricted Hartree-Fock

 Orbital guess generated from atomic densities. Full valence occupancy:   22

 Initial occupancy:  18

 NELEC=   36   SYM=1   MS2= 0   THRE=1.0D-08   THRD=3.2D-06   THRG=3.2D-06  HFMA2=F  DIIS_START=2   DIIS_MAX=10   DIIS_INCORE=F

 Level shifts:    0.00 (CLOSED)    0.00 (OPEN)    0.30 (GAP_MIN)

 ITER           ETOT              DE          GRAD        DDIFF     DIIS  NEXP   TIME(IT)  TIME(TOT)  DIAG
   1     -598.50886258    -598.50886258     0.00D+00     0.87D-01     0     0       0.20      0.38    start
   2     -598.56294360      -0.05408101     0.73D-02     0.11D-01     1     0       0.20      0.58    diag
   3     -598.60085045      -0.03790685     0.57D-02     0.43D-02     2     0       0.20      0.78    diag
   4     -598.60197520      -0.00112476     0.46D-03     0.10D-02     3     0       0.20      0.98    diag
   5     -598.60211750      -0.00014230     0.17D-03     0.38D-03     4     0       0.21      1.19    diag
   6     -598.60213898      -0.00002147     0.57D-04     0.15D-03     5     0       0.21      1.40    diag
   7     -598.60214079      -0.00000181     0.17D-04     0.48D-04     6     0       0.20      1.60    diag
   8     -598.60214092      -0.00000013     0.51D-05     0.11D-04     7     0       0.20      1.80    fixocc
   9     -598.60214093      -0.00000001     0.14D-05     0.35D-05     8     0       0.19      1.99    diag
  10     -598.60214093      -0.00000000     0.34D-06     0.78D-06     9     0       0.20      2.19    diag/orth
  11     -598.60214093      -0.00000000     0.11D-06     0.18D-06     0     0       0.20      2.39    diag

 Final occupancy:  18

 !RHF STATE 1.1 Energy               -598.602140926410
  RHF One-electron energy           -1008.523905190798
  RHF Two-electron energy             323.821049720554
  RHF Kinetic energy                  598.710424039861
  RHF Nuclear energy                   86.100714543835
  RHF Virial quotient                  -0.999819139422

 !RHF STATE 1.1 Dipole moment          -0.00000000    -0.00000000     0.36598385
 Dipole moment /Debye                  -0.00000000    -0.00000000     0.93023816

 Orbital energies:

           1.1          2.1          3.1          4.1          5.1          6.1          7.1          8.1          9.1         10.1
   -104.594012   -25.882148   -11.133738   -10.320539    -7.786840    -7.786143    -7.786143    -1.152175    -0.870093    -0.739654

          11.1         12.1         13.1         14.1         15.1         16.1         17.1         18.1         19.1         20.1
     -0.446394    -0.446394    -0.307767    -0.254849    -0.254849    -0.235082    -0.235082    -0.209008     0.305566     0.362204


 HOMO     18.1    -0.209008 =      -5.6874eV
 LUMO     19.1     0.305566 =       8.3149eV
 LUMO-HOMO         0.514574 =      14.0023eV

 Orbitals saved in record  2100.2


 **********************************************************************************************************************************
 DATASETS  * FILE   NREC   LENGTH (MB)   RECORD NAMES
              1      19      136.05       500      610      700      900      950      970     1000      129      960     1100   
                                          VAR    BASINP    GEOM    SYMINP    ZMAT    AOBASIS   BASIS     P2S    ABASIS      S 
                                         1400     1410     1200     1210     1080     1600     1650     1300     1700   
                                           T        V       H0       H01     AOSYM     SMH    MOLCAS    ERIS     OPER   

              2       4        0.76       700     1000      520     2100   
                                         GEOM     BASIS   MCVARS     RHF  

 PROGRAMS   *        TOTAL    HF-SCF       INT
 CPU TIMES  *         4.16      2.40      1.67
 REAL TIME  *         6.50 SEC
 DISK USED  *       489.85 MB
 **********************************************************************************************************************************


 PROGRAM * MP2 (Closed-shell)     Authors: C. Hampel, H.-J. Werner, 1991, M. Deegan, P.J. Knowles, 1992


 Convergence thresholds:  THRVAR = 1.00D-08  THRDEN = 1.00D-06

 Number of core orbitals:           7 (   7 )
 Number of closed-shell orbitals:  11 (  11 )
 Number of external orbitals:     118 ( 118 )

 Molecular orbitals read from record     2100.2  Type=RHF/CANONICAL  

 Number of N-1 electron functions:              11
 Number of N-2 electron functions:              66
 Number of singly external CSFs:              1298
 Number of doubly external CSFs:            843051
 Total number of CSFs:                      844350

 Length of J-op  integral file:               0.00 MB
 Length of K-op  integral file:               1.33 MB

 Integral transformation finished. Total CPU:   0.37 sec, npass=  1  Memory used:   2.44 MW

 Memory needed for MP2:                      0.09 MW

 SCS-MP2 correlation energy:           -0.640694957859   (PS=  1.200000  PT=  0.333333)
 SCS-MP2 total energy:               -599.242835884269


  Reference energy                   -598.602140926410
  MP2 singlet pair energy              -0.411369933789
  MP2 triplet pair energy              -0.236332024252
  MP2 correlation energy               -0.647701958041

 !MP2 total energy                   -599.249842884450


 **********************************************************************************************************************************
 DATASETS  * FILE   NREC   LENGTH (MB)   RECORD NAMES
              1      20      150.34       500      610      700      900      950      970     1000      129      960     1100   
                                          VAR    BASINP    GEOM    SYMINP    ZMAT    AOBASIS   BASIS     P2S    ABASIS      S 
                                         1400     1410     1200     1210     1080     1600     1650     1300     1700     1380   
                                           T        V       H0       H01     AOSYM     SMH    MOLCAS    ERIS     OPER     JKOP   

              2       4        0.76       700     1000      520     2100   
                                         GEOM     BASIS   MCVARS     RHF  

 PROGRAMS   *        TOTAL       MP2    HF-SCF       INT
 CPU TIMES  *         4.60      0.44      2.40      1.67
 REAL TIME  *         7.33 SEC
 DISK USED  *       489.85 MB
 **********************************************************************************************************************************

 Dump information in style XML to xml output                                                                      

 Orbitals will not be exported.

 **********************************************************************************************************************************

 MP2/cc-pVTZ energy=   -599.249842884450

             MP2          HF-SCF
   -599.24984288   -598.60214093
 **********************************************************************************************************************************
 Molpro calculation terminated
