
 Working directory              : /tmp/peterk/molpro.ybryLSSL1k/
 Global scratch directory       : /tmp/peterk/molpro.ybryLSSL1k/
 Wavefunction directory         : /home/peterk/wfu/
 Main file repository           : /tmp/peterk/molpro.ybryLSSL1k/

 id        : peterk

 Nodes     nprocs
 marat        1
 GA implementation: MPI file
 GA implementation (serial work in mppx): MPI file

 Using customized tuning parameters: mindgm=1; mindgv=20; mindgc=4; mindgr=1; noblas=0; minvec=7
 default implementation of scratch files=df  


 Variables initialized (1032), CPU time= 0.00 sec
 
 symmetry,nosym
 
 
 geometry={
            8
     O         -1.91840367      0.19998510      0.00000000
     S         -1.32245423     -0.36733302     -1.47185555
     O         -0.00713321      0.65483762     -1.66061440
     S          1.55660614      0.01258458     -1.47076583
     O          1.46436627     -0.80016345      0.00000000
     S          1.55660614      0.01258458      1.47076583
     O         -0.00713321      0.65483762      1.66061440
     S         -1.32245423     -0.36733302      1.47185555
 }
 basis=cc-pVTZ
 
 
 
 hf; ccsd(t)
 
 
 
 {put,xml;noorbitals,nobasis}
 Commands initialized (841), CPU time= 0.01 sec, 708 directives.
 Default parameters read. Elapsed time= 0.04 sec

 Checking input...
 Passed
1


                                         ***  PROGRAM SYSTEM MOLPRO  ***
                                       Copyright, TTI GmbH Stuttgart, 2015
                                    Version 2023.1 linked Sat Jun 10 08:01:27 2023


 **********************************************************************************************************************************
 LABEL *                                                                                                                                                                 
  (16 PROC) 64 bit serial version                                                        DATE: 13-Jun-23          TIME: 11:55:28  
 **********************************************************************************************************************************

 SHA1:             8376d659ba1296ca7ee514c57770fe2c96af278c
 **********************************************************************************************************************************

 Memory per process:      1074 MW
 Total memory per node:   1074 MW

 GA preallocation disabled
 GA check disabled

 Variable memory set to 1073.7 MW

 ZSYMEL=NOSYM


 Geometry recognized as XYZ

 SETTING BASIS          =    CC-PVTZ


 Recomputing integrals since basis changed


 Using spherical harmonics

 Library entry O      S cc-pVTZ              selected for orbital group  1
 Library entry O      P cc-pVTZ              selected for orbital group  1
 Library entry O      D cc-pVTZ              selected for orbital group  1
 Library entry O      F cc-pVTZ              selected for orbital group  1
 Library entry S      S cc-pVTZ              selected for orbital group  2
 Library entry S      P cc-pVTZ              selected for orbital group  2
 Library entry S      D cc-pVTZ              selected for orbital group  2
 Library entry S      F cc-pVTZ              selected for orbital group  2


 PROGRAM * SEWARD (Integral evaluation for generally contracted gaussian basis sets)     Author: Roland Lindh, 1990

 Geometry written to block  1 of record 700


 Point group  C1  



 ATOMIC COORDINATES

 NR  ATOM    CHARGE       X              Y              Z

   1  O       8.00   -3.625257533    0.377917068    0.000000000
   2  S      16.00   -2.499076307   -0.694158804   -2.781403885
   3  O       8.00   -0.013479813    1.237463758   -3.138106415
   4  S      16.00    2.941559289    0.023781410   -2.779344612
   5  O       8.00    2.767251196   -1.512089775    0.000000000
   6  S      16.00    2.941559289    0.023781410    2.779344612
   7  O       8.00   -0.013479813    1.237463758    3.138106415
   8  S      16.00   -2.499076307   -0.694158804    2.781403885

 Bond lengths in Bohr (Angstrom)

 1-2  3.186508810  1-8  3.186508810  2-3  3.168058135  2-4  5.487800841  3-4  3.214652542
     ( 1.686227845)     ( 1.686227845)     ( 1.676464168)     ( 2.904019143)     ( 1.701120866)

 4-5  3.180257864  5-6  3.180257864  6-7  3.214652542  6-8  5.487800841  7-8  3.168058135
     ( 1.682919986)     ( 1.682919986)     ( 1.701120866)     ( 2.904019143)     ( 1.676464168)

 Bond angles

  1-2-3   99.81294447   1-2-4  107.82084307   1-8-6  107.82084307   1-8-7   99.81294447

  2-1-8  121.58746966   2-3-4  118.58456359   2-4-3   30.45929611   2-4-5   83.26999558

  3-2-4   30.95614029   3-4-5  103.26659648   4-5-6  121.83880699   5-6-7  103.26659648

  5-6-8   83.26999558   6-7-8  118.58456359   6-8-7   30.95614029   7-6-8   30.45929611

 NUCLEAR CHARGE:                   96
 NUMBER OF PRIMITIVE AOS:         444
 NUMBER OF SYMMETRY AOS:          404
 NUMBER OF CONTRACTIONS:          256   (  256A   )
 NUMBER OF INNER CORE ORBITALS:     4   (    4A   )
 NUMBER OF OUTER CORE ORBITALS:    20   (   20A   )
 NUMBER OF VALENCE ORBITALS:       32   (   32A   )


 NUCLEAR REPULSION ENERGY  798.53403519


 Eigenvalues of metric

         1 0.224E-02 0.291E-02 0.299E-02 0.317E-02 0.322E-02 0.366E-02 0.389E-02 0.594E-02


 Contracted 2-electron integrals neglected if value below      1.0D-11
 AO integral compression algorithm  1   Integral accuracy      1.0D-11

     1686.110 MB (compressed) written to integral file ( 35.3%)


 NUMBER OF SORTED TWO-ELECTRON INTEGRALS:  541089856.     BUFFER LENGTH:  32768
 NUMBER OF SEGMENTS:  34  SEGMENT LENGTH:   15999762      RECORD LENGTH: 262144

 Memory used in sort:      16.29 MW

 SORT1 READ   597830731. AND WROTE   452357857. INTEGRALS IN   2607 RECORDS. CPU TIME:    15.98 SEC, REAL TIME:   206.05 SEC
 SORT2 READ   452357857. AND WROTE   541089856. INTEGRALS IN   6432 RECORDS. CPU TIME:    11.56 SEC, REAL TIME:    51.58 SEC

 FILE SIZES:   FILE 1:  1718.7 MBYTE,  FILE 4:  5467.3 MBYTE,   TOTAL:   7186.0 MBYTE

 OPERATOR DM      FOR CENTER  0  COORDINATES:    0.000000    0.000000    0.000000


 **********************************************************************************************************************************
 DATASETS  * FILE   NREC   LENGTH (MB)   RECORD NAMES
              1      19     1437.82       500      610      700      900      950      970     1000      129      960     1100   
                                          VAR    BASINP    GEOM    SYMINP    ZMAT    AOBASIS   BASIS     P2S    ABASIS      S 
                                         1400     1410     1200     1210     1080     1600     1650     1300     1700   
                                           T        V       H0       H01     AOSYM     SMH    MOLCAS    ERIS     OPER   

 PROGRAMS   *        TOTAL       INT
 CPU TIMES  *        48.66     48.56
 REAL TIME  *       281.95 SEC
 DISK USED  *         6.69 GB
 **********************************************************************************************************************************


 Program * Restricted Hartree-Fock

 Orbital guess generated from atomic densities. Full valence occupancy:   56

 Initial occupancy:  48

 NELEC=   96   SYM=1   MS2= 0   THRE=1.0D-08   THRD=3.2D-06   THRG=3.2D-06  HFMA2=F  DIIS_START=2   DIIS_MAX=10   DIIS_INCORE=F

 Level shifts:    0.00 (CLOSED)    0.00 (OPEN)    0.30 (GAP_MIN)

 ITER           ETOT              DE          GRAD        DDIFF     DIIS  NEXP   TIME(IT)  TIME(TOT)  DIAG
   1    -1889.40777770   -1889.40777770     0.00D+00     0.72D-01     0     0       3.31      6.34    start
   2    -1889.52349545      -0.11571774     0.34D-02     0.50D-02     1     0       3.37      9.71    diag
   3    -1889.53686734      -0.01337189     0.12D-02     0.13D-02     2     0       3.31     13.02    diag
   4    -1889.53883106      -0.00196372     0.40D-03     0.62D-03     3     0       3.28     16.30    diag
   5    -1889.53917679      -0.00034573     0.18D-03     0.23D-03     4     0       3.29     19.59    diag
   6    -1889.53921222      -0.00003543     0.45D-04     0.76D-04     5     0       3.26     22.85    diag
   7    -1889.53921711      -0.00000489     0.14D-04     0.33D-04     6     0       3.17     26.02    diag
   8    -1889.53921806      -0.00000095     0.68D-05     0.13D-04     7     0       3.23     29.25    fixocc
   9    -1889.53921835      -0.00000030     0.28D-05     0.89D-05     8     0       3.22     32.47    diag
  10    -1889.53921841      -0.00000006     0.10D-05     0.44D-05     9     0       3.11     35.58    diag/orth
  11    -1889.53921842      -0.00000001     0.50D-06     0.13D-05     9     0       3.19     38.77    diag
  12    -1889.53921842      -0.00000000     0.18D-06     0.39D-06     0     0       3.22     41.99    diag

 Final occupancy:  48

 !RHF STATE 1.1 Energy              -1889.539218417133
  RHF One-electron energy           -4203.118995447338
  RHF Two-electron energy            1515.045741845010
  RHF Kinetic energy                 1888.404680211740
  RHF Nuclear energy                  798.534035185194
  RHF Virial quotient                  -1.000600791884

 !RHF STATE 1.1 Dipole moment           0.41316257    -0.57369210    -0.00000000
 Dipole moment /Debye                   1.05015451    -1.45817988    -0.00000000

 Orbital energies:

           1.1          2.1          3.1          4.1          5.1          6.1          7.1          8.1          9.1         10.1
    -92.082270   -92.082270   -92.077500   -92.077500   -20.657562   -20.647933   -20.647931   -20.646284    -9.071997    -9.071987

          11.1         12.1         13.1         14.1         15.1         16.1         17.1         18.1         19.1         20.1
     -9.067245    -9.067236    -6.752538    -6.752534    -6.751114    -6.751113    -6.748989    -6.748987    -6.747797    -6.747794

          21.1         22.1         23.1         24.1         25.1         26.1         27.1         28.1         29.1         30.1
     -6.746532    -6.746532    -6.744462    -6.744461    -1.458830    -1.418547    -1.415445    -1.367260    -1.038663    -0.951044

          31.1         32.1         33.1         34.1         35.1         36.1         37.1         38.1         39.1         40.1
     -0.945854    -0.826740    -0.726944    -0.694019    -0.685030    -0.671939    -0.646736    -0.622004    -0.618930    -0.559106

          41.1         42.1         43.1         44.1         45.1         46.1         47.1         48.1         49.1         50.1
     -0.550258    -0.542736    -0.537638    -0.520672    -0.393492    -0.387170    -0.384596    -0.369476     0.079073     0.079977


 HOMO     48.1    -0.369476 =     -10.0540eV
 LUMO     49.1     0.079073 =       2.1517eV
 LUMO-HOMO         0.448549 =      12.2057eV

 Orbitals saved in record  2100.2


 **********************************************************************************************************************************
 DATASETS  * FILE   NREC   LENGTH (MB)   RECORD NAMES
              1      19     1437.82       500      610      700      900      950      970     1000      129      960     1100   
                                          VAR    BASINP    GEOM    SYMINP    ZMAT    AOBASIS   BASIS     P2S    ABASIS      S 
                                         1400     1410     1200     1210     1080     1600     1650     1300     1700   
                                           T        V       H0       H01     AOSYM     SMH    MOLCAS    ERIS     OPER   

              2       4        1.54       700     1000      520     2100   
                                         GEOM     BASIS   MCVARS     RHF  

 PROGRAMS   *        TOTAL    HF-SCF       INT
 CPU TIMES  *        90.66     42.00     48.56
 REAL TIME  *       326.33 SEC
 DISK USED  *         6.69 GB
 **********************************************************************************************************************************


 PROGRAM * CCSD (Closed-shell coupled cluster)     Authors: C. Hampel, H.-J. Werner, 1991, M. Deegan, P.J. Knowles, 1992


 Convergence thresholds:  THRVAR = 1.00D-08  THRDEN = 1.00D-06

 CCSD(T)     terms to be evaluated (factor= 1.000)


 Number of core orbitals:          24 (  24 )
 Number of closed-shell orbitals:  24 (  24 )
 Number of external orbitals:     208 ( 208 )

 Molecular orbitals read from record     2100.2  Type=RHF/CANONICAL  

 Number of N-1 electron functions:              24
 Number of N-2 electron functions:             300
 Number of singly external CSFs:              4992
 Number of doubly external CSFs:          12462528
 Total number of CSFs:                    12467521

 Length of J-op  integral file:               0.00 MB
 Length of K-op  integral file:               4.56 MB
 Length of 3-ext integral record:             0.00 MB

 Memory could be reduced to 268.31 Mwords without degradation in triples

 Integral transformation finished. Total CPU:  39.16 sec, npass=  1  Memory used: 243.47 MW

 Reference energy:                  -1889.53921842

 MP2 singlet pair energy:              -0.99244852
 MP2 triplet pair energy:              -0.63991581
 MP2 correlation energy:               -1.63236433
 MP2 total energy:                  -1891.17158275

 SCS-MP2 correlation energy:           -1.58910806   (PS=  1.200000  PT=  0.333333)
 SCS-MP2 total energy:              -1891.12832647

 ITER.      SQ.NORM     CORR.ENERGY   TOTAL ENERGY   ENERGY CHANGE        DEN1      VAR(S)    VAR(P)  DIIS     TIME  TIME/IT
   1      1.51525477    -1.66290410 -1891.20212252    -0.03053977     0.03146604  0.17D-01  0.14D-01  1  1   243.94   117.21
   2      1.56288313    -1.66373380 -1891.20295222    -0.00082971    -0.04839705  0.45D-03  0.21D-02  2  2   361.52   121.26
   3      1.58859458    -1.66454755 -1891.20376597    -0.00081375    -0.01024578  0.57D-03  0.12D-03  3  3   474.58   123.63
   4      1.59968630    -1.66440329 -1891.20362171     0.00014426    -0.00325683  0.98D-04  0.38D-04  4  4   593.39   124.72
   5      1.60710752    -1.66448171 -1891.20370013    -0.00007842    -0.00118832  0.34D-04  0.56D-05  5  5   720.89   126.35
   6      1.61053393    -1.66440904 -1891.20362746     0.00007267    -0.00027530  0.69D-05  0.17D-05  6  6   848.03   126.68
   7      1.61193909    -1.66438062 -1891.20359904     0.00002842    -0.00008999  0.19D-05  0.52D-06  6  2   980.79   127.73
   8      1.61246854    -1.66437438 -1891.20359280     0.00000624    -0.00002355  0.57D-06  0.12D-06  6  1  1111.14   128.20
   9      1.61273166    -1.66436981 -1891.20358822     0.00000457    -0.00000432  0.14D-06  0.28D-07  6  3  1240.29   128.45
  10      1.61276452    -1.66437347 -1891.20359188    -0.00000366     0.00000052  0.30D-07  0.10D-07  6  5  1371.31   128.82
  11      1.61281159    -1.66437384 -1891.20359225    -0.00000037     0.00000147  0.69D-08  0.20D-08  6  4  1500.22   128.94
  12      1.61281803    -1.66437398 -1891.20359239    -0.00000014     0.00000038  0.22D-08  0.62D-09  6  6  1630.67   129.17

 Norm of t1 vector:      0.20841410      S-energy:     0.00000238      T1 diagnostic:  0.02127118
                                                                       D1 diagnostic:  0.07870447
                                                                       D2 diagnostic:  0.17037709 (internal)

   CPU time for triples:   1826.89 sec for i =  1 - 21 / 24 (~  67.9 % done)
   CPU time for triples:    875.67 sec for i = 22 - 24 / 24 (  100.0 % done)

 Total CPU time for triples:   2702.56 sec


 RESULTS
 =======

  Reference energy                  -1889.539218417133
  CCSD singlet pair energy             -1.099201984651
  CCSD triplet pair energy             -0.565174370053
  CCSD correlation energy              -1.664373977693

  Triples (T) contribution             -0.086744689747
  Total correlation energy             -1.751118667440

  CCSD total energy                 -1891.203592394826
  CCSD[T] energy                    -1891.295239416508
  CCSD-T energy                     -1891.288477385281
 !CCSD(T) total energy              -1891.290337084573

 Timing summary (sec):

 STEP                 CPU(USER)    SYS     CPU(TOT)    WALL
 Transformation         40.28      1.77     42.05     64.51
 CCSD iterations      1591.68     11.59   1603.27   1551.50
 Triples              2702.56     43.75   2746.31   2746.89

 Program statistics:

 Available memory in ccsd:              1073739472
 Min. memory needed in ccsd:              29901575
 Max. memory used in ccsd:                41312903
 Max. memory used in cckext:              40240429 (12 integral passes)



 **********************************************************************************************************************************
 DATASETS  * FILE   NREC   LENGTH (MB)   RECORD NAMES
              1      20     2491.96       500      610      700      900      950      970     1000      129      960     1100   
                                          VAR    BASINP    GEOM    SYMINP    ZMAT    AOBASIS   BASIS     P2S    ABASIS      S 
                                         1400     1410     1200     1210     1080     1600     1650     1300     1700     1380   
                                           T        V       H0       H01     AOSYM     SMH    MOLCAS    ERIS     OPER     JKOP   

              2       4        1.54       700     1000      520     2100   
                                         GEOM     BASIS   MCVARS     RHF  

 PROGRAMS   *        TOTAL   CCSD(T)    HF-SCF       INT
 CPU TIMES  *      4334.22   4243.56     42.00     48.56
 REAL TIME  *      4689.91 SEC
 DISK USED  *         6.69 GB
 **********************************************************************************************************************************

 Dump information in style XML to xml output                                                                      

 Orbitals will not be exported.

 **********************************************************************************************************************************

 CCSD(T)/cc-pVTZ energy=  -1891.290337084573

         CCSD(T)          HF-SCF
  -1891.29033708  -1889.53921842
 **********************************************************************************************************************************
 Molpro calculation terminated
