
 Working directory              : /var/folders/2v/xbgp75_9785319ghcgb4zr4r0000gp/T//molpro.mgHwPiV7zw/
 Global scratch directory       : /var/folders/2v/xbgp75_9785319ghcgb4zr4r0000gp/T//molpro.mgHwPiV7zw/
 Wavefunction directory         : /Users/sacpjk/wfu/
 Main file repository           : /var/folders/2v/xbgp75_9785319ghcgb4zr4r0000gp/T//molpro.mgHwPiV7zw/

 id        : peterk

 Nodes                        nprocs
 Cardiff-University-G34YLXT77Y    1
 GA implementation: MPI file
 GA implementation (serial work in mppx): MPI file

 Using customized tuning parameters: mindgm=1; mindgv=20; mindgc=4; mindgr=1; noblas=0; minvec=7
 default implementation of scratch files=df  


 Variables initialized (1032), CPU time= 0.00 sec
 
 symmetry,nosym
 
 
 geometry={
            9
     C          0.64643893      0.66204762      0.00000000
     C          0.62059167     -0.72735291      0.00000000
     O         -1.43762017     -1.04803439      0.00000000
     N         -1.81431293      0.12667382      0.00000000
     N         -1.28271604      1.17289417      0.00000000
     H          0.87969100      1.19136240      0.91554310
     H          0.87969100      1.19136240     -0.91554310
     H          0.75411826     -1.28447655      0.91762992
     H          0.75411826     -1.28447655     -0.91762992
 }
 basis=cc-pVTZ
 
 
 
 hf; mp3
 
 
 
 {put,xml;noorbitals,nobasis}
 Commands initialized (841), CPU time= 0.01 sec, 704 directives.
 Default parameters read. Elapsed time= 5.25 sec

 Checking input...
 Passed
1


                                         ***  PROGRAM SYSTEM MOLPRO  ***
                                       Copyright, TTI GmbH Stuttgart, 2015
                                    Version 2023.1 linked Tue Jun  6 09:54:11 2023


 **********************************************************************************************************************************
 LABEL *                                                                                                                                                                 
  64 bit serial version                                                                  DATE: 10-Jun-23          TIME: 16:26:51  
 **********************************************************************************************************************************

 SHA1:             8ebb0dd001088a5c915591db1a321413035db0b1
 **********************************************************************************************************************************

 Memory per process:       805 MW
 Total memory per node:   1074 MW
 Total GA space:           268 MW

 GA preallocation disabled
 GA check enabled

 Variable memory set to 805.3 MW

 ZSYMEL=NOSYM


 Geometry recognized as XYZ

 SETTING BASIS          =    CC-PVTZ


 Recomputing integrals since basis changed


 Using spherical harmonics

 Library entry C      S cc-pVTZ              selected for orbital group  1
 Library entry C      P cc-pVTZ              selected for orbital group  1
 Library entry C      D cc-pVTZ              selected for orbital group  1
 Library entry C      F cc-pVTZ              selected for orbital group  1
 Library entry O      S cc-pVTZ              selected for orbital group  2
 Library entry O      P cc-pVTZ              selected for orbital group  2
 Library entry O      D cc-pVTZ              selected for orbital group  2
 Library entry O      F cc-pVTZ              selected for orbital group  2
 Library entry N      S cc-pVTZ              selected for orbital group  3
 Library entry N      P cc-pVTZ              selected for orbital group  3
 Library entry N      D cc-pVTZ              selected for orbital group  3
 Library entry N      F cc-pVTZ              selected for orbital group  3
 Library entry H      S cc-pVTZ              selected for orbital group  4
 Library entry H      P cc-pVTZ              selected for orbital group  4
 Library entry H      D cc-pVTZ              selected for orbital group  4


 PROGRAM * SEWARD (Integral evaluation for generally contracted gaussian basis sets)     Author: Roland Lindh, 1990

 Geometry written to block  1 of record 700


 Point group  C1  



 ATOMIC COORDINATES

 NR  ATOM    CHARGE       X              Y              Z

   1  C       6.00    1.221592534    1.251088683    0.000000000
   2  C       6.00    1.172748292   -1.374497796    0.000000000
   3  O       8.00   -2.716708393   -1.980497966    0.000000000
   4  N       7.00   -3.428554542    0.239378827    0.000000000
   5  N       7.00   -2.423982011    2.216448754    0.000000000
   6  H       1.00    1.662375064    2.251348651    1.730125714
   7  H       1.00    1.662375064    2.251348651   -1.730125714
   8  H       1.00    1.425076977   -2.427308893    1.734069233
   9  H       1.00    1.425076977   -2.427308893   -1.734069233

 Bond lengths in Bohr (Angstrom)

 1-2  2.626040769  1-5  3.771224447  1-6  2.046495597  1-7  2.046495597  2-8  2.044279109
     ( 1.389640930)     ( 1.995646035)     ( 1.082958832)     ( 1.082958832)     ( 1.081785917)

 2-9  2.044279109  3-4  2.331218119  4-5  2.217649988
     ( 1.081785917)     ( 1.233627502)     ( 1.173529835)

 Bond angles

  1-2-8  120.83841687   1-2-9  120.83841687   1-5-4  102.10396580   2-1-5  103.76593409

  2-1-6  119.51746247   2-1-7  119.51746247   3-4-5  135.28489323   5-1-6   94.76637282

  5-1-7   94.76637282   6-1-7  115.43155810   8-2-9  116.04467695

 NUCLEAR CHARGE:                   38
 NUMBER OF PRIMITIVE AOS:         303
 NUMBER OF SYMMETRY AOS:          274
 NUMBER OF CONTRACTIONS:          206   (  206A   )
 NUMBER OF INNER CORE ORBITALS:     0   (    0A   )
 NUMBER OF OUTER CORE ORBITALS:     5   (    5A   )
 NUMBER OF VALENCE ORBITALS:       24   (   24A   )


 NUCLEAR REPULSION ENERGY  166.89563664


 Eigenvalues of metric

         1 0.436E-03 0.898E-03 0.102E-02 0.137E-02 0.146E-02 0.176E-02 0.179E-02 0.216E-02


 Contracted 2-electron integrals neglected if value below      1.0D-11
 AO integral compression algorithm  1   Integral accuracy      1.0D-11

     764.412 MB (compressed) written to integral file ( 38.2%)


 NUMBER OF SORTED TWO-ELECTRON INTEGRALS:  227303181.     BUFFER LENGTH:  32768
 NUMBER OF SEGMENTS:  15  SEGMENT LENGTH:   15999503      RECORD LENGTH: 524288

 Memory used in sort:      16.56 MW

 SORT1 READ   250416863. AND WROTE   184170290. INTEGRALS IN    535 RECORDS. CPU TIME:     1.71 SEC, REAL TIME:     2.79 SEC
 SORT2 READ   184170290. AND WROTE   227303181. INTEGRALS IN   2916 RECORDS. CPU TIME:     1.41 SEC, REAL TIME:     2.09 SEC

 FILE SIZES:   FILE 1:   796.1 MBYTE,  FILE 4:  2244.0 MBYTE,   TOTAL:   3040.1 MBYTE

 OPERATOR DM      FOR CENTER  0  COORDINATES:    0.000000    0.000000    0.000000


 **********************************************************************************************************************************
 DATASETS  * FILE   NREC   LENGTH (MB)   RECORD NAMES
              1      19      695.06       500      610      700      900      950      970     1000      129      960     1100   
                                          VAR    BASINP    GEOM    SYMINP    ZMAT    AOBASIS   BASIS     P2S    ABASIS      S 
                                         1400     1410     1200     1210     1080     1600     1650     1300     1700   
                                           T        V       H0       H01     AOSYM     SMH    MOLCAS    ERIS     OPER   

 PROGRAMS   *        TOTAL       INT
 CPU TIMES  *         8.78      8.67
 REAL TIME  *        20.17 SEC
 DISK USED  *         2.83 GB
 **********************************************************************************************************************************


 Program * Restricted Hartree-Fock

 Orbital guess generated from atomic densities. Full valence occupancy:   29

 Initial occupancy:  19

 NELEC=   38   SYM=1   MS2= 0   THRE=1.0D-08   THRD=3.2D-06   THRG=3.2D-06  HFMA2=F  DIIS_START=2   DIIS_MAX=10   DIIS_INCORE=F

 Level shifts:    0.00 (CLOSED)    0.00 (OPEN)    0.30 (GAP_MIN)

 ITER           ETOT              DE          GRAD        DDIFF     DIIS  NEXP   TIME(IT)  TIME(TOT)  DIAG
   1     -261.61445329    -261.61445329     0.00D+00     0.55D-01     0     0       0.97      1.89    start
   2     -261.66620448      -0.05175119     0.56D-02     0.78D-02     1     0       0.97      2.86    diag
   3     -261.72566099      -0.05945651     0.47D-02     0.37D-02     2     0       0.98      3.84    diag
   4     -261.72798606      -0.00232506     0.55D-03     0.83D-03     3     0       0.98      4.82    diag
   5     -261.72845913      -0.00047308     0.24D-03     0.36D-03     4     0       1.10      5.92    diag
   6     -261.72863228      -0.00017315     0.12D-03     0.22D-03     5     0       1.12      7.04    diag
   7     -261.72872561      -0.00009333     0.90D-04     0.17D-03     6     0       1.22      8.26    diag
   8     -261.72876550      -0.00003989     0.41D-04     0.13D-03     7     0       1.14      9.40    fixocc
   9     -261.72877927      -0.00001376     0.23D-04     0.88D-04     8     0       1.19     10.59    diag
  10     -261.72878285      -0.00000358     0.12D-04     0.48D-04     9     0       1.24     11.83    diag/orth
  11     -261.72878341      -0.00000056     0.46D-05     0.20D-04     9     0       1.19     13.02    diag
  12     -261.72878347      -0.00000006     0.17D-05     0.56D-05     9     0       1.13     14.15    diag
  13     -261.72878347      -0.00000001     0.61D-06     0.17D-05     9     0       1.04     15.19    diag
  14     -261.72878347      -0.00000000     0.24D-06     0.33D-06     0     0       0.97     16.16    diag

 Final occupancy:  19

 !RHF STATE 1.1 Energy               -261.728783473396
  RHF One-electron energy            -686.720235527916
  RHF Two-electron energy             258.095815419003
  RHF Kinetic energy                  261.263580421184
  RHF Nuclear energy                  166.895636635517
  RHF Virial quotient                  -1.001780588980

 !RHF STATE 1.1 Dipole moment           0.89200093    -0.02454497    -0.00000000
 Dipole moment /Debye                   2.26724022    -0.06238708    -0.00000000

 Orbital energies:

           1.1          2.1          3.1          4.1          5.1          6.1          7.1          8.1          9.1         10.1
    -20.620971   -15.742717   -15.669992   -11.289132   -11.254353    -1.541276    -1.320052    -1.060615    -0.839273    -0.809727

          11.1         12.1         13.1         14.1         15.1         16.1         17.1         18.1         19.1         20.1
     -0.707867    -0.697412    -0.654952    -0.649019    -0.601271    -0.542440    -0.448753    -0.448148    -0.366335     0.076765

          21.1
      0.144064


 HOMO     19.1    -0.366335 =      -9.9685eV
 LUMO     20.1     0.076765 =       2.0889eV
 LUMO-HOMO         0.443100 =      12.0574eV

 Orbitals saved in record  2100.2


 **********************************************************************************************************************************
 DATASETS  * FILE   NREC   LENGTH (MB)   RECORD NAMES
              1      19      695.06       500      610      700      900      950      970     1000      129      960     1100   
                                          VAR    BASINP    GEOM    SYMINP    ZMAT    AOBASIS   BASIS     P2S    ABASIS      S 
                                         1400     1410     1200     1210     1080     1600     1650     1300     1700   
                                           T        V       H0       H01     AOSYM     SMH    MOLCAS    ERIS     OPER   

              2       4        1.19       700     1000      520     2100   
                                         GEOM     BASIS   MCVARS     RHF  

 PROGRAMS   *        TOTAL    HF-SCF       INT
 CPU TIMES  *        24.94     16.16      8.67
 REAL TIME  *        41.62 SEC
 DISK USED  *         2.83 GB
 **********************************************************************************************************************************


 PROGRAM * MP3 (Closed-shell)     Authors: C. Hampel, H.-J. Werner, 1991, M. Deegan, P.J. Knowles, 1992


 Convergence thresholds:  THRVAR = 1.00D-08  THRDEN = 1.00D-06

 Number of core orbitals:           5 (   5 )
 Number of closed-shell orbitals:  14 (  14 )
 Number of external orbitals:     187 ( 187 )

 Molecular orbitals read from record     2100.2  Type=RHF/CANONICAL  

 Number of N-1 electron functions:              14
 Number of N-2 electron functions:             105
 Number of singly external CSFs:              2618
 Number of doubly external CSFs:           3428271
 Total number of CSFs:                     3430890

 Length of J-op  integral file:               0.00 MB
 Length of K-op  integral file:               2.98 MB

 Integral transformation finished. Total CPU:   2.43 sec, npass=  1  Memory used:   8.27 MW

 Reference energy:                   -261.72878347

                        CORR.ENERGY   TOTAL ENERGY   ENERGY CHANGE
 MP2:                   -1.02208645  -262.75086992    -1.02208645

 SCS-MP2 correlation energy:           -0.99593035   (PS=  1.200000  PT=  0.333333)
 SCS-MP2 total energy:               -262.72471382

 MP3(D):                -0.99847760  -262.72726108     0.02360885



 RESULTS
 =======

  Reference energy                   -261.728783473396
  MP3 singlet pair energy              -0.655246283507
  MP3 triplet pair energy              -0.343231320864
  MP3 correlation energy               -0.998477604371

 !MP3 total energy                   -262.727261077767

 Timing summary (sec):

 STEP                 CPU(USER)    SYS     CPU(TOT)    WALL
 Transformation          2.56      0.23      2.79      3.35
 CCSD iterations        33.01      0.29     33.30     10.45

 Program statistics:

 Available memory in ccsd:               805305565
 Min. memory needed in ccsd:               8721282
 Max. memory used in ccsd:                11801541
 Max. memory used in cckext:               9335839 ( 1 integral passes)



 **********************************************************************************************************************************
 DATASETS  * FILE   NREC   LENGTH (MB)   RECORD NAMES
              1      20      746.79       500      610      700      900      950      970     1000      129      960     1100   
                                          VAR    BASINP    GEOM    SYMINP    ZMAT    AOBASIS   BASIS     P2S    ABASIS      S 
                                         1400     1410     1200     1210     1080     1600     1650     1300     1700     1380   
                                           T        V       H0       H01     AOSYM     SMH    MOLCAS    ERIS     OPER     JKOP   

              2       4        1.19       700     1000      520     2100   
                                         GEOM     BASIS   MCVARS     RHF  

 PROGRAMS   *        TOTAL       MP3    HF-SCF       INT
 CPU TIMES  *        35.48     10.53     16.16      8.67
 REAL TIME  *        55.96 SEC
 DISK USED  *         2.83 GB
 **********************************************************************************************************************************

 Dump information in style XML to xml output                                                                      

 Orbitals will not be exported.

 **********************************************************************************************************************************

 MP3/cc-pVTZ energy=   -262.727261077767

             MP3          HF-SCF
   -262.72726108   -261.72878347
 **********************************************************************************************************************************
 Molpro calculation terminated
