
 Working directory              : /var/folders/2v/xbgp75_9785319ghcgb4zr4r0000gp/T//molpro.mgvp0IYzV6/
 Global scratch directory       : /var/folders/2v/xbgp75_9785319ghcgb4zr4r0000gp/T//molpro.mgvp0IYzV6/
 Wavefunction directory         : /Users/sacpjk/wfu/
 Main file repository           : /var/folders/2v/xbgp75_9785319ghcgb4zr4r0000gp/T//molpro.mgvp0IYzV6/

 id        : peterk

 Nodes                        nprocs
 Cardiff-University-G34YLXT77Y    1
 GA implementation: MPI file
 GA implementation (serial work in mppx): MPI file

 Using customized tuning parameters: mindgm=1; mindgv=20; mindgc=4; mindgr=1; noblas=0; minvec=7
 default implementation of scratch files=df  


 Variables initialized (1032), CPU time= 0.00 sec
 
 symmetry,nosym
 
 
 geometry={
            4
     C          0.00000000      0.00000000      0.00000000
     H          0.53865812      0.93298323      0.00000000
     H          0.53865812     -0.93298323      0.00000000
     H         -1.07731624      0.00000000      0.00000000
 }
 basis=cc-pVDZ
 
 
 spin=1
 uhf
 
 
 
 {put,xml;noorbitals,nobasis}
 Commands initialized (841), CPU time= 0.00 sec, 704 directives.
 Default parameters read. Elapsed time= 0.43 sec

 Checking input...
 Passed
1


                                         ***  PROGRAM SYSTEM MOLPRO  ***
                                       Copyright, TTI GmbH Stuttgart, 2015
                                    Version 2023.1 linked Tue Jun  6 09:54:11 2023


 **********************************************************************************************************************************
 LABEL *                                                                                                                                                                 
  64 bit serial version                                                                  DATE: 09-Jun-23          TIME: 09:27:12  
 **********************************************************************************************************************************

 SHA1:             8ebb0dd001088a5c915591db1a321413035db0b1
 **********************************************************************************************************************************

 Memory per process:       805 MW
 Total memory per node:   1074 MW
 Total GA space:           268 MW

 GA preallocation disabled
 GA check enabled

 Variable memory set to 805.3 MW

 ZSYMEL=NOSYM


 Geometry recognized as XYZ

 SETTING BASIS          =    CC-PVDZ
 SETTING SPIN           =         1.00000000                                  


 Recomputing integrals since basis changed


 Using spherical harmonics

 Library entry C      S cc-pVDZ              selected for orbital group  1
 Library entry C      P cc-pVDZ              selected for orbital group  1
 Library entry C      D cc-pVDZ              selected for orbital group  1
 Library entry H      S cc-pVDZ              selected for orbital group  2
 Library entry H      P cc-pVDZ              selected for orbital group  2


 PROGRAM * SEWARD (Integral evaluation for generally contracted gaussian basis sets)     Author: Roland Lindh, 1990

 Geometry written to block  1 of record 700


 Point group  C1  



 ATOMIC COORDINATES

 NR  ATOM    CHARGE       X              Y              Z

   1  C       6.00    0.000000000    0.000000000    0.000000000
   2  H       1.00    1.017916322    1.763082784    0.000000000
   3  H       1.00    1.017916322   -1.763082784    0.000000000
   4  H       1.00   -2.035832643    0.000000000    0.000000000

 Bond lengths in Bohr (Angstrom)

 1-2  2.035832640  1-3  2.035832640  1-4  2.035832643
     ( 1.077316238)     ( 1.077316238)     ( 1.077316240)

 Bond angles

  2-1-3  119.99999991   2-1-4  120.00000005   3-1-4  120.00000005

 NUCLEAR CHARGE:                    9
 NUMBER OF PRIMITIVE AOS:          48
 NUMBER OF SYMMETRY AOS:           47
 NUMBER OF CONTRACTIONS:           29   (   29A   )
 NUMBER OF INNER CORE ORBITALS:     0   (    0A   )
 NUMBER OF OUTER CORE ORBITALS:     1   (    1A   )
 NUMBER OF VALENCE ORBITALS:        7   (    7A   )


 NUCLEAR REPULSION ENERGY    9.69237373

 EXTRA SYMMETRY OF AOS IN SYMMETRY 1:   1 1 1 1 1 2 1 1 2 1   1 2 1 2 1 1 1 1 2 1   1 1 1 2 1 1 1 1 2

 Eigenvalues of metric

         1 0.150E-01 0.351E-01 0.351E-01 0.419E-01 0.541E-01 0.541E-01 0.122E+00 0.133E+00


 Contracted 2-electron integrals neglected if value below      1.0D-11
 AO integral compression algorithm  1   Integral accuracy      1.0D-11

     0.524 MB (compressed) written to integral file ( 46.8%)


 NUMBER OF SORTED TWO-ELECTRON INTEGRALS:      94830.     BUFFER LENGTH:  32768
 NUMBER OF SEGMENTS:   1  SEGMENT LENGTH:      94830      RECORD LENGTH: 524288

 Memory used in sort:       0.65 MW

 SORT1 READ      121049. AND WROTE       45555. INTEGRALS IN      1 RECORDS. CPU TIME:     0.00 SEC, REAL TIME:     0.00 SEC
 SORT2 READ       45555. AND WROTE       94830. INTEGRALS IN      2 RECORDS. CPU TIME:     0.01 SEC, REAL TIME:     0.00 SEC

 FILE SIZES:   FILE 1:    30.6 MBYTE,  FILE 4:     4.3 MBYTE,   TOTAL:     34.8 MBYTE

 OPERATOR DM      FOR CENTER  0  COORDINATES:    0.000000    0.000000    0.000000


 **********************************************************************************************************************************
 DATASETS  * FILE   NREC   LENGTH (MB)   RECORD NAMES
              1      19       28.93       500      610      700      900      950      970     1000      129      960     1100   
                                          VAR    BASINP    GEOM    SYMINP    ZMAT    AOBASIS   BASIS     P2S    ABASIS      S 
                                         1400     1410     1200     1210     1080     1600     1650     1300     1700   
                                           T        V       H0       H01     AOSYM     SMH    MOLCAS    ERIS     OPER   

 PROGRAMS   *        TOTAL       INT
 CPU TIMES  *         0.17      0.09
 REAL TIME  *         1.01 SEC
 DISK USED  *        33.59 MB
 **********************************************************************************************************************************


 Program * Unrestricted Hartree-Fock

 Orbital guess generated from atomic densities. Full valence occupancy:    8

 Initial alpha occupancy:   5
 Initial beta  occupancy:   4

 Elapsed time for starting guess:      0.00 sec

 NELEC=    9   SYM=1   MS2=1   THRE=1.0D-08   THRD=3.2D-06   THRG=3.2D-06  HFMA2=F  DIIS_START=2   DIIS_MAX=10   DIIS_INCORE=F

 Initial level shifts:    0.20 (ALPHA)    0.20 (BETA)

 ITER         ETOT            DE          GRAD         DDIFF    DIIS  NEXP   TIME(IT)  TIME(TOT)  DIAG
   1    -39.55239104   -39.55239104     0.00D+00     0.00D+00     0     0       0.00      0.00    start
   2    -39.56166928    -0.00927824     0.89D-02     0.17D+00     1     0       0.00      0.00    diag
   3    -39.56342291    -0.00175363     0.32D-02     0.12D-01     2     0       0.01      0.01    diag
   4    -39.56367806    -0.00025515     0.12D-02     0.49D-02     3     0       0.00      0.01    diag
   5    -39.56376448    -0.00008642     0.48D-03     0.12D-02     4     0       0.00      0.01    diag
   6    -39.56378288    -0.00001840     0.22D-03     0.58D-03     5     0       0.00      0.01    diag
   7    -39.56378443    -0.00000155     0.56D-04     0.22D-03     6     0       0.00      0.01    diag
   8    -39.56378454    -0.00000011     0.17D-04     0.48D-04     6     0       0.00      0.01    diag
   9    -39.56378455    -0.00000001     0.53D-05     0.82D-05     6     0       0.00      0.01    diag
  10    -39.56378455    -0.00000000     0.12D-05     0.52D-05     5     0       0.00      0.01    diag/ort
  11    -39.56378455    -0.00000000     0.27D-06     0.12D-05     5     0       0.00      0.01    diag

 Final alpha occupancy:   5
 Final beta  occupancy:   4

 !UHF STATE 1.1 Energy                -39.563784552302
  UHF One-electron energy             -71.595620270433
  UHF Two-electron energy              22.339461989934
  UHF Kinetic energy                   39.512493302113
  UHF Nuclear energy                    9.692373728197
  UHF Virial quotient                  -1.001298102091

 !UHF STATE 1.1 Dipole moment           0.00000000     0.00000000    -0.00000000
 Dipole moment /Debye                   0.00000000     0.00000000    -0.00000000

 EXPECTATION VALUE OF S**2:             0.76113046

 Orbital energies for positive spin:

           1.1          2.1          3.1          4.1          5.1          6.1          7.1
    -11.238494    -0.946600    -0.577727    -0.577727    -0.382919     0.194805     0.268745

 Orbital energies for negative spin:

           1.1          2.1          3.1          4.1          5.1          6.1
    -11.214196    -0.854177    -0.562429    -0.562429     0.143084     0.210541


 HOMO      5.1    -0.382919 =     -10.4198eV
 LUMO     -5.1     0.143084 =       3.8935eV
 LUMO-HOMO         0.526003 =      14.3133eV

 Orbitals saved in record  2200.2

 Occupation number threshold for pseudo-canonical orbitals: 1.9990 (occupied), 0.0010 (virtual)

 Number of pseudo-canonical occupied orbitals per symmetry:    3
 Number of active natural orbitals per symmetry:               3

 Natural orbitals saved to record    2200.2 (Orbital set 3)

 Orbital spaces for UNO-CAS (Min. occupation: 0.020  Max. occupation: 1.980):

 Closed:        4
 Active:        1


 **********************************************************************************************************************************
 DATASETS  * FILE   NREC   LENGTH (MB)   RECORD NAMES
              1      19       28.93       500      610      700      900      950      970     1000      129      960     1100   
                                          VAR    BASINP    GEOM    SYMINP    ZMAT    AOBASIS   BASIS     P2S    ABASIS      S 
                                         1400     1410     1200     1210     1080     1600     1650     1300     1700   
                                           T        V       H0       H01     AOSYM     SMH    MOLCAS    ERIS     OPER   

              2       4        0.47       700     1000      520     2200   
                                         GEOM     BASIS   MCVARS     UHF  

              4       3        0.21      2900     3000     3100   

 PROGRAMS   *        TOTAL   UHF-SCF       INT
 CPU TIMES  *         0.18      0.01      0.09
 REAL TIME  *         1.27 SEC
 DISK USED  *        33.59 MB
 **********************************************************************************************************************************

 Dump information in style XML to xml output                                                                      

 Orbitals will not be exported.

 **********************************************************************************************************************************

 UHF/cc-pVDZ energy=    -39.563784552302

         UHF-SCF
    -39.56378455
 **********************************************************************************************************************************
 Molpro calculation terminated
