
 Working directory              : /var/folders/2v/xbgp75_9785319ghcgb4zr4r0000gp/T//molpro.l1jC7URgad/
 Global scratch directory       : /var/folders/2v/xbgp75_9785319ghcgb4zr4r0000gp/T//molpro.l1jC7URgad/
 Wavefunction directory         : /Users/sacpjk/wfu/
 Main file repository           : /var/folders/2v/xbgp75_9785319ghcgb4zr4r0000gp/T//molpro.l1jC7URgad/

 id        : peterk

 Nodes                        nprocs
 Cardiff-University-G34YLXT77Y    1
 GA implementation: MPI file
 GA implementation (serial work in mppx): MPI file

 Using customized tuning parameters: mindgm=1; mindgv=20; mindgc=4; mindgr=1; noblas=0; minvec=7
 default implementation of scratch files=df  


 Variables initialized (1032), CPU time= 0.01 sec
 
 symmetry,nosym
 
 
 geometry={
 3
  o         -0.213240598816   -0.333786074695    0.000000000000
  h         -0.533238694338    0.569303957209    0.000000000000
  h          0.746479293206   -0.235517882461    0.000000000000
 }
 basis=aug-cc-pVDZ
 
 
 
 hf; ccsd(t); counterpoise
 
 
 
 {put,xml;noorbitals,nobasis}
 Commands initialized (841), CPU time= 0.00 sec, 704 directives.
 Default parameters read. Elapsed time= 0.81 sec

 Checking input...
 Passed
1


                                         ***  PROGRAM SYSTEM MOLPRO  ***
                                       Copyright, TTI GmbH Stuttgart, 2015
                                    Version 2023.1 linked Tue Jun  6 09:54:11 2023


 **********************************************************************************************************************************
 LABEL *                                                                                                                                                                 
  64 bit serial version                                                                  DATE: 08-Jun-23          TIME: 19:17:51  
 **********************************************************************************************************************************

 SHA1:             8ebb0dd001088a5c915591db1a321413035db0b1
 **********************************************************************************************************************************

 Memory per process:       805 MW
 Total memory per node:   1074 MW
 Total GA space:           268 MW

 GA preallocation disabled
 GA check enabled

 Variable memory set to 805.3 MW

 ZSYMEL=NOSYM


 Geometry recognized as XYZ

 SETTING BASIS          =    AUG-CC-PVDZ


 Recomputing integrals since basis changed


 Using spherical harmonics

 Library entry O      S aug-cc-pVDZ          selected for orbital group  1
 Library entry O      P aug-cc-pVDZ          selected for orbital group  1
 Library entry O      D aug-cc-pVDZ          selected for orbital group  1
 Library entry H      S aug-cc-pVDZ          selected for orbital group  2
 Library entry H      P aug-cc-pVDZ          selected for orbital group  2


 PROGRAM * SEWARD (Integral evaluation for generally contracted gaussian basis sets)     Author: Roland Lindh, 1990

 Geometry written to block  1 of record 700


 Point group  C1  



 ATOMIC COORDINATES

 NR  ATOM    CHARGE       X              Y              Z

   1  O       8.00   -0.402966330   -0.630764265    0.000000000
   2  H       1.00   -1.007675091    1.075828561    0.000000000
   3  H       1.00    1.410641422   -0.445064295    0.000000000

 Bond lengths in Bohr (Angstrom)

 1-2  1.810561173  1-3  1.823090112
     ( 0.958107712)     ( 0.964737741)

 Bond angles

  2-1-3  103.66482511

 NUCLEAR CHARGE:                   10
 NUMBER OF PRIMITIVE AOS:          59
 NUMBER OF SYMMETRY AOS:           57
 NUMBER OF CONTRACTIONS:           41   (   41A   )
 NUMBER OF INNER CORE ORBITALS:     0   (    0A   )
 NUMBER OF OUTER CORE ORBITALS:     1   (    1A   )
 NUMBER OF VALENCE ORBITALS:        6   (    6A   )


 NUCLEAR REPULSION ENERGY    9.15671413

 EXTRA SYMMETRY OF AOS IN SYMMETRY 1:   1 1 1 1 1 1 2 1 1 2   1 1 2 1 1 2 1 2 1 1   2 1 2 1 1 1 1 1 2 1   1 2 1 1 1 1 1 2 1 1
                                        2

 Eigenvalues of metric

         1 0.295E-02 0.299E-02 0.113E-01 0.163E-01 0.250E-01 0.352E-01 0.760E-01 0.913E-01


 Contracted 2-electron integrals neglected if value below      1.0D-11
 AO integral compression algorithm  1   Integral accuracy      1.0D-11

     1.573 MB (compressed) written to integral file ( 36.1%)


 NUMBER OF SORTED TWO-ELECTRON INTEGRALS:     371091.     BUFFER LENGTH:  32768
 NUMBER OF SEGMENTS:   1  SEGMENT LENGTH:     371091      RECORD LENGTH: 524288

 Memory used in sort:       0.93 MW

 SORT1 READ      525861. AND WROTE      180029. INTEGRALS IN      1 RECORDS. CPU TIME:     0.00 SEC, REAL TIME:     0.01 SEC
 SORT2 READ      180029. AND WROTE      371091. INTEGRALS IN      6 RECORDS. CPU TIME:     0.02 SEC, REAL TIME:     0.02 SEC

 FILE SIZES:   FILE 1:    31.6 MBYTE,  FILE 4:     4.3 MBYTE,   TOTAL:     35.9 MBYTE

 OPERATOR DM      FOR CENTER  0  COORDINATES:    0.000000    0.000000    0.000000


 **********************************************************************************************************************************
 DATASETS  * FILE   NREC   LENGTH (MB)   RECORD NAMES
              1      19       29.65       500      610      700      900      950      970     1000      129      960     1100   
                                          VAR    BASINP    GEOM    SYMINP    ZMAT    AOBASIS   BASIS     P2S    ABASIS      S 
                                         1400     1410     1200     1210     1080     1600     1650     1300     1700   
                                           T        V       H0       H01     AOSYM     SMH    MOLCAS    ERIS     OPER   

 PROGRAMS   *        TOTAL       INT
 CPU TIMES  *         0.21      0.12
 REAL TIME  *         3.08 SEC
 DISK USED  *        34.59 MB
 **********************************************************************************************************************************


 Program * Restricted Hartree-Fock

 Orbital guess generated from atomic densities. Full valence occupancy:    7

 Initial occupancy:   5

 NELEC=   10   SYM=1   MS2= 0   THRE=1.0D-08   THRD=3.2D-06   THRG=3.2D-06  HFMA2=F  DIIS_START=2   DIIS_MAX=10   DIIS_INCORE=F

 Level shifts:    0.00 (CLOSED)    0.00 (OPEN)    0.30 (GAP_MIN)

 ITER           ETOT              DE          GRAD        DDIFF     DIIS  NEXP   TIME(IT)  TIME(TOT)  DIAG
   1      -76.00402793     -76.00402793     0.00D+00     0.15D+00     0     0       0.00      0.00    start
   2      -76.03055396      -0.02652603     0.15D-01     0.26D-01     1     0       0.01      0.01    diag
   3      -76.04087985      -0.01032588     0.92D-02     0.92D-02     2     0       0.00      0.01    diag
   4      -76.04106511      -0.00018527     0.92D-03     0.14D-02     3     0       0.00      0.01    diag
   5      -76.04108072      -0.00001560     0.23D-03     0.40D-03     4     0       0.00      0.01    diag
   6      -76.04108147      -0.00000075     0.40D-04     0.78D-04     5     0       0.00      0.01    diag
   7      -76.04108150      -0.00000003     0.73D-05     0.18D-04     6     0       0.01      0.02    diag
   8      -76.04108150      -0.00000000     0.13D-05     0.30D-05     7     0       0.00      0.02    fixocc
   9      -76.04108150      -0.00000000     0.15D-06     0.21D-06     0     0       0.00      0.02    diag

 Final occupancy:   5

 !RHF STATE 1.1 Energy                -76.041081497102
  RHF One-electron energy            -122.906302679053
  RHF Two-electron energy              37.708507049238
  RHF Kinetic energy                   75.912066407959
  RHF Nuclear energy                    9.156714132713
  RHF Virial quotient                  -1.001699533358

 !RHF STATE 1.1 Dipole moment           0.42591327     0.66899557    -0.00000000
 Dipole moment /Debye                   1.08256355     1.70041712    -0.00000000

 Orbital energies:

           1.1          2.1          3.1          4.1          5.1          6.1          7.1
    -20.578345    -1.355102    -0.715342    -0.586512    -0.509341     0.035294     0.057982


 HOMO      5.1    -0.509341 =     -13.8599eV
 LUMO      6.1     0.035294 =       0.9604eV
 LUMO-HOMO         0.544634 =      14.8203eV

 Orbitals saved in record  2100.2


 **********************************************************************************************************************************
 DATASETS  * FILE   NREC   LENGTH (MB)   RECORD NAMES
              1      19       29.65       500      610      700      900      950      970     1000      129      960     1100   
                                          VAR    BASINP    GEOM    SYMINP    ZMAT    AOBASIS   BASIS     P2S    ABASIS      S 
                                         1400     1410     1200     1210     1080     1600     1650     1300     1700   
                                           T        V       H0       H01     AOSYM     SMH    MOLCAS    ERIS     OPER   

              2       4        0.44       700     1000      520     2100   
                                         GEOM     BASIS   MCVARS     RHF  

 PROGRAMS   *        TOTAL    HF-SCF       INT
 CPU TIMES  *         0.23      0.02      0.12
 REAL TIME  *         4.61 SEC
 DISK USED  *        34.59 MB
 **********************************************************************************************************************************


 PROGRAM * CCSD (Closed-shell coupled cluster)     Authors: C. Hampel, H.-J. Werner, 1991, M. Deegan, P.J. Knowles, 1992


 Convergence thresholds:  THRVAR = 1.00D-08  THRDEN = 1.00D-06

 CCSD(T)     terms to be evaluated (factor= 1.000)


 Number of core orbitals:           1 (   1 )
 Number of closed-shell orbitals:   4 (   4 )
 Number of external orbitals:      36 (  36 )

 Molecular orbitals read from record     2100.2  Type=RHF/CANONICAL  

 Number of N-1 electron functions:               4
 Number of N-2 electron functions:              10
 Number of singly external CSFs:               144
 Number of doubly external CSFs:             10440
 Total number of CSFs:                       10585

 Length of J-op  integral file:               0.00 MB
 Length of K-op  integral file:               0.18 MB
 Length of 3-ext integral record:             0.00 MB

 Memory could be reduced to 0.40 Mwords without degradation in triples

 Integral transformation finished. Total CPU:   0.01 sec, npass=  1  Memory used:   0.29 MW

 Reference energy:                    -76.04108150

 MP2 singlet pair energy:              -0.13588857
 MP2 triplet pair energy:              -0.08387579
 MP2 correlation energy:               -0.21976436
 MP2 total energy:                    -76.26084586

 SCS-MP2 correlation energy:           -0.21525567   (PS=  1.200000  PT=  0.333333)
 SCS-MP2 total energy:                -76.25633716

 ITER.      SQ.NORM     CORR.ENERGY   TOTAL ENERGY   ENERGY CHANGE        DEN1      VAR(S)    VAR(P)  DIIS     TIME  TIME/IT
   1      1.06087303    -0.22675985   -76.26784134    -0.00699548    -0.00217906  0.12D-02  0.87D-03  1  1     0.37     0.04
   2      1.06509446    -0.22740887   -76.26849036    -0.00064902    -0.00446183  0.90D-05  0.14D-03  2  2     0.38     0.05
   3      1.06659618    -0.22754875   -76.26863025    -0.00013988    -0.00085110  0.17D-04  0.54D-05  3  3     0.39     0.04
   4      1.06706067    -0.22751334   -76.26859483     0.00003541    -0.00020294  0.76D-06  0.47D-06  4  4     0.39     0.04
   5      1.06718419    -0.22750623   -76.26858773     0.00000710    -0.00004132  0.76D-07  0.31D-07  5  5     0.40     0.04
   6      1.06720585    -0.22750461   -76.26858611     0.00000163    -0.00000274  0.81D-08  0.21D-08  6  6     0.41     0.04
   7      1.06721125    -0.22750388   -76.26858538     0.00000073    -0.00000069  0.50D-09  0.33D-09  6  2     0.41     0.04
   8      1.06721200    -0.22750396   -76.26858546    -0.00000008     0.00000013  0.55D-10  0.20D-10  6  1     0.42     0.04

 Norm of t1 vector:      0.04931711      S-energy:    -0.00000013      T1 diagnostic:  0.01232928
                                                                       D1 diagnostic:  0.02667110
                                                                       D2 diagnostic:  0.12651198 (internal)


 Total CPU time for triples:      0.01 sec


 RESULTS
 =======

  Reference energy                    -76.041081497102
  CCSD singlet pair energy             -0.153362778138
  CCSD triplet pair energy             -0.074141055854
  CCSD correlation energy              -0.227503964130

  Triples (T) contribution             -0.005242669177
  Total correlation energy             -0.232746633306

  CCSD total energy                   -76.268585461232
  CCSD[T] energy                      -76.274232515671
  CCSD-T energy                       -76.273661268597
 !CCSD(T) total energy                -76.273828130409

 Timing summary (sec):

 STEP                 CPU(USER)    SYS     CPU(TOT)    WALL
 Transformation          0.01      0.00      0.01      0.26
 CCSD iterations         0.42      0.02      0.44      1.12
 Triples                 0.01      0.00      0.01      0.02

 Program statistics:

 Available memory in ccsd:               805306299
 Min. memory needed in ccsd:                 53614
 Max. memory used in ccsd:                   59994
 Max. memory used in cckext:                 75512 ( 8 integral passes)



 **********************************************************************************************************************************
 DATASETS  * FILE   NREC   LENGTH (MB)   RECORD NAMES
              1      20       30.61       500      610      700      900      950      970     1000      129      960     1100   
                                          VAR    BASINP    GEOM    SYMINP    ZMAT    AOBASIS   BASIS     P2S    ABASIS      S 
                                         1400     1410     1200     1210     1080     1600     1650     1300     1700     1380   
                                           T        V       H0       H01     AOSYM     SMH    MOLCAS    ERIS     OPER     JKOP   

              2       4        0.44       700     1000      520     2100   
                                         GEOM     BASIS   MCVARS     RHF  

 PROGRAMS   *        TOTAL   CCSD(T)    HF-SCF       INT
 CPU TIMES  *         0.34      0.11      0.02      0.12
 REAL TIME  *         6.61 SEC
 DISK USED  *        34.59 MB
 **********************************************************************************************************************************

 Counterpoise: absolute minimum monomer separation=    -1.000 Bragg radius scale factor=     1.400 Number of monomers= 1
 Counterpoise skipped because only a single monomer


 **********************************************************************************************************************************
 DATASETS  * FILE   NREC   LENGTH (MB)   RECORD NAMES
              1      20       30.61       500      610      700      900      950      970     1000      129      960     1100   
                                          VAR    BASINP    GEOM    SYMINP    ZMAT    AOBASIS   BASIS     P2S    ABASIS      S 
                                         1400     1410     1200     1210     1080     1600     1650     1300     1700     1380   
                                           T        V       H0       H01     AOSYM     SMH    MOLCAS    ERIS     OPER     JKOP   

              2       4        0.44       700     1000      520     2100   
                                         GEOM     BASIS   MCVARS     RHF  

 PROGRAMS   *        TOTALCOUNTERPOI   CCSD(T)    HF-SCF       INT
 CPU TIMES  *         0.34      0.00      0.11      0.02      0.12
 REAL TIME  *         6.65 SEC
 DISK USED  *        34.59 MB
 **********************************************************************************************************************************

 Dump information in style XML to xml output                                                                      

 Orbitals will not be exported.

 **********************************************************************************************************************************

 CCSD(T)/aug-cc-pVDZ energy=    -76.273828130409

         CCSD(T)          HF-SCF
    -76.27382813    -76.04108150
 **********************************************************************************************************************************
 Molpro calculation terminated
