
 Working directory              : /var/folders/2v/xbgp75_9785319ghcgb4zr4r0000gp/T//molpro.tRWA9UqDng/
 Global scratch directory       : /var/folders/2v/xbgp75_9785319ghcgb4zr4r0000gp/T//molpro.tRWA9UqDng/
 Wavefunction directory         : /Users/sacpjk/wfu/
 Main file repository           : /var/folders/2v/xbgp75_9785319ghcgb4zr4r0000gp/T//molpro.tRWA9UqDng/

 id        : peterk

 Nodes                        nprocs
 Cardiff-University-G34YLXT77Y    1
 GA implementation: MPI file
 GA implementation (serial work in mppx): MPI file

 Using customized tuning parameters: mindgm=1; mindgv=20; mindgc=4; mindgr=1; noblas=0; minvec=7
 default implementation of scratch files=df  


 Variables initialized (1032), CPU time= 0.00 sec
 
 symmetry,nosym
 
 
 geometry={
            3
     C          0.37482171      0.51783010      0.00000000
     N          0.37482171     -0.67052208      0.00000000
     H         -0.74964343      0.15269198      0.00000000
 }
 basis=cc-pVTZ
 
 
 
 hf; hf; papt; mp4
 
 
 
 {put,xml;noorbitals,nobasis}
 Commands initialized (841), CPU time= 0.00 sec, 704 directives.
 Default parameters read. Elapsed time= 0.10 sec

 Checking input...
 Passed
1


                                         ***  PROGRAM SYSTEM MOLPRO  ***
                                       Copyright, TTI GmbH Stuttgart, 2015
                                    Version 2023.1 linked Tue Jun  6 09:54:11 2023


 **********************************************************************************************************************************
 LABEL *                                                                                                                                                                 
  64 bit serial version                                                                  DATE: 09-Jun-23          TIME: 09:30:54  
 **********************************************************************************************************************************

 SHA1:             8ebb0dd001088a5c915591db1a321413035db0b1
 **********************************************************************************************************************************

 Memory per process:       805 MW
 Total memory per node:   1074 MW
 Total GA space:           268 MW

 GA preallocation disabled
 GA check enabled

 Variable memory set to 805.3 MW

 ZSYMEL=NOSYM


 Geometry recognized as XYZ

 SETTING BASIS          =    CC-PVTZ


 Recomputing integrals since basis changed


 Using spherical harmonics

 Library entry C      S cc-pVTZ              selected for orbital group  1
 Library entry C      P cc-pVTZ              selected for orbital group  1
 Library entry C      D cc-pVTZ              selected for orbital group  1
 Library entry C      F cc-pVTZ              selected for orbital group  1
 Library entry N      S cc-pVTZ              selected for orbital group  2
 Library entry N      P cc-pVTZ              selected for orbital group  2
 Library entry N      D cc-pVTZ              selected for orbital group  2
 Library entry N      F cc-pVTZ              selected for orbital group  2
 Library entry H      S cc-pVTZ              selected for orbital group  3
 Library entry H      P cc-pVTZ              selected for orbital group  3
 Library entry H      D cc-pVTZ              selected for orbital group  3


 PROGRAM * SEWARD (Integral evaluation for generally contracted gaussian basis sets)     Author: Roland Lindh, 1990

 Geometry written to block  1 of record 700


 Point group  C1  



 ATOMIC COORDINATES

 NR  ATOM    CHARGE       X              Y              Z

   1  C       6.00    0.708310377    0.978557068    0.000000000
   2  N       7.00    0.708310377   -1.267103092    0.000000000
   3  H       1.00   -1.416620774    0.288546024    0.000000000

 Bond lengths in Bohr (Angstrom)

 1-2  2.245660160  1-3  2.234154793  2-3  2.633510313
     ( 1.188352180)     ( 1.182263802)     ( 1.393593642)

 Bond angles

  1-2-3   53.79236971   1-3-2   54.19736348   2-1-3   72.01026681

 NUCLEAR CHARGE:                   14
 NUMBER OF PRIMITIVE AOS:         111
 NUMBER OF SYMMETRY AOS:          100
 NUMBER OF CONTRACTIONS:           74   (   74A   )
 NUMBER OF INNER CORE ORBITALS:     0   (    0A   )
 NUMBER OF OUTER CORE ORBITALS:     2   (    2A   )
 NUMBER OF VALENCE ORBITALS:        9   (    9A   )


 NUCLEAR REPULSION ENERGY   24.04636942

 EXTRA SYMMETRY OF AOS IN SYMMETRY 1:   1 1 1 1 1 1 2 1 1 2   1 1 2 1 1 2 1 2 1 1   2 1 2 1 1 2 1 2 1 2   1 1 1 1 1 1 2 1 1 2
                                        1 1 2 1 1 2 1 2 1 1   2 1 2 1 1 2 1 2 1 2   1 1 1 1 1 2 1 1 2 1   1 2 1 2

 Eigenvalues of metric

         1 0.147E-02 0.224E-02 0.298E-02 0.709E-02 0.107E-01 0.202E-01 0.206E-01 0.267E-01


 Contracted 2-electron integrals neglected if value below      1.0D-11
 AO integral compression algorithm  1   Integral accuracy      1.0D-11

     9.961 MB (compressed) written to integral file ( 25.6%)


 NUMBER OF SORTED TWO-ELECTRON INTEGRALS:    3851700.     BUFFER LENGTH:  32768
 NUMBER OF SEGMENTS:   1  SEGMENT LENGTH:    3851700      RECORD LENGTH: 524288

 Memory used in sort:       4.41 MW

 SORT1 READ     4876733. AND WROTE     1507901. INTEGRALS IN      5 RECORDS. CPU TIME:     0.02 SEC, REAL TIME:     0.03 SEC
 SORT2 READ     1507901. AND WROTE     3851700. INTEGRALS IN     38 RECORDS. CPU TIME:     0.05 SEC, REAL TIME:     0.06 SEC

 FILE SIZES:   FILE 1:    40.2 MBYTE,  FILE 4:    21.0 MBYTE,   TOTAL:     61.2 MBYTE

 OPERATOR DM      FOR CENTER  0  COORDINATES:    0.000000    0.000000    0.000000


 **********************************************************************************************************************************
 DATASETS  * FILE   NREC   LENGTH (MB)   RECORD NAMES
              1      19       36.19       500      610      700      900      950      970     1000      129      960     1100   
                                          VAR    BASINP    GEOM    SYMINP    ZMAT    AOBASIS   BASIS     P2S    ABASIS      S 
                                         1400     1410     1200     1210     1080     1600     1650     1300     1700   
                                           T        V       H0       H01     AOSYM     SMH    MOLCAS    ERIS     OPER   

 PROGRAMS   *        TOTAL       INT
 CPU TIMES  *         0.34      0.26
 REAL TIME  *         0.72 SEC
 DISK USED  *        58.75 MB
 **********************************************************************************************************************************


 Program * Restricted Hartree-Fock

 Orbital guess generated from atomic densities. Full valence occupancy:   11

 Initial occupancy:   7

 NELEC=   14   SYM=1   MS2= 0   THRE=1.0D-08   THRD=3.2D-06   THRG=3.2D-06  HFMA2=F  DIIS_START=2   DIIS_MAX=10   DIIS_INCORE=F

 Level shifts:    0.00 (CLOSED)    0.00 (OPEN)    0.30 (GAP_MIN)

 ITER           ETOT              DE          GRAD        DDIFF     DIIS  NEXP   TIME(IT)  TIME(TOT)  DIAG
   1      -92.81352547     -92.81352547     0.00D+00     0.91D-01     0     0       0.02      0.03    start
   2      -92.82917919      -0.01565372     0.48D-02     0.69D-02     1     0       0.01      0.04    diag
   3      -92.83121527      -0.00203608     0.15D-02     0.18D-02     2     0       0.02      0.06    diag
   4      -92.83193313      -0.00071785     0.71D-03     0.12D-02     3     0       0.01      0.07    diag
   5      -92.83218807      -0.00025494     0.43D-03     0.65D-03     4     0       0.02      0.09    diag
   6      -92.83230473      -0.00011666     0.21D-03     0.63D-03     5     0       0.02      0.11    diag
   7      -92.83231261      -0.00000788     0.57D-04     0.18D-03     6     0       0.01      0.12    diag
   8      -92.83231297      -0.00000036     0.15D-04     0.38D-04     7     0       0.02      0.14    fixocc
   9      -92.83231299      -0.00000002     0.39D-05     0.81D-05     8     0       0.01      0.15    diag
  10      -92.83231300      -0.00000000     0.11D-05     0.19D-05     9     0       0.02      0.17    diag/orth
  11      -92.83231300      -0.00000000     0.29D-06     0.40D-06     0     0       0.01      0.18    diag

 Final occupancy:   7

 !RHF STATE 1.1 Energy                -92.832312995683
  RHF One-electron energy            -172.519818974337
  RHF Two-electron energy              55.641136563426
  RHF Kinetic energy                   92.694308174513
  RHF Nuclear energy                   24.046369415229
  RHF Virial quotient                  -1.001488816562

 !RHF STATE 1.1 Dipole moment          -0.51792383     0.01769536     0.00000000
 Dipole moment /Debye                  -1.31643107     0.04497712     0.00000000

 Orbital energies:

           1.1          2.1          3.1          4.1          5.1          6.1          7.1          8.1          9.1
    -15.654249   -11.295860    -1.306868    -0.706348    -0.626001    -0.532542    -0.496906     0.101866     0.159572


 HOMO      7.1    -0.496906 =     -13.5215eV
 LUMO      8.1     0.101866 =       2.7719eV
 LUMO-HOMO         0.598772 =      16.2934eV

 Orbitals saved in record  2100.2


 **********************************************************************************************************************************
 DATASETS  * FILE   NREC   LENGTH (MB)   RECORD NAMES
              1      19       36.19       500      610      700      900      950      970     1000      129      960     1100   
                                          VAR    BASINP    GEOM    SYMINP    ZMAT    AOBASIS   BASIS     P2S    ABASIS      S 
                                         1400     1410     1200     1210     1080     1600     1650     1300     1700   
                                           T        V       H0       H01     AOSYM     SMH    MOLCAS    ERIS     OPER   

              2       4        0.50       700     1000      520     2100   
                                         GEOM     BASIS   MCVARS     RHF  

 PROGRAMS   *        TOTAL    HF-SCF       INT
 CPU TIMES  *         0.53      0.19      0.26
 REAL TIME  *         1.12 SEC
 DISK USED  *        58.75 MB
 **********************************************************************************************************************************


 Program * Restricted Hartree-Fock

 Molecular orbitals read from record     2100.2  Type=RHF/CANONICAL  

 Initial occupancy:   7

 NELEC=   14   SYM=1   MS2= 0   THRE=1.0D-08   THRD=3.2D-06   THRG=3.2D-06  HFMA2=F  DIIS_START=2   DIIS_MAX=10   DIIS_INCORE=F

 Level shifts:    0.00 (CLOSED)    0.00 (OPEN)    0.30 (GAP_MIN)

 ITER           ETOT              DE          GRAD        DDIFF     DIIS  NEXP   TIME(IT)  TIME(TOT)  DIAG
   1      -92.83231300     -92.83231300     0.00D+00     0.94D-01     0     0       0.02      0.02    start
   2      -92.83231300      -0.00000000     0.16D-06     0.23D-06     1     0       0.01      0.03    diag

 Final occupancy:   7

 !RHF STATE 1.1 Energy                -92.832312995715
  RHF One-electron energy            -172.519813866675
  RHF Two-electron energy              55.641131455731
  RHF Kinetic energy                   92.694303303099
  RHF Nuclear energy                   24.046369415229
  RHF Virial quotient                  -1.001488869194

 !RHF STATE 1.1 Dipole moment          -0.51792420     0.01768583    -0.00000000
 Dipole moment /Debye                  -1.31643201     0.04495291    -0.00000000

 Orbital energies:

           1.1          2.1          3.1          4.1          5.1          6.1          7.1          8.1          9.1
    -15.654246   -11.295863    -1.306867    -0.706347    -0.626002    -0.532541    -0.496907     0.101866     0.159572


 HOMO      7.1    -0.496907 =     -13.5215eV
 LUMO      8.1     0.101866 =       2.7719eV
 LUMO-HOMO         0.598773 =      16.2934eV

 Orbitals saved in record  2101.2


 **********************************************************************************************************************************
 DATASETS  * FILE   NREC   LENGTH (MB)   RECORD NAMES
              1      19       36.19       500      610      700      900      950      970     1000      129      960     1100   
                                          VAR    BASINP    GEOM    SYMINP    ZMAT    AOBASIS   BASIS     P2S    ABASIS      S 
                                         1400     1410     1200     1210     1080     1600     1650     1300     1700   
                                           T        V       H0       H01     AOSYM     SMH    MOLCAS    ERIS     OPER   

              2       5        0.75       700     1000      520     2100     2101   
                                         GEOM     BASIS   MCVARS     RHF      RHF  

 PROGRAMS   *        TOTAL    HF-SCF    HF-SCF       INT
 CPU TIMES  *         0.56      0.03      0.19      0.26
 REAL TIME  *         1.24 SEC
 DISK USED  *        58.75 MB
 **********************************************************************************************************************************


 PROGRAM * PAPT (Closed-shell)     Authors: C. Hampel, H.-J. Werner, 1991, P.J. Knowles, 2021


 Convergence thresholds:  THRVAR = 1.00D-08  THRDEN = 1.00D-06

 Number of core orbitals:           2 (   2 )
 Number of closed-shell orbitals:   5 (   5 )
 Number of external orbitals:      67 (  67 )

 Molecular orbitals read from record     2101.2  Type=RHF/CANONICAL  

 Number of N-1 electron functions:               5
 Number of N-2 electron functions:              15
 Number of singly external CSFs:               335
 Number of doubly external CSFs:             56280
 Total number of CSFs:                       56616

 Length of J-op  integral file:               0.00 MB
 Length of K-op  integral file:               0.44 MB

 Integral transformation finished. Total CPU:   0.02 sec, npass=  1  Memory used:   0.29 MW

 Reference energy:                    -92.83231300

                        CORR.ENERGY   TOTAL ENERGY   ENERGY CHANGE
 MP2:                   -0.33776870   -93.17008170    -0.33776870

 SCS-MP2 correlation energy:           -0.33307408   (PS=  1.200000  PT=  0.333333)
 SCS-MP2 total energy:                -93.16538708
 Iteration:   1     0.2242D+00
 Iteration:   2     0.3159D+00
 Iteration:   3     0.7799D-01
 Iteration:   4     0.5137D-01
 Iteration:   5     0.7349D-01
 Iteration:   6     0.2338D-01
 Iteration:   7     0.3534D+00
 Iteration:   8     0.4095D-02
 Iteration:   9     0.3766D-02
 Iteration:  10     0.3488D-02
 Iteration:  11     0.1025D-02
 Iteration:  12     0.5568D-02
 Iteration:  13     0.2384D-03
 Iteration:  14     0.1727D-03
 Iteration:  15     0.1589D-03
 Iteration:  16     0.3388D-04
 PAPT operator written to  7000.1
 PAPT orbitals and eigenvalues written to  7000.2

 MP3(D):                -0.34244118   -93.17475418    -0.00467248



 RESULTS
 =======

  Reference energy                    -92.832312995714
  MP3 singlet pair energy              -0.230191045539
  MP3 triplet pair energy              -0.112250138344
  MP3 correlation energy               -0.342441183884

 !MP3 total energy                    -93.174754179598

 Timing summary (sec):

 STEP                 CPU(USER)    SYS     CPU(TOT)    WALL
 Transformation          0.02      0.00      0.02      0.04
 CCSD iterations         0.79      0.04      0.83      0.24

 Program statistics:

 Available memory in ccsd:               805306261
 Min. memory needed in ccsd:                230499
 Max. memory used in ccsd:                  270789
 Max. memory used in cckext:                224923 ( 1 integral passes)



 **********************************************************************************************************************************
 DATASETS  * FILE   NREC   LENGTH (MB)   RECORD NAMES
              1      21       37.24       500      610      700      900      950      970     1000      129      960     1100   
                                          VAR    BASINP    GEOM    SYMINP    ZMAT    AOBASIS   BASIS     P2S    ABASIS      S 
                                         1400     1410     1200     1210     1080     1600     1650     1300     1700     1380   
                                           T        V       H0       H01     AOSYM     SMH    MOLCAS    ERIS     OPER     JKOP   
                                         7000   
                                        PAPT AO    

              2       6        0.97       700     1000      520     2100     2101     7000   
                                         GEOM     BASIS   MCVARS     RHF      RHF     PAPT   

 PROGRAMS   *        TOTAL      PAPT    HF-SCF    HF-SCF       INT
 CPU TIMES  *         0.73      0.16      0.03      0.19      0.26
 REAL TIME  *         1.60 SEC
 DISK USED  *        58.75 MB
 **********************************************************************************************************************************


 PROGRAM * MP4 (Closed-shell)     Authors: C. Hampel, H.-J. Werner, 1991, M. Deegan, P.J. Knowles, 1992


 Convergence thresholds:  THRVAR = 1.00D-08  THRDEN = 1.00D-06

 MP4(T)     terms to be evaluated (factor= 0.000)


 Number of core orbitals:           2 (   2 )
 Number of closed-shell orbitals:   5 (   5 )
 Number of external orbitals:      67 (  67 )

 Molecular orbitals read from record     7000.2  Type=PAPT/CANONICAL (state 1.1)

 Number of N-1 electron functions:               5
 Number of N-2 electron functions:              15
 Number of singly external CSFs:               335
 Number of doubly external CSFs:             56280
 Total number of CSFs:                       56616

 Length of J-op  integral file:               0.00 MB
 Length of K-op  integral file:               0.44 MB

 Memory could be reduced to 2.51 Mwords without degradation in triples

 Integral transformation finished. Total CPU:   0.04 sec, npass=  1  Memory used:   1.52 MW
 Orbital energies read from record       7000.2  Type=PAPT/CANONICAL (state 1.1)

 Reference energy:                    -92.83231300

                        CORR.ENERGY   TOTAL ENERGY   ENERGY CHANGE
 MP2:                   -0.34710721   -93.17942020    -0.34710721

 SCS-MP2 correlation energy:           -0.34459212   (PS=  1.200000  PT=  0.333333)
 SCS-MP2 total energy:                -93.17690511

 MP3(D):                -0.34700559   -93.17931858     0.00010162
 MP4(DQ):               -0.34227409   -93.17458708     0.00473150
 MP4(SDQ):              -0.34739843   -93.17971142    -0.00512434

 Norm of t1 vector:      0.07185940      S-energy:    -0.00512434      T1 diagnostic:  0.01606825

 Largest off-diagonal element in interal  block of Fock matrix:  0.20D+00
 Largest off-diagonal element in external block of Fock matrix:  0.28D+00


 Total CPU time for triples:      0.13 sec


 RESULTS
 =======

  Reference energy                    -92.832312995714
  MP4(SDQ) singlet pair energy         -0.230234365098
  MP4(SDQ) triplet pair energy         -0.112039721454
  MP4(SDQ) correlation energy          -0.347398426048

  Triples contribution                 -0.020589575866
  Total correlation energy             -0.367988001913

  MP4(SDQ) total energy               -93.179711421762
 !MP4(SDTQ) total energy              -93.200300997628

 Timing summary (sec):

 STEP                 CPU(USER)    SYS     CPU(TOT)    WALL
 Transformation          0.05      0.01      0.06      0.11
 CCSD iterations         0.89      0.00      0.89      0.10
 Triples                 0.13      0.01      0.14      0.15

 Program statistics:

 Available memory in ccsd:               805306261
 Min. memory needed in ccsd:                230499
 Max. memory used in ccsd:                  270789
 Max. memory used in cckext:                224923 ( 1 integral passes)



 **********************************************************************************************************************************
 DATASETS  * FILE   NREC   LENGTH (MB)   RECORD NAMES
              1      22       43.07       500      610      700      900      950      970     1000      129      960     1100   
                                          VAR    BASINP    GEOM    SYMINP    ZMAT    AOBASIS   BASIS     P2S    ABASIS      S 
                                         1400     1410     1200     1210     1080     1600     1650     1300     1700     1380   
                                           T        V       H0       H01     AOSYM     SMH    MOLCAS    ERIS     OPER     JKOP   
                                         7000     1380(1)
                                        PAPT AO   JKOP   

              2       6        0.97       700     1000      520     2100     2101     7000   
                                         GEOM     BASIS   MCVARS     RHF      RHF     PAPT   

 PROGRAMS   *        TOTAL       MP4      PAPT    HF-SCF    HF-SCF       INT
 CPU TIMES  *         0.99      0.26      0.16      0.03      0.19      0.26
 REAL TIME  *         2.01 SEC
 DISK USED  *        58.75 MB
 **********************************************************************************************************************************

 Dump information in style XML to xml output                                                                      

 Orbitals will not be exported.

 **********************************************************************************************************************************

 MP4/cc-pVTZ energy=    -93.200300997628

             MP4            PAPT          HF-SCF          HF-SCF
    -93.20030100    -93.17475418    -92.83231300    -92.83231300
 **********************************************************************************************************************************
 Molpro calculation terminated
