
 Working directory              : /var/folders/2v/xbgp75_9785319ghcgb4zr4r0000gp/T//molpro.IEahMwQB3B/
 Global scratch directory       : /var/folders/2v/xbgp75_9785319ghcgb4zr4r0000gp/T//molpro.IEahMwQB3B/
 Wavefunction directory         : /Users/sacpjk/wfu/
 Main file repository           : /var/folders/2v/xbgp75_9785319ghcgb4zr4r0000gp/T//molpro.IEahMwQB3B/

 id        : peterk

 Nodes                        nprocs
 Cardiff-University-G34YLXT77Y    1
 GA implementation: MPI file
 GA implementation (serial work in mppx): MPI file

 Using customized tuning parameters: mindgm=1; mindgv=20; mindgc=4; mindgr=1; noblas=0; minvec=7
 default implementation of scratch files=df  


 Variables initialized (1032), CPU time= 0.00 sec
 
 symmetry,nosym
 
 
 geometry={
           13
     O          1.80918288     -1.48197632     -0.13563937
     P          1.64426933      0.11003422     -0.02161273
     O          2.62578344      0.89602816     -0.77013022
     O          0.11515077      0.34531982     -0.62604247
     P         -1.28269265      0.12043285      0.12727966
     O         -1.13992226      0.08855444      1.59898901
     O         -2.22040995      1.24159820     -0.50834791
     O         -1.92869837     -1.20324705     -0.45237675
     O          1.48219368      0.38322654      1.51502256
     H          2.40822260     -1.70928404     -0.86653892
     H         -1.95592225      2.14725276     -0.27254575
     H         -2.09204168     -1.18205223     -1.41071749
     H          0.53488444      0.24411265      1.82266037
 }
 basis=cc-pVTZ
 
 
 
 hf; hf; papt; mp2
 
 
 
 {put,xml;noorbitals,nobasis}
 Commands initialized (841), CPU time= 0.01 sec, 704 directives.
 Default parameters read. Elapsed time= 0.56 sec

 Checking input...
 Passed
1


                                         ***  PROGRAM SYSTEM MOLPRO  ***
                                       Copyright, TTI GmbH Stuttgart, 2015
                                    Version 2023.1 linked Tue Jun  6 09:54:11 2023


 **********************************************************************************************************************************
 LABEL *                                                                                                                                                                 
  64 bit serial version                                                                  DATE: 13-Jun-23          TIME: 06:28:40  
 **********************************************************************************************************************************

 SHA1:             8ebb0dd001088a5c915591db1a321413035db0b1
 **********************************************************************************************************************************

 Memory per process:       393 MW
 Total memory per node:    524 MW
 Total GA space:           131 MW

 GA preallocation disabled
 GA check enabled

 Variable memory set to 393.2 MW

 ZSYMEL=NOSYM


 Geometry recognized as XYZ

 SETTING BASIS          =    CC-PVTZ


 Recomputing integrals since basis changed


 Using spherical harmonics

 Library entry O      S cc-pVTZ              selected for orbital group  1
 Library entry O      P cc-pVTZ              selected for orbital group  1
 Library entry O      D cc-pVTZ              selected for orbital group  1
 Library entry O      F cc-pVTZ              selected for orbital group  1
 Library entry P      S cc-pVTZ              selected for orbital group  2
 Library entry P      P cc-pVTZ              selected for orbital group  2
 Library entry P      D cc-pVTZ              selected for orbital group  2
 Library entry P      F cc-pVTZ              selected for orbital group  2
 Library entry H      S cc-pVTZ              selected for orbital group  6
 Library entry H      P cc-pVTZ              selected for orbital group  6
 Library entry H      D cc-pVTZ              selected for orbital group  6


 PROGRAM * SEWARD (Integral evaluation for generally contracted gaussian basis sets)     Author: Roland Lindh, 1990

 Geometry written to block  1 of record 700


 Point group  C1  



 ATOMIC COORDINATES

 NR  ATOM    CHARGE       X              Y              Z

   1  O       8.00    3.418860153   -2.800529368   -0.256321261
   2  P      15.00    3.107218709    0.207934540   -0.040842141
   3  O       8.00    4.962011564    1.693247822   -1.455335196
   4  O       8.00    0.217603418    0.652559885   -1.183048811
   5  P      15.00   -2.423937811    0.227585103    0.240523699
   6  O       8.00   -2.154140875    0.167343639    3.021651305
   7  O       8.00   -4.195966690    2.346280555   -0.960638326
   8  O       8.00   -3.644711696   -2.273807385   -0.854868163
   9  O       8.00    2.800940119    0.724193204    2.862977711
  10  H       1.00    4.550881161   -3.230078705   -1.637521235
  11  H       1.00   -3.696157374    4.057719637   -0.515036824
  12  H       1.00   -3.953385817   -2.233754980   -2.665869695
  13  H       1.00    1.010785100    0.461306052    3.444328918

 Bond lengths in Bohr (Angstrom)

  1- 2  3.032228014   1-10  1.836762795   2- 3  2.765357606   2- 4  3.138822120   2- 5  5.538343193
       ( 1.604585963)       ( 0.971973013)       ( 1.463364225)       ( 1.660993135)       ( 2.930765004)

 2-9  2.965214885  4-5  3.030660377  5-6  2.794832765  5-7  3.011934092  5-8  2.991176455
     ( 1.569124142)     ( 1.603756405)     ( 1.478961808)     ( 1.593846882)     ( 1.582862414)

  7-11  1.837768697   8-12  1.837555566   9-13  1.900456227
       ( 0.972505313)       ( 0.972392529)       ( 1.005678126)

 Bond angles

  1-2-3  115.31669222   1-2-4  102.08135034   1-2-5   96.30226133   1-2-9  104.65202332

  2- 1-10  110.41450845   2- 4- 5  127.70604244   2- 5- 4   26.64008509   2- 5- 6   87.36740501

  2- 5- 7  124.73683139   2- 5- 8  112.70731037   2- 9-13  111.88711401   3- 2- 4  110.80896956

  3-2-5  133.94236567   3-2-9  118.46872697   4-2-5   25.65387247   4-2-9  103.68652937

  4-5-6  112.72464706   4-5-7  103.11061433   4-5-8  107.51599394   5-2-9   81.16870440

  5- 7-11  113.47664849   5- 8-12  114.28309143   6- 5- 7  117.95656176   6- 5- 8  112.69246755

  7-5-8  101.65936328

 NUCLEAR CHARGE:                   90
 NUMBER OF PRIMITIVE AOS:         525
 NUMBER OF SYMMETRY AOS:          476
 NUMBER OF CONTRACTIONS:          334   (  334A   )
 NUMBER OF INNER CORE ORBITALS:     2   (    2A   )
 NUMBER OF OUTER CORE ORBITALS:    15   (   15A   )
 NUMBER OF VALENCE ORBITALS:       40   (   40A   )


 NUCLEAR REPULSION ENERGY  776.59521062


 Eigenvalues of metric

         1 0.148E-02 0.162E-02 0.176E-02 0.182E-02 0.192E-02 0.202E-02 0.214E-02 0.222E-02


 Contracted 2-electron integrals neglected if value below      1.0D-11
 AO integral compression algorithm  1   Integral accuracy      1.0D-11

     3722.183 MB (compressed) written to integral file ( 30.8%)


 NUMBER OF SORTED TWO-ELECTRON INTEGRALS: 1564949485.     BUFFER LENGTH:  32768
 NUMBER OF SEGMENTS:  49  SEGMENT LENGTH:   31998710      RECORD LENGTH: 524288

 Memory used in sort:      32.56 MW

 SORT1 READ  1510734411. AND WROTE  1040055925. INTEGRALS IN   3000 RECORDS. CPU TIME:    10.51 SEC, REAL TIME:    13.37 SEC
 SORT2 READ  1040055925. AND WROTE  1564949485. INTEGRALS IN  14199 RECORDS. CPU TIME:     8.22 SEC, REAL TIME:    10.65 SEC

 FILE SIZES:   FILE 1:  3756.5 MBYTE,  FILE 4: 12583.0 MBYTE,   TOTAL:  16339.5 MBYTE

 OPERATOR DM      FOR CENTER  0  COORDINATES:    0.000000    0.000000    0.000000


 **********************************************************************************************************************************
 DATASETS  * FILE   NREC   LENGTH (MB)   RECORD NAMES
              1      19     3191.88       500      610      700      900      950      970     1000      129      960     1100   
                                          VAR    BASINP    GEOM    SYMINP    ZMAT    AOBASIS   BASIS     P2S    ABASIS      S 
                                         1400     1410     1200     1210     1080     1600     1650     1300     1700   
                                           T        V       H0       H01     AOSYM     SMH    MOLCAS    ERIS     OPER   

 PROGRAMS   *        TOTAL       INT
 CPU TIMES  *        50.00     49.90
 REAL TIME  *        60.17 SEC
 DISK USED  *        15.22 GB
 **********************************************************************************************************************************


 Program * Restricted Hartree-Fock

 Orbital guess generated from atomic densities. Full valence occupancy:   57

 Initial occupancy:  45

 NELEC=   90   SYM=1   MS2= 0   THRE=1.0D-08   THRD=3.2D-06   THRG=3.2D-06  HFMA2=F  DIIS_START=2   DIIS_MAX=10   DIIS_INCORE=F

 Level shifts:    0.00 (CLOSED)    0.00 (OPEN)    0.30 (GAP_MIN)

 ITER           ETOT              DE          GRAD        DDIFF     DIIS  NEXP   TIME(IT)  TIME(TOT)  DIAG
   1    -1208.09100686   -1208.09100686     0.00D+00     0.53D-01     0     0       6.38     12.50    start
   2    -1208.26513635      -0.17412949     0.52D-02     0.79D-02     1     0       6.34     18.84    diag
   3    -1208.36196771      -0.09683135     0.34D-02     0.30D-02     2     0       6.54     25.38    diag
   4    -1208.36394761      -0.00197990     0.43D-03     0.52D-03     3     0       7.15     32.53    diag
   5    -1208.36423690      -0.00028930     0.17D-03     0.20D-03     4     0       6.92     39.45    diag
   6    -1208.36425554      -0.00001864     0.35D-04     0.45D-04     5     0       6.94     46.39    diag
   7    -1208.36425732      -0.00000178     0.79D-05     0.15D-04     6     0       7.04     53.43    diag
   8    -1208.36425744      -0.00000012     0.22D-05     0.39D-05     7     0       7.09     60.52    fixocc
   9    -1208.36425745      -0.00000001     0.77D-06     0.13D-05     8     0       7.21     67.73    diag
  10    -1208.36425746      -0.00000000     0.29D-06     0.44D-06     9     0       7.20     74.93    diag/orth
  11    -1208.36425746      -0.00000000     0.10D-06     0.15D-06     0     0       7.07     82.00    diag

 Final occupancy:  45

 !RHF STATE 1.1 Energy              -1208.364257456105
  RHF One-electron energy           -3216.740509831022
  RHF Two-electron energy            1231.781041752693
  RHF Kinetic energy                 1207.040822069476
  RHF Nuclear energy                  776.595210622224
  RHF Virial quotient                  -1.001096429684

 !RHF STATE 1.1 Dipole moment          -1.25462305    -0.30331218    -1.20510816
 Dipole moment /Debye                  -3.18893371    -0.77094266    -3.06307941

 Orbital energies:

           1.1          2.1          3.1          4.1          5.1          6.1          7.1          8.1          9.1         10.1
    -80.154769   -80.127856   -20.643724   -20.640504   -20.639577   -20.618450   -20.600362   -20.557378   -20.523451    -7.671590

          11.1         12.1         13.1         14.1         15.1         16.1         17.1         18.1         19.1         20.1
     -7.644793    -5.570028    -5.569892    -5.568856    -5.543573    -5.542634    -5.541675    -1.503140    -1.459463    -1.421648

          21.1         22.1         23.1         24.1         25.1         26.1         27.1         28.1         29.1         30.1
     -1.407306    -1.390861    -1.346507    -1.310905    -0.916519    -0.857661    -0.799067    -0.793547    -0.762777    -0.715218

          31.1         32.1         33.1         34.1         35.1         36.1         37.1         38.1         39.1         40.1
     -0.687754    -0.671012    -0.658423    -0.641002    -0.619921    -0.605740    -0.592702    -0.589962    -0.570684    -0.564155

          41.1         42.1         43.1         44.1         45.1         46.1         47.1
     -0.542697    -0.520250    -0.513568    -0.486671    -0.480979     0.100010     0.132269


 HOMO     45.1    -0.480979 =     -13.0881eV
 LUMO     46.1     0.100010 =       2.7214eV
 LUMO-HOMO         0.580989 =      15.8095eV

 Orbitals saved in record  2100.2


 **********************************************************************************************************************************
 DATASETS  * FILE   NREC   LENGTH (MB)   RECORD NAMES
              1      19     3191.88       500      610      700      900      950      970     1000      129      960     1100   
                                          VAR    BASINP    GEOM    SYMINP    ZMAT    AOBASIS   BASIS     P2S    ABASIS      S 
                                         1400     1410     1200     1210     1080     1600     1650     1300     1700   
                                           T        V       H0       H01     AOSYM     SMH    MOLCAS    ERIS     OPER   

              2       4        2.34       700     1000      520     2100   
                                         GEOM     BASIS   MCVARS     RHF  

 PROGRAMS   *        TOTAL    HF-SCF       INT
 CPU TIMES  *       132.01     82.01     49.90
 REAL TIME  *       152.72 SEC
 DISK USED  *        15.22 GB
 **********************************************************************************************************************************


 Program * Restricted Hartree-Fock

 Molecular orbitals read from record     2100.2  Type=RHF/CANONICAL  

 Initial occupancy:  45

 NELEC=   90   SYM=1   MS2= 0   THRE=1.0D-08   THRD=3.2D-06   THRG=3.2D-06  HFMA2=F  DIIS_START=2   DIIS_MAX=10   DIIS_INCORE=F

 Level shifts:    0.00 (CLOSED)    0.00 (OPEN)    0.30 (GAP_MIN)

 ITER           ETOT              DE          GRAD        DDIFF     DIIS  NEXP   TIME(IT)  TIME(TOT)  DIAG
   1    -1208.36425746   -1208.36425746     0.00D+00     0.53D-01     0     0       6.91      6.91    start
   2    -1208.36425746      -0.00000000     0.60D-07     0.91D-07     1     0       6.88     13.79    diag

 Final occupancy:  45

 !RHF STATE 1.1 Energy              -1208.364257456144
  RHF One-electron energy           -3216.740478899552
  RHF Two-electron energy            1231.781010821184
  RHF Kinetic energy                 1207.040812048317
  RHF Nuclear energy                  776.595210622224
  RHF Virial quotient                  -1.001096437995

 !RHF STATE 1.1 Dipole moment          -1.25461764    -0.30330621    -1.20512565
 Dipole moment /Debye                  -3.18891995    -0.77092749    -3.06312387

 Orbital energies:

           1.1          2.1          3.1          4.1          5.1          6.1          7.1          8.1          9.1         10.1
    -80.154765   -80.127856   -20.643723   -20.640502   -20.639568   -20.618455   -20.600366   -20.557385   -20.523441    -7.671587

          11.1         12.1         13.1         14.1         15.1         16.1         17.1         18.1         19.1         20.1
     -7.644793    -5.570025    -5.569889    -5.568853    -5.543573    -5.542634    -5.541675    -1.503138    -1.459462    -1.421647

          21.1         22.1         23.1         24.1         25.1         26.1         27.1         28.1         29.1         30.1
     -1.407306    -1.390862    -1.346508    -1.310902    -0.916517    -0.857661    -0.799067    -0.793546    -0.762778    -0.715217

          31.1         32.1         33.1         34.1         35.1         36.1         37.1         38.1         39.1         40.1
     -0.687753    -0.671012    -0.658422    -0.641001    -0.619920    -0.605740    -0.592702    -0.589962    -0.570683    -0.564154

          41.1         42.1         43.1         44.1         45.1         46.1         47.1
     -0.542697    -0.520251    -0.513569    -0.486667    -0.480977     0.100011     0.132269


 HOMO     45.1    -0.480977 =     -13.0880eV
 LUMO     46.1     0.100011 =       2.7214eV
 LUMO-HOMO         0.580987 =      15.8095eV

 Orbitals saved in record  2101.2


 **********************************************************************************************************************************
 DATASETS  * FILE   NREC   LENGTH (MB)   RECORD NAMES
              1      19     3191.88       500      610      700      900      950      970     1000      129      960     1100   
                                          VAR    BASINP    GEOM    SYMINP    ZMAT    AOBASIS   BASIS     P2S    ABASIS      S 
                                         1400     1410     1200     1210     1080     1600     1650     1300     1700   
                                           T        V       H0       H01     AOSYM     SMH    MOLCAS    ERIS     OPER   

              2       5        5.43       700     1000      520     2100     2101   
                                         GEOM     BASIS   MCVARS     RHF      RHF  

 PROGRAMS   *        TOTAL    HF-SCF    HF-SCF       INT
 CPU TIMES  *       145.81     13.80     82.01     49.90
 REAL TIME  *       168.63 SEC
 DISK USED  *        15.22 GB
 **********************************************************************************************************************************


 PROGRAM * PAPT (Closed-shell)     Authors: C. Hampel, H.-J. Werner, 1991, P.J. Knowles, 2021


 Convergence thresholds:  THRVAR = 1.00D-08  THRDEN = 1.00D-06

 Number of core orbitals:          17 (  17 )
 Number of closed-shell orbitals:  28 (  28 )
 Number of external orbitals:     289 ( 289 )

 Molecular orbitals read from record     2101.2  Type=RHF/CANONICAL  

 Number of N-1 electron functions:              28
 Number of N-2 electron functions:             406
 Number of singly external CSFs:              8092
 Number of doubly external CSFs:          32744278
 Total number of CSFs:                    32752371

 Length of J-op  integral file:               0.00 MB
 Length of K-op  integral file:               7.72 MB

 Integral transformation finished. Total CPU:  30.24 sec, npass=  1  Memory used:  74.49 MW

 Reference energy:                  -1208.36425746

                        CORR.ENERGY   TOTAL ENERGY   ENERGY CHANGE
 MP2:                   -1.95968762 -1210.32394507    -1.95968762

 SCS-MP2 correlation energy:           -1.90110249   (PS=  1.200000  PT=  0.333333)
 SCS-MP2 total energy:              -1210.26535994
 Iteration:   1     0.2256D+00
 Iteration:   2     0.2918D+00
 Iteration:   3     0.7907D-01
 Iteration:   4     0.4163D-01
 Iteration:   5     0.1100D+00
 Iteration:   6     0.1165D-01
 Iteration:   7     0.3458D+00
 Iteration:   8     0.4676D-02
 Iteration:   9     0.7613D-02
 Iteration:  10     0.3121D-02
 Iteration:  11     0.2373D-02
 Iteration:  12     0.3842D-02
 Iteration:  13     0.9467D-03
 Iteration:  14     0.4918D-02
 Iteration:  15     0.4984D-03
 Iteration:  16     0.7540D-03
 Iteration:  17     0.3821D-03
 Iteration:  18     0.2409D-03
 Iteration:  19     0.6644D-03
 Iteration:  20     0.9395D-04
 PAPT operator written to  7000.1
 PAPT orbitals and eigenvalues written to  7000.2

 MP3(D):                -1.94558512 -1210.30984258     0.01410250



 RESULTS
 =======

  Reference energy                  -1208.364257456144
  MP3 singlet pair energy              -1.243597950247
  MP3 triplet pair energy              -0.701987171495
  MP3 correlation energy               -1.945585121742

 !MP3 total energy                  -1210.309842577886

 Timing summary (sec):

 STEP                 CPU(USER)    SYS     CPU(TOT)    WALL
 Transformation         32.44      4.83     37.27     36.66
 CCSD iterations       530.32     12.52    542.84    372.06

 Program statistics:

 Available memory in ccsd:               393212819
 Min. memory needed in ccsd:              75791165
 Max. memory used in ccsd:               106585215
 Max. memory used in cckext:              92167240 ( 1 integral passes)



 **********************************************************************************************************************************
 DATASETS  * FILE   NREC   LENGTH (MB)   RECORD NAMES
              1      21     3712.86       500      610      700      900      950      970     1000      129      960     1100   
                                          VAR    BASINP    GEOM    SYMINP    ZMAT    AOBASIS   BASIS     P2S    ABASIS      S 
                                         1400     1410     1200     1210     1080     1600     1650     1300     1700     1380   
                                           T        V       H0       H01     AOSYM     SMH    MOLCAS    ERIS     OPER     JKOP   
                                         7000   
                                        PAPT AO    

              2       6        8.09       700     1000      520     2100     2101     7000   
                                         GEOM     BASIS   MCVARS     RHF      RHF     PAPT   

 PROGRAMS   *        TOTAL      PAPT    HF-SCF    HF-SCF       INT
 CPU TIMES  *       562.68    416.86     13.80     82.01     49.90
 REAL TIME  *       577.51 SEC
 DISK USED  *        15.22 GB
 **********************************************************************************************************************************


 PROGRAM * MP2 (Closed-shell)     Authors: C. Hampel, H.-J. Werner, 1991, M. Deegan, P.J. Knowles, 1992


 Convergence thresholds:  THRVAR = 1.00D-08  THRDEN = 1.00D-06

 Number of core orbitals:          17 (  17 )
 Number of closed-shell orbitals:  28 (  28 )
 Number of external orbitals:     289 ( 289 )

 Molecular orbitals read from record     7000.2  Type=PAPT/CANONICAL (state 1.1)

 Number of N-1 electron functions:              28
 Number of N-2 electron functions:             406
 Number of singly external CSFs:              8092
 Number of doubly external CSFs:          32744278
 Total number of CSFs:                    32752371

 Length of J-op  integral file:               0.00 MB
 Length of K-op  integral file:               7.72 MB

 Integral transformation finished. Total CPU:  25.10 sec, npass=  1  Memory used:  74.49 MW
 Orbital energies read from record       7000.2  Type=PAPT/CANONICAL (state 1.1)

 Memory needed for MP2:                      0.52 MW

 SCS-MP2 correlation energy:           -1.903574712612   (PS=  1.200000  PT=  0.333333)
 SCS-MP2 total energy:              -1210.267832168757


  Reference energy                  -1208.364257456145
  MP2 singlet pair energy              -1.186988912416
  MP2 triplet pair energy              -0.770123599896
  MP2 correlation energy               -1.957112512312

 !MP2 total energy                  -1210.321369968457


 **********************************************************************************************************************************
 DATASETS  * FILE   NREC   LENGTH (MB)   RECORD NAMES
              1      21     3712.86       500      610      700      900      950      970     1000      129      960     1100   
                                          VAR    BASINP    GEOM    SYMINP    ZMAT    AOBASIS   BASIS     P2S    ABASIS      S 
                                         1400     1410     1200     1210     1080     1600     1650     1300     1700     1380   
                                           T        V       H0       H01     AOSYM     SMH    MOLCAS    ERIS     OPER     JKOP   
                                         7000   
                                        PAPT AO    

              2       6        8.09       700     1000      520     2100     2101     7000   
                                         GEOM     BASIS   MCVARS     RHF      RHF     PAPT   

 PROGRAMS   *        TOTAL       MP2      PAPT    HF-SCF    HF-SCF       INT
 CPU TIMES  *       596.44     33.76    416.86     13.80     82.01     49.90
 REAL TIME  *       616.68 SEC
 DISK USED  *        15.22 GB
 **********************************************************************************************************************************

 Dump information in style XML to xml output                                                                      

 Orbitals will not be exported.

 **********************************************************************************************************************************

 MP2/cc-pVTZ energy=  -1210.321369968457

             MP2            PAPT          HF-SCF          HF-SCF
  -1210.32136997  -1210.30984258  -1208.36425746  -1208.36425746
 **********************************************************************************************************************************
 Molpro calculation terminated
