
 Working directory              : /var/folders/2v/xbgp75_9785319ghcgb4zr4r0000gp/T//molpro.lDjmCN6DSL/
 Global scratch directory       : /var/folders/2v/xbgp75_9785319ghcgb4zr4r0000gp/T//molpro.lDjmCN6DSL/
 Wavefunction directory         : /Users/sacpjk/wfu/
 Main file repository           : /var/folders/2v/xbgp75_9785319ghcgb4zr4r0000gp/T//molpro.lDjmCN6DSL/

 id        : peterk

 Nodes                        nprocs
 Cardiff-University-G34YLXT77Y    1
 GA implementation: MPI file
 GA implementation (serial work in mppx): MPI file

 Using customized tuning parameters: mindgm=1; mindgv=20; mindgc=4; mindgr=1; noblas=0; minvec=7
 default implementation of scratch files=df  


 Variables initialized (1032), CPU time= 0.00 sec
 
 symmetry,nosym
 
 
 geometry={
 12
  o         -1.527646102080    0.457973387505   -0.213561759716
  h         -0.583413802253    0.434177050244   -0.417697389935
  c         -2.043576580853   -0.830031984284   -0.478901532009
  h         -3.101456196792   -0.815009593660   -0.230205217635
  h         -1.948121413855   -1.111415060290   -1.530351686713
  h         -1.566346919749   -1.605016966448    0.126350368364
  o          1.318908103188    0.359134027225   -0.506263782018
  h          1.787697413109    0.973518551157   -1.075929735942
  c          1.827742028774    0.516152965156    0.815453542362
  h          1.274172948765   -0.172043461456    1.445584422194
  h          2.886738130918    0.265714066399    0.872176682935
  h          1.675302390722    1.526847018505    1.193346087954
 }
 basis=aug-cc-pVDZ
 
 
 
 hf; mp3; counterpoise
 
 
 
 {put,xml;noorbitals,nobasis}
 Commands initialized (841), CPU time= 0.00 sec, 704 directives.
 Default parameters read. Elapsed time= 0.05 sec

 Checking input...
 Passed
1


                                         ***  PROGRAM SYSTEM MOLPRO  ***
                                       Copyright, TTI GmbH Stuttgart, 2015
                                    Version 2023.1 linked Tue Jun  6 09:54:11 2023


 **********************************************************************************************************************************
 LABEL *                                                                                                                                                                 
  64 bit serial version                                                                  DATE: 07-Jun-23          TIME: 08:01:47  
 **********************************************************************************************************************************

 SHA1:             8ebb0dd001088a5c915591db1a321413035db0b1
 **********************************************************************************************************************************

 Memory per process:       805 MW
 Total memory per node:   1074 MW
 Total GA space:           268 MW

 GA preallocation disabled
 GA check enabled

 Variable memory set to 805.3 MW

 ZSYMEL=NOSYM


 Geometry recognized as XYZ

 SETTING BASIS          =    AUG-CC-PVDZ


 Recomputing integrals since basis changed


 Using spherical harmonics

 Library entry O      S aug-cc-pVDZ          selected for orbital group  1
 Library entry O      P aug-cc-pVDZ          selected for orbital group  1
 Library entry O      D aug-cc-pVDZ          selected for orbital group  1
 Library entry H      S aug-cc-pVDZ          selected for orbital group  2
 Library entry H      P aug-cc-pVDZ          selected for orbital group  2
 Library entry C      S aug-cc-pVDZ          selected for orbital group  3
 Library entry C      P aug-cc-pVDZ          selected for orbital group  3
 Library entry C      D aug-cc-pVDZ          selected for orbital group  3


 PROGRAM * SEWARD (Integral evaluation for generally contracted gaussian basis sets)     Author: Roland Lindh, 1990

 Geometry written to block  1 of record 700


 Point group  C1  



 ATOMIC COORDINATES

 NR  ATOM    CHARGE       X              Y              Z

   1  O       8.00   -2.886832748    0.865444275   -0.403573237
   2  H       1.00   -1.102492304    0.820475715   -0.789333670
   3  C       6.00   -3.861800053   -1.568533125   -0.904992736
   4  H       1.00   -5.860902799   -1.540144921   -0.435024814
   5  H       1.00   -3.681415930   -2.100270075   -2.891945562
   6  H       1.00   -2.959966694   -3.033042492    0.238767592
   7  O       8.00    2.492375099    0.678664953   -0.956699895
   8  H       1.00    3.378258504    1.839683439   -2.033212530
   9  C       6.00    3.453931861    0.975387743    1.540983862
  10  H       1.00    2.407837909   -0.325115024    2.731758648
  11  H       1.00    5.455144461    0.502126813    1.648175063
  12  H       1.00    3.165862694    2.885322699    2.255097278

 Bond lengths in Bohr (Angstrom)

 1-2  1.826117221  1-3  2.669499717  3-4  2.053798318  3-5  2.064767335  3-6  2.065497223
     ( 0.966339618)     ( 1.412638415)     ( 1.086823266)     ( 1.092627820)     ( 1.093014060)

  7- 8  1.814285751   7- 9  2.692779228   9-10  2.050259640   9-11  2.059203179   9-12  2.059318662
       ( 0.960078674)       ( 1.424957402)       ( 1.084950678)       ( 1.089683395)       ( 1.089744506)

 Bond angles

  1-3-4  107.45243548   1-3-5  112.56023933   1-3-6  112.51984284   2-1-3  107.14181272

  4- 3- 5  107.98697641   4- 3- 6  107.94343214   5- 3- 6  108.18798931   7- 9-10  106.65583751

  7- 9-11  111.71494432   7- 9-12  111.95602746   8- 7- 9  107.78761844  10- 9-11  108.65333214

 10- 9-12  108.39236687  11- 9-12  109.33255661

 NUCLEAR CHARGE:                   36
 NUMBER OF PRIMITIVE AOS:         236
 NUMBER OF SYMMETRY AOS:          228
 NUMBER OF CONTRACTIONS:          164   (  164A   )
 NUMBER OF INNER CORE ORBITALS:     0   (    0A   )
 NUMBER OF OUTER CORE ORBITALS:     4   (    4A   )
 NUMBER OF VALENCE ORBITALS:       24   (   24A   )


 NUCLEAR REPULSION ENERGY  129.52156890


 Eigenvalues of metric

         1 0.445E-03 0.495E-03 0.558E-03 0.592E-03 0.690E-03 0.727E-03 0.759E-03 0.838E-03


 Contracted 2-electron integrals neglected if value below      1.0D-11
 AO integral compression algorithm  1   Integral accuracy      1.0D-11

     401.605 MB (compressed) written to integral file ( 48.6%)


 NUMBER OF SORTED TWO-ELECTRON INTEGRALS:   91537215.     BUFFER LENGTH:  32768
 NUMBER OF SEGMENTS:   6  SEGMENT LENGTH:   15999503      RECORD LENGTH: 524288

 Memory used in sort:      16.56 MW

 SORT1 READ   103329167. AND WROTE    88208056. INTEGRALS IN    254 RECORDS. CPU TIME:     0.74 SEC, REAL TIME:     1.04 SEC
 SORT2 READ    88208056. AND WROTE    91537215. INTEGRALS IN   1532 RECORDS. CPU TIME:     0.64 SEC, REAL TIME:     0.95 SEC

 FILE SIZES:   FILE 1:   432.8 MBYTE,  FILE 4:  1065.4 MBYTE,   TOTAL:   1498.2 MBYTE

 OPERATOR DM      FOR CENTER  0  COORDINATES:    0.000000    0.000000    0.000000


 **********************************************************************************************************************************
 DATASETS  * FILE   NREC   LENGTH (MB)   RECORD NAMES
              1      19      373.64       500      610      700      900      950      970     1000      129      960     1100   
                                          VAR    BASINP    GEOM    SYMINP    ZMAT    AOBASIS   BASIS     P2S    ABASIS      S 
                                         1400     1410     1200     1210     1080     1600     1650     1300     1700   
                                           T        V       H0       H01     AOSYM     SMH    MOLCAS    ERIS     OPER   

 PROGRAMS   *        TOTAL       INT
 CPU TIMES  *         3.68      3.60
 REAL TIME  *         5.15 SEC
 DISK USED  *         1.40 GB
 **********************************************************************************************************************************


 Program * Restricted Hartree-Fock

 Orbital guess generated from atomic densities. Full valence occupancy:   28

 Initial occupancy:  18

 NELEC=   36   SYM=1   MS2= 0   THRE=1.0D-08   THRD=3.2D-06   THRG=3.2D-06  HFMA2=F  DIIS_START=2   DIIS_MAX=10   DIIS_INCORE=F

 Level shifts:    0.00 (CLOSED)    0.00 (OPEN)    0.30 (GAP_MIN)

 ITER           ETOT              DE          GRAD        DDIFF     DIIS  NEXP   TIME(IT)  TIME(TOT)  DIAG
   1     -230.06550549    -230.06550549     0.00D+00     0.69D-01     0     0       0.40      0.77    start
   2     -230.11707641      -0.05157092     0.48D-02     0.80D-02     1     0       0.41      1.18    diag
   3     -230.12777461      -0.01069820     0.23D-02     0.25D-02     2     0       0.41      1.59    diag
   4     -230.12878976      -0.00101515     0.56D-03     0.85D-03     3     0       0.40      1.99    diag
   5     -230.12883693      -0.00004717     0.95D-04     0.19D-03     4     0       0.41      2.40    diag
   6     -230.12883914      -0.00000221     0.19D-04     0.44D-04     5     0       0.40      2.80    diag
   7     -230.12883926      -0.00000012     0.59D-05     0.96D-05     6     0       0.39      3.19    diag
   8     -230.12883928      -0.00000002     0.21D-05     0.37D-05     7     0       0.41      3.60    fixocc
   9     -230.12883928      -0.00000000     0.52D-06     0.98D-06     8     0       0.41      4.01    diag
  10     -230.12883928      -0.00000000     0.15D-06     0.25D-06     0     0       0.42      4.43    diag/orth

 Final occupancy:  18

 !RHF STATE 1.1 Energy               -230.128839283686
  RHF One-electron energy            -571.371211156041
  RHF Two-electron energy             211.720802971712
  RHF Kinetic energy                  229.817610799627
  RHF Nuclear energy                  129.521568900643
  RHF Virial quotient                  -1.001354241231

 !RHF STATE 1.1 Dipole moment           1.16111717    -0.03945763     0.01471564
 Dipole moment /Debye                   2.95126547    -0.10029129     0.03740343

 Orbital energies:

           1.1          2.1          3.1          4.1          5.1          6.1          7.1          8.1          9.1         10.1
    -20.592214   -20.538056   -11.291722   -11.259334    -1.385670    -1.335495    -0.944094    -0.906477    -0.717682    -0.674227

          11.1         12.1         13.1         14.1         15.1         16.1         17.1         18.1         19.1         20.1
     -0.635090    -0.610790    -0.598578    -0.572186    -0.526479    -0.485667    -0.466127    -0.424925     0.030535     0.047282


 HOMO     18.1    -0.424925 =     -11.5628eV
 LUMO     19.1     0.030535 =       0.8309eV
 LUMO-HOMO         0.455459 =      12.3937eV

 Orbitals saved in record  2100.2


 **********************************************************************************************************************************
 DATASETS  * FILE   NREC   LENGTH (MB)   RECORD NAMES
              1      19      373.64       500      610      700      900      950      970     1000      129      960     1100   
                                          VAR    BASINP    GEOM    SYMINP    ZMAT    AOBASIS   BASIS     P2S    ABASIS      S 
                                         1400     1410     1200     1210     1080     1600     1650     1300     1700   
                                           T        V       H0       H01     AOSYM     SMH    MOLCAS    ERIS     OPER   

              2       4        0.99       700     1000      520     2100   
                                         GEOM     BASIS   MCVARS     RHF  

 PROGRAMS   *        TOTAL    HF-SCF       INT
 CPU TIMES  *         8.11      4.43      3.60
 REAL TIME  *        11.08 SEC
 DISK USED  *         1.40 GB
 **********************************************************************************************************************************


 PROGRAM * MP3 (Closed-shell)     Authors: C. Hampel, H.-J. Werner, 1991, M. Deegan, P.J. Knowles, 1992


 Convergence thresholds:  THRVAR = 1.00D-08  THRDEN = 1.00D-06

 Number of core orbitals:           4 (   4 )
 Number of closed-shell orbitals:  14 (  14 )
 Number of external orbitals:     146 ( 146 )

 Molecular orbitals read from record     2100.2  Type=RHF/CANONICAL  

 Number of N-1 electron functions:              14
 Number of N-2 electron functions:             105
 Number of singly external CSFs:              2044
 Number of doubly external CSFs:           2089990
 Total number of CSFs:                     2092035

 Length of J-op  integral file:               0.00 MB
 Length of K-op  integral file:               1.91 MB

 Integral transformation finished. Total CPU:   0.91 sec, npass=  1  Memory used:   5.24 MW

 Reference energy:                   -230.12883928

                        CORR.ENERGY   TOTAL ENERGY   ENERGY CHANGE
 MP2:                   -0.72411868  -230.85295796    -0.72411868

 SCS-MP2 correlation energy:           -0.71809484   (PS=  1.200000  PT=  0.333333)
 SCS-MP2 total energy:               -230.84693412

 MP3(D):                -0.75956977  -230.88840906    -0.03545110



 RESULTS
 =======

  Reference energy                   -230.128839283687
  MP3 singlet pair energy              -0.515157398378
  MP3 triplet pair energy              -0.244412374745
  MP3 correlation energy               -0.759569773123

 !MP3 total energy                   -230.888409056810

 Timing summary (sec):

 STEP                 CPU(USER)    SYS     CPU(TOT)    WALL
 Transformation          0.96      0.08      1.04      1.47
 CCSD iterations        11.75      0.13     11.88      5.22

 Program statistics:

 Available memory in ccsd:               805305566
 Min. memory needed in ccsd:               5396407
 Max. memory used in ccsd:                 7260087
 Max. memory used in cckext:               5937584 ( 1 integral passes)



 **********************************************************************************************************************************
 DATASETS  * FILE   NREC   LENGTH (MB)   RECORD NAMES
              1      20      406.44       500      610      700      900      950      970     1000      129      960     1100   
                                          VAR    BASINP    GEOM    SYMINP    ZMAT    AOBASIS   BASIS     P2S    ABASIS      S 
                                         1400     1410     1200     1210     1080     1600     1650     1300     1700     1380   
                                           T        V       H0       H01     AOSYM     SMH    MOLCAS    ERIS     OPER     JKOP   

              2       4        0.99       700     1000      520     2100   
                                         GEOM     BASIS   MCVARS     RHF  

 PROGRAMS   *        TOTAL       MP3    HF-SCF       INT
 CPU TIMES  *        12.64      4.53      4.43      3.60
 REAL TIME  *        17.83 SEC
 DISK USED  *         1.40 GB
 **********************************************************************************************************************************

 Counterpoise: absolute minimum monomer separation=    -1.000 Bragg radius scale factor=     1.400 Number of monomers= 2

 Counterpoise  MP3  energy

 Running default procedure: HF-SCF000  MP3

 Assignment of unique atoms to monomers:
1-12     1     1     1     1     1     1     2     2     2     2     2     2

 *** Long output written to logfile /Users/sacpjk/current/PAPT/S66/c272a503/05.molpro/run/1.molpro/1.log ***


 Description                       ENERGY          ENERGR          ENERGC
 Raw                        -230.88840906   -230.12883928   -230.88840906
 Dimer basis, monomer 1     -115.43998035   -115.06142422   -115.43998035
 Dimer basis, monomer 2     -115.44054604   -115.06182904   -115.44054604
 Monomer basis, monomer 1   -115.43925311   -115.06123125   -115.43925311
 Monomer basis, monomer 2   -115.43939836   -115.06146609   -115.43939836
 Counterpoise correction       0.00187493      0.00055591      0.00187493
 Counterpoise corrected     -230.88653413   -230.12828337   -230.88653413


 **********************************************************************************************************************************
 DATASETS  * FILE   NREC   LENGTH (MB)   RECORD NAMES
              1      18       29.75       500      610      700      900      950      970     1000      129      960     1100   
                                          VAR    BASINP    GEOM    SYMINP    ZMAT    AOBASIS   BASIS     P2S    ABASIS      S 
                                         1400     1410     1200     1210     1080     1600     1650     1700   
                                           T        V       H0       H01     AOSYM     SMH    MOLCAS    OPER   

              2       9        2.80       700     1000      520     2100     2101      701     1001     2102      702   
                                         GEOM     BASIS   MCVARS     RHF      RHF     GEOM     BASIS     RHF     GEOM   

 PROGRAMS   *        TOTALCOUNTERPOI    HF-SCF       INT       MP3    HF-SCF       INT       MP3    HF-SCF       INT       MP3
 CPU TIMES  *        25.98      0.28      0.22      0.32      0.16      0.22      0.31      1.57      4.16      0.02      1.73
 REAL TIME  *        34.81 SEC
 DISK USED  *         1.40 GB
 **********************************************************************************************************************************

 Dump information in style XML to xml output                                                                      

 Orbitals will not be exported.

 **********************************************************************************************************************************

 MP3/aug-cc-pVDZ energy=   -230.886534128783

             MP3          HF-SCF             MP3          HF-SCF             MP3          HF-SCF             MP3          HF-SCF
   -115.43939836   -115.06146609   -115.43925311   -115.06123125   -115.44054604   -115.06182904   -115.43998035   -115.06142422
 **********************************************************************************************************************************
 Molpro calculation terminated
