
 Working directory              : /var/folders/2v/xbgp75_9785319ghcgb4zr4r0000gp/T//molpro.83kbxEwGUG/
 Global scratch directory       : /var/folders/2v/xbgp75_9785319ghcgb4zr4r0000gp/T//molpro.83kbxEwGUG/
 Wavefunction directory         : /Users/sacpjk/wfu/
 Main file repository           : /var/folders/2v/xbgp75_9785319ghcgb4zr4r0000gp/T//molpro.83kbxEwGUG/

 id        : peterk

 Nodes                        nprocs
 Cardiff-University-G34YLXT77Y    1
 GA implementation: MPI file
 GA implementation (serial work in mppx): MPI file

 Using customized tuning parameters: mindgm=1; mindgv=20; mindgc=4; mindgr=1; noblas=0; minvec=7
 default implementation of scratch files=df  


 Variables initialized (1032), CPU time= 0.00 sec
 
 symmetry,nosym
 
 
 geometry={
 3
  o         -0.173427461842   -0.355965673914    0.000000000000
  h         -0.596555870428    0.503630414469    0.000000000000
  h          0.769983332271   -0.147664740503    0.000000000000
 }
 basis=aug-cc-pVDZ
 
 
 
 hf; mp4
 
 
 
 {put,xml;noorbitals,nobasis}
 Commands initialized (841), CPU time= 0.01 sec, 704 directives.
 Default parameters read. Elapsed time= 0.07 sec

 Checking input...
 Passed
1


                                         ***  PROGRAM SYSTEM MOLPRO  ***
                                       Copyright, TTI GmbH Stuttgart, 2015
                                    Version 2023.1 linked Tue Jun  6 09:54:11 2023


 **********************************************************************************************************************************
 LABEL *                                                                                                                                                                 
  64 bit serial version                                                                  DATE: 08-Jun-23          TIME: 21:50:53  
 **********************************************************************************************************************************

 SHA1:             8ebb0dd001088a5c915591db1a321413035db0b1
 **********************************************************************************************************************************

 Memory per process:       805 MW
 Total memory per node:   1074 MW
 Total GA space:           268 MW

 GA preallocation disabled
 GA check enabled

 Variable memory set to 805.3 MW

 ZSYMEL=NOSYM


 Geometry recognized as XYZ

 SETTING BASIS          =    AUG-CC-PVDZ


 Recomputing integrals since basis changed


 Using spherical harmonics

 Library entry O      S aug-cc-pVDZ          selected for orbital group  1
 Library entry O      P aug-cc-pVDZ          selected for orbital group  1
 Library entry O      D aug-cc-pVDZ          selected for orbital group  1
 Library entry H      S aug-cc-pVDZ          selected for orbital group  2
 Library entry H      P aug-cc-pVDZ          selected for orbital group  2


 PROGRAM * SEWARD (Integral evaluation for generally contracted gaussian basis sets)     Author: Roland Lindh, 1990

 Geometry written to block  1 of record 700


 Point group  C1  



 ATOMIC COORDINATES

 NR  ATOM    CHARGE       X              Y              Z

   1  O       8.00   -0.327730405   -0.672677633    0.000000000
   2  H       1.00   -1.127327213    0.951723551    0.000000000
   3  H       1.00    1.455057619   -0.279045918    0.000000000

 Bond lengths in Bohr (Angstrom)

 1-2  1.810534248  1-3  1.825726996
     ( 0.958093464)     ( 0.966133120)

 Bond angles

  2-1-3  103.75741037

 NUCLEAR CHARGE:                   10
 NUMBER OF PRIMITIVE AOS:          59
 NUMBER OF SYMMETRY AOS:           57
 NUMBER OF CONTRACTIONS:           41   (   41A   )
 NUMBER OF INNER CORE ORBITALS:     0   (    0A   )
 NUMBER OF OUTER CORE ORBITALS:     1   (    1A   )
 NUMBER OF VALENCE ORBITALS:        6   (    6A   )


 NUCLEAR REPULSION ENERGY    9.14996834

 EXTRA SYMMETRY OF AOS IN SYMMETRY 1:   1 1 1 1 1 1 2 1 1 2   1 1 2 1 1 2 1 2 1 1   2 1 2 1 1 1 1 1 2 1   1 2 1 1 1 1 1 2 1 1
                                        2

 Eigenvalues of metric

         1 0.295E-02 0.300E-02 0.113E-01 0.163E-01 0.250E-01 0.353E-01 0.761E-01 0.913E-01


 Contracted 2-electron integrals neglected if value below      1.0D-11
 AO integral compression algorithm  1   Integral accuracy      1.0D-11

     1.573 MB (compressed) written to integral file ( 36.8%)


 NUMBER OF SORTED TWO-ELECTRON INTEGRALS:     371091.     BUFFER LENGTH:  32768
 NUMBER OF SEGMENTS:   1  SEGMENT LENGTH:     371091      RECORD LENGTH: 524288

 Memory used in sort:       0.93 MW

 SORT1 READ      525861. AND WROTE      180029. INTEGRALS IN      1 RECORDS. CPU TIME:     0.00 SEC, REAL TIME:     0.00 SEC
 SORT2 READ      180029. AND WROTE      371091. INTEGRALS IN      6 RECORDS. CPU TIME:     0.02 SEC, REAL TIME:     0.02 SEC

 FILE SIZES:   FILE 1:    31.6 MBYTE,  FILE 4:     4.3 MBYTE,   TOTAL:     35.9 MBYTE

 OPERATOR DM      FOR CENTER  0  COORDINATES:    0.000000    0.000000    0.000000


 **********************************************************************************************************************************
 DATASETS  * FILE   NREC   LENGTH (MB)   RECORD NAMES
              1      19       29.66       500      610      700      900      950      970     1000      129      960     1100   
                                          VAR    BASINP    GEOM    SYMINP    ZMAT    AOBASIS   BASIS     P2S    ABASIS      S 
                                         1400     1410     1200     1210     1080     1600     1650     1300     1700   
                                           T        V       H0       H01     AOSYM     SMH    MOLCAS    ERIS     OPER   

 PROGRAMS   *        TOTAL       INT
 CPU TIMES  *         0.22      0.12
 REAL TIME  *         0.63 SEC
 DISK USED  *        34.59 MB
 **********************************************************************************************************************************


 Program * Restricted Hartree-Fock

 Orbital guess generated from atomic densities. Full valence occupancy:    7

 Initial occupancy:   5

 NELEC=   10   SYM=1   MS2= 0   THRE=1.0D-08   THRD=3.2D-06   THRG=3.2D-06  HFMA2=F  DIIS_START=2   DIIS_MAX=10   DIIS_INCORE=F

 Level shifts:    0.00 (CLOSED)    0.00 (OPEN)    0.30 (GAP_MIN)

 ITER           ETOT              DE          GRAD        DDIFF     DIIS  NEXP   TIME(IT)  TIME(TOT)  DIAG
   1      -76.00397231     -76.00397231     0.00D+00     0.15D+00     0     0       0.00      0.00    start
   2      -76.03048665      -0.02651434     0.15D-01     0.26D-01     1     0       0.01      0.01    diag
   3      -76.04082744      -0.01034078     0.92D-02     0.92D-02     2     0       0.00      0.01    diag
   4      -76.04101300      -0.00018556     0.92D-03     0.14D-02     3     0       0.00      0.01    diag
   5      -76.04102866      -0.00001566     0.23D-03     0.40D-03     4     0       0.00      0.01    diag
   6      -76.04102942      -0.00000076     0.40D-04     0.79D-04     5     0       0.01      0.02    diag
   7      -76.04102945      -0.00000003     0.73D-05     0.18D-04     6     0       0.00      0.02    diag
   8      -76.04102945      -0.00000000     0.13D-05     0.30D-05     7     0       0.00      0.02    fixocc
   9      -76.04102945      -0.00000000     0.15D-06     0.21D-06     0     0       0.00      0.02    diag

 Final occupancy:   5

 !RHF STATE 1.1 Energy                -76.041029446562
  RHF One-electron energy            -122.894576086867
  RHF Two-electron energy              37.703578300893
  RHF Kinetic energy                   75.909262948202
  RHF Nuclear energy                    9.149968339412
  RHF Virial quotient                  -1.001735842152

 !RHF STATE 1.1 Dipole moment           0.34583647     0.71327872    -0.00000000
 Dipole moment /Debye                   0.87902864     1.81297368    -0.00000000

 Orbital energies:

           1.1          2.1          3.1          4.1          5.1          6.1          7.1
    -20.578419    -1.354684    -0.715152    -0.586194    -0.509258     0.035289     0.057970


 HOMO      5.1    -0.509258 =     -13.8576eV
 LUMO      6.1     0.035289 =       0.9603eV
 LUMO-HOMO         0.544547 =      14.8179eV

 Orbitals saved in record  2100.2


 **********************************************************************************************************************************
 DATASETS  * FILE   NREC   LENGTH (MB)   RECORD NAMES
              1      19       29.66       500      610      700      900      950      970     1000      129      960     1100   
                                          VAR    BASINP    GEOM    SYMINP    ZMAT    AOBASIS   BASIS     P2S    ABASIS      S 
                                         1400     1410     1200     1210     1080     1600     1650     1300     1700   
                                           T        V       H0       H01     AOSYM     SMH    MOLCAS    ERIS     OPER   

              2       4        0.44       700     1000      520     2100   
                                         GEOM     BASIS   MCVARS     RHF  

 PROGRAMS   *        TOTAL    HF-SCF       INT
 CPU TIMES  *         0.24      0.02      0.12
 REAL TIME  *         0.76 SEC
 DISK USED  *        34.59 MB
 **********************************************************************************************************************************


 PROGRAM * MP4 (Closed-shell)     Authors: C. Hampel, H.-J. Werner, 1991, M. Deegan, P.J. Knowles, 1992


 Convergence thresholds:  THRVAR = 1.00D-08  THRDEN = 1.00D-06

 MP4(T)     terms to be evaluated (factor= 0.000)


 Number of core orbitals:           1 (   1 )
 Number of closed-shell orbitals:   4 (   4 )
 Number of external orbitals:      36 (  36 )

 Molecular orbitals read from record     2100.2  Type=RHF/CANONICAL  

 Number of N-1 electron functions:               4
 Number of N-2 electron functions:              10
 Number of singly external CSFs:               144
 Number of doubly external CSFs:             10440
 Total number of CSFs:                       10585

 Length of J-op  integral file:               0.00 MB
 Length of K-op  integral file:               0.18 MB

 Memory could be reduced to 0.40 Mwords without degradation in triples

 Integral transformation finished. Total CPU:   0.01 sec, npass=  1  Memory used:   0.29 MW

 Reference energy:                    -76.04102945

                        CORR.ENERGY   TOTAL ENERGY   ENERGY CHANGE
 MP2:                   -0.21981888   -76.26084833    -0.21981888

 SCS-MP2 correlation energy:           -0.21531082   (PS=  1.200000  PT=  0.333333)
 SCS-MP2 total energy:                -76.25634027

 MP3(D):                -0.22449261   -76.26552205    -0.00467373
 MP4(DQ):               -0.22600817   -76.26703762    -0.00151556
 MP4(SDQ):              -0.22775651   -76.26878596    -0.00174834

 Norm of t1 vector:      0.04087097      S-energy:    -0.00174834      T1 diagnostic:  0.01021774


 Total CPU time for triples:      0.02 sec


 RESULTS
 =======

  Reference energy                    -76.041029446562
  MP4(SDQ) singlet pair energy         -0.148144427009
  MP4(SDQ) triplet pair energy         -0.077863743626
  MP4(SDQ) correlation energy          -0.227756508781

  Triples contribution                 -0.005647313514
  Total correlation energy             -0.233403822294

  MP4(SDQ) total energy               -76.268785955343
 !MP4(SDTQ) total energy              -76.274433268856

 Timing summary (sec):

 STEP                 CPU(USER)    SYS     CPU(TOT)    WALL
 Transformation          0.01      0.00      0.01      0.03
 CCSD iterations         0.37      0.00      0.37      0.09
 Triples                 0.02      0.00      0.02      0.02

 Program statistics:

 Available memory in ccsd:               805306299
 Min. memory needed in ccsd:                 53614
 Max. memory used in ccsd:                   59994
 Max. memory used in cckext:                 75348 ( 1 integral passes)



 **********************************************************************************************************************************
 DATASETS  * FILE   NREC   LENGTH (MB)   RECORD NAMES
              1      20       30.61       500      610      700      900      950      970     1000      129      960     1100   
                                          VAR    BASINP    GEOM    SYMINP    ZMAT    AOBASIS   BASIS     P2S    ABASIS      S 
                                         1400     1410     1200     1210     1080     1600     1650     1300     1700     1380   
                                           T        V       H0       H01     AOSYM     SMH    MOLCAS    ERIS     OPER     JKOP   

              2       4        0.44       700     1000      520     2100   
                                         GEOM     BASIS   MCVARS     RHF  

 PROGRAMS   *        TOTAL       MP4    HF-SCF       INT
 CPU TIMES  *         0.31      0.06      0.02      0.12
 REAL TIME  *         0.93 SEC
 DISK USED  *        34.59 MB
 **********************************************************************************************************************************

 Dump information in style XML to xml output                                                                      

 Orbitals will not be exported.

 **********************************************************************************************************************************

 MP4/aug-cc-pVDZ energy=    -76.274433268856

             MP4          HF-SCF
    -76.27443327    -76.04102945
 **********************************************************************************************************************************
 Molpro calculation terminated
