
 Working directory              : /var/folders/2v/xbgp75_9785319ghcgb4zr4r0000gp/T//molpro.FqPQB0E2gf/
 Global scratch directory       : /var/folders/2v/xbgp75_9785319ghcgb4zr4r0000gp/T//molpro.FqPQB0E2gf/
 Wavefunction directory         : /Users/sacpjk/wfu/
 Main file repository           : /var/folders/2v/xbgp75_9785319ghcgb4zr4r0000gp/T//molpro.FqPQB0E2gf/

 id        : peterk

 Nodes                        nprocs
 Cardiff-University-G34YLXT77Y    1
 GA implementation: MPI file
 GA implementation (serial work in mppx): MPI file

 Using customized tuning parameters: mindgm=1; mindgv=20; mindgc=4; mindgr=1; noblas=0; minvec=7
 default implementation of scratch files=df  


 Variables initialized (1032), CPU time= 0.01 sec
 
 symmetry,nosym
 
 
 geometry={
 6
  o         -0.476185399392   -0.219086500579   -0.963658318301
  h         -0.007396089470    0.395298023300   -1.533324272224
  c          0.032648526195   -0.062067562648    0.358059006132
  h         -0.520920553815   -0.750263989314    0.988189885964
  h          1.091644628339   -0.312506461406    0.414782146705
  h         -0.119791111857    0.948626490648    0.735951551724
 }
 basis=aug-cc-pVTZ
 
 
 
 hf; ccsd; counterpoise
 
 
 
 {put,xml;noorbitals,nobasis}
 Commands initialized (841), CPU time= 0.00 sec, 704 directives.
 Default parameters read. Elapsed time= 0.80 sec

 Checking input...
 Passed
1


                                         ***  PROGRAM SYSTEM MOLPRO  ***
                                       Copyright, TTI GmbH Stuttgart, 2015
                                    Version 2023.1 linked Tue Jun  6 09:54:11 2023


 **********************************************************************************************************************************
 LABEL *                                                                                                                                                                 
  64 bit serial version                                                                  DATE: 08-Jun-23          TIME: 14:52:08  
 **********************************************************************************************************************************

 SHA1:             8ebb0dd001088a5c915591db1a321413035db0b1
 **********************************************************************************************************************************

 Memory per process:       805 MW
 Total memory per node:   1074 MW
 Total GA space:           268 MW

 GA preallocation disabled
 GA check enabled

 Variable memory set to 805.3 MW

 ZSYMEL=NOSYM


 Geometry recognized as XYZ

 SETTING BASIS          =    AUG-CC-PVTZ


 Recomputing integrals since basis changed


 Using spherical harmonics

 Library entry O      S aug-cc-pVTZ          selected for orbital group  1
 Library entry O      P aug-cc-pVTZ          selected for orbital group  1
 Library entry O      D aug-cc-pVTZ          selected for orbital group  1
 Library entry O      F aug-cc-pVTZ          selected for orbital group  1
 Library entry H      S aug-cc-pVTZ          selected for orbital group  2
 Library entry H      P aug-cc-pVTZ          selected for orbital group  2
 Library entry H      D aug-cc-pVTZ          selected for orbital group  2
 Library entry C      S aug-cc-pVTZ          selected for orbital group  3
 Library entry C      P aug-cc-pVTZ          selected for orbital group  3
 Library entry C      D aug-cc-pVTZ          selected for orbital group  3
 Library entry C      F aug-cc-pVTZ          selected for orbital group  3


 PROGRAM * SEWARD (Integral evaluation for generally contracted gaussian basis sets)     Author: Roland Lindh, 1990

 Geometry written to block  1 of record 700


 Point group  C1  



 ATOMIC COORDINATES

 NR  ATOM    CHARGE       X              Y              Z

   1  O       8.00   -0.899859989   -0.414013484   -1.821050299
   2  H       1.00   -0.013976583    0.747005002   -2.897562935
   3  C       6.00    0.061696773   -0.117290695    0.676633458
   4  H       1.00   -0.984397179   -1.417793461    1.867408244
   5  H       1.00    2.062909373   -0.590551624    0.783824659
   6  H       1.00   -0.226372394    1.792644262    1.390746874

 Bond lengths in Bohr (Angstrom)

 1-2  1.814285751  1-3  2.692779228  3-4  2.050259640  3-5  2.059203179  3-6  2.059318662
     ( 0.960078674)     ( 1.424957402)     ( 1.084950678)     ( 1.089683395)     ( 1.089744506)

 Bond angles

  1-3-4  106.65583751   1-3-5  111.71494432   1-3-6  111.95602746   2-1-3  107.78761844

  4-3-5  108.65333214   4-3-6  108.39236687   5-3-6  109.33255661

 NUCLEAR CHARGE:                   18
 NUMBER OF PRIMITIVE AOS:         242
 NUMBER OF SYMMETRY AOS:          216
 NUMBER OF CONTRACTIONS:          184   (  184A   )
 NUMBER OF INNER CORE ORBITALS:     0   (    0A   )
 NUMBER OF OUTER CORE ORBITALS:     2   (    2A   )
 NUMBER OF VALENCE ORBITALS:       12   (   12A   )


 NUCLEAR REPULSION ENERGY   40.29806389

 Eigenvalues of metric

         1 0.603E-04 0.735E-04 0.881E-04 0.204E-03 0.412E-03 0.488E-03 0.756E-03 0.773E-03


 Contracted 2-electron integrals neglected if value below      1.0D-11
 AO integral compression algorithm  1   Integral accuracy      1.0D-11

     721.420 MB (compressed) written to integral file ( 53.0%)


 NUMBER OF SORTED TWO-ELECTRON INTEGRALS:  144848710.     BUFFER LENGTH:  32768
 NUMBER OF SEGMENTS:  10  SEGMENT LENGTH:   15999503      RECORD LENGTH: 524288

 Memory used in sort:      16.56 MW

 SORT1 READ   170053774. AND WROTE   143623428. INTEGRALS IN    414 RECORDS. CPU TIME:     1.06 SEC, REAL TIME:     1.86 SEC
 SORT2 READ   143623428. AND WROTE   144848710. INTEGRALS IN   2752 RECORDS. CPU TIME:     0.83 SEC, REAL TIME:     1.31 SEC

 FILE SIZES:   FILE 1:   752.8 MBYTE,  FILE 4:  1736.5 MBYTE,   TOTAL:   2489.3 MBYTE

 OPERATOR DM      FOR CENTER  0  COORDINATES:    0.000000    0.000000    0.000000


 **********************************************************************************************************************************
 DATASETS  * FILE   NREC   LENGTH (MB)   RECORD NAMES
              1      19      630.63       500      610      700      900      950      970     1000      129      960     1100   
                                          VAR    BASINP    GEOM    SYMINP    ZMAT    AOBASIS   BASIS     P2S    ABASIS      S 
                                         1400     1410     1200     1210     1080     1600     1650     1300     1700   
                                           T        V       H0       H01     AOSYM     SMH    MOLCAS    ERIS     OPER   

 PROGRAMS   *        TOTAL       INT
 CPU TIMES  *         5.15      5.05
 REAL TIME  *        11.84 SEC
 DISK USED  *         2.32 GB
 **********************************************************************************************************************************


 Program * Restricted Hartree-Fock

 Orbital guess generated from atomic densities. Full valence occupancy:   14

 Initial occupancy:   9

 NELEC=   18   SYM=1   MS2= 0   THRE=1.0D-08   THRD=3.2D-06   THRG=3.2D-06  HFMA2=F  DIIS_START=2   DIIS_MAX=10   DIIS_INCORE=F

 Level shifts:    0.00 (CLOSED)    0.00 (OPEN)    0.30 (GAP_MIN)

 ITER           ETOT              DE          GRAD        DDIFF     DIIS  NEXP   TIME(IT)  TIME(TOT)  DIAG
   1     -115.05609753    -115.05609753     0.00D+00     0.46D-01     0     0       0.58      1.12    start
   2     -115.08415046      -0.02805292     0.49D-02     0.53D-02     1     0       0.64      1.76    diag
   3     -115.09148972      -0.00733927     0.27D-02     0.17D-02     2     0       0.57      2.33    diag
   4     -115.09201797      -0.00052825     0.53D-03     0.44D-03     3     0       0.63      2.96    diag
   5     -115.09205053      -0.00003256     0.10D-03     0.99D-04     4     0       0.57      3.53    diag
   6     -115.09205203      -0.00000150     0.19D-04     0.26D-04     5     0       0.60      4.13    diag
   7     -115.09205210      -0.00000007     0.41D-05     0.57D-05     6     0       0.67      4.80    diag
   8     -115.09205210      -0.00000000     0.11D-05     0.15D-05     7     0       0.59      5.39    fixocc
   9     -115.09205210      -0.00000000     0.33D-06     0.36D-06     0     0       0.67      6.06    diag

 Final occupancy:   9

 !RHF STATE 1.1 Energy               -115.092052100446
  RHF One-electron energy            -236.831882356266
  RHF Two-electron energy              81.441766367960
  RHF Kinetic energy                  114.924546052672
  RHF Nuclear energy                   40.298063887860
  RHF Virial quotient                  -1.001457530645

 !RHF STATE 1.1 Dipole moment           0.51155684     0.45046811     0.21997382
 Dipole moment /Debye                   1.30024779     1.14497572     0.55911767

 Orbital energies:

           1.1          2.1          3.1          4.1          5.1          6.1          7.1          8.1          9.1         10.1
    -20.558990   -11.270621    -1.356245    -0.926808    -0.690313    -0.621039    -0.592340    -0.505218    -0.452562     0.028492

          11.1
      0.042992


 HOMO      9.1    -0.452562 =     -12.3148eV
 LUMO     10.1     0.028492 =       0.7753eV
 LUMO-HOMO         0.481054 =      13.0901eV

 Orbitals saved in record  2100.2


 **********************************************************************************************************************************
 DATASETS  * FILE   NREC   LENGTH (MB)   RECORD NAMES
              1      19      630.63       500      610      700      900      950      970     1000      129      960     1100   
                                          VAR    BASINP    GEOM    SYMINP    ZMAT    AOBASIS   BASIS     P2S    ABASIS      S 
                                         1400     1410     1200     1210     1080     1600     1650     1300     1700   
                                           T        V       H0       H01     AOSYM     SMH    MOLCAS    ERIS     OPER   

              2       4        1.00       700     1000      520     2100   
                                         GEOM     BASIS   MCVARS     RHF  

 PROGRAMS   *        TOTAL    HF-SCF       INT
 CPU TIMES  *        11.21      6.06      5.05
 REAL TIME  *        21.51 SEC
 DISK USED  *         2.32 GB
 **********************************************************************************************************************************


 PROGRAM * CCSD (Closed-shell coupled cluster)     Authors: C. Hampel, H.-J. Werner, 1991, M. Deegan, P.J. Knowles, 1992


 Convergence thresholds:  THRVAR = 1.00D-08  THRDEN = 1.00D-06

 Number of core orbitals:           2 (   2 )
 Number of closed-shell orbitals:   7 (   7 )
 Number of external orbitals:     175 ( 175 )

 Molecular orbitals read from record     2100.2  Type=RHF/CANONICAL  

 Number of N-1 electron functions:               7
 Number of N-2 electron functions:              28
 Number of singly external CSFs:              1225
 Number of doubly external CSFs:            750925
 Total number of CSFs:                      752151

 Length of J-op  integral file:               0.00 MB
 Length of K-op  integral file:               2.39 MB
 Length of 3-ext integral record:             0.00 MB

 Integral transformation finished. Total CPU:   2.19 sec, npass=  1  Memory used:  27.38 MW

 Reference energy:                   -115.09205210

 MP2 singlet pair energy:              -0.28688233
 MP2 triplet pair energy:              -0.15006308
 MP2 correlation energy:               -0.43694541
 MP2 total energy:                   -115.52899751

 SCS-MP2 correlation energy:           -0.43763138   (PS=  1.200000  PT=  0.333333)
 SCS-MP2 total energy:               -115.52968348

 ITER.      SQ.NORM     CORR.ENERGY   TOTAL ENERGY   ENERGY CHANGE        DEN1      VAR(S)    VAR(P)  DIIS     TIME  TIME/IT
   1      1.12032947    -0.45326297  -115.54531507    -0.01631756    -0.00551625  0.16D-02  0.19D-02  1  1    15.27     2.16
   2      1.12859772    -0.45434678  -115.54639888    -0.00108382    -0.00966837  0.20D-04  0.25D-03  2  2    17.16     2.45
   3      1.13146284    -0.45443502  -115.54648712    -0.00008823    -0.00185424  0.16D-04  0.11D-04  3  3    19.02     2.54
   4      1.13223933    -0.45442000  -115.54647210     0.00001502    -0.00036752  0.93D-06  0.12D-05  4  4    20.93     2.58
   5      1.13240968    -0.45442141  -115.54647351    -0.00000141    -0.00005354  0.24D-06  0.10D-06  5  5    22.49     2.58
   6      1.13245689    -0.45441756  -115.54646966     0.00000384    -0.00000998  0.37D-07  0.98D-08  6  6    24.33     2.51
   7      1.13246732    -0.45441661  -115.54646871     0.00000095    -0.00000152  0.50D-08  0.21D-08  6  2    26.27     2.59
   8      1.13246993    -0.45441652  -115.54646862     0.00000009    -0.00000000  0.81D-09  0.27D-09  6  1    28.12     2.58

 Norm of t1 vector:      0.05255867      S-energy:    -0.00000017      T1 diagnostic:  0.00993265
                                                                       D1 diagnostic:  0.02322178
                                                                       D2 diagnostic:  0.13838225 (internal)


 RESULTS
 =======

  Reference energy                   -115.092052100446
  CCSD singlet pair energy             -0.318261854885
  CCSD triplet pair energy             -0.136154497406
  CCSD correlation energy              -0.454416522396

 !CCSD total energy                  -115.546468622842

 Timing summary (sec):

 STEP                 CPU(USER)    SYS     CPU(TOT)    WALL
 Transformation          2.22      0.29      2.51      4.13
 CCSD iterations        25.93      1.25     27.18     21.67

 Program statistics:

 Available memory in ccsd:               805306163
 Min. memory needed in ccsd:               2385617
 Max. memory used in ccsd:                 3007350
 Max. memory used in cckext:               2165242 ( 8 integral passes)



 **********************************************************************************************************************************
 DATASETS  * FILE   NREC   LENGTH (MB)   RECORD NAMES
              1      20      785.94       500      610      700      900      950      970     1000      129      960     1100   
                                          VAR    BASINP    GEOM    SYMINP    ZMAT    AOBASIS   BASIS     P2S    ABASIS      S 
                                         1400     1410     1200     1210     1080     1600     1650     1300     1700     1380   
                                           T        V       H0       H01     AOSYM     SMH    MOLCAS    ERIS     OPER     JKOP   

              2       4        1.00       700     1000      520     2100   
                                         GEOM     BASIS   MCVARS     RHF  

 PROGRAMS   *        TOTAL      CCSD    HF-SCF       INT
 CPU TIMES  *        28.04     16.83      6.06      5.05
 REAL TIME  *        47.55 SEC
 DISK USED  *         2.32 GB
 **********************************************************************************************************************************

 Counterpoise: absolute minimum monomer separation=    -1.000 Bragg radius scale factor=     1.400 Number of monomers= 1
 Counterpoise skipped because only a single monomer


 **********************************************************************************************************************************
 DATASETS  * FILE   NREC   LENGTH (MB)   RECORD NAMES
              1      20      785.94       500      610      700      900      950      970     1000      129      960     1100   
                                          VAR    BASINP    GEOM    SYMINP    ZMAT    AOBASIS   BASIS     P2S    ABASIS      S 
                                         1400     1410     1200     1210     1080     1600     1650     1300     1700     1380   
                                           T        V       H0       H01     AOSYM     SMH    MOLCAS    ERIS     OPER     JKOP   

              2       4        1.00       700     1000      520     2100   
                                         GEOM     BASIS   MCVARS     RHF  

 PROGRAMS   *        TOTALCOUNTERPOI      CCSD    HF-SCF       INT
 CPU TIMES  *        28.04      0.00     16.83      6.06      5.05
 REAL TIME  *        47.60 SEC
 DISK USED  *         2.32 GB
 **********************************************************************************************************************************

 Dump information in style XML to xml output                                                                      

 Orbitals will not be exported.

 **********************************************************************************************************************************

 CCSD/aug-cc-pVTZ energy=   -115.546468622842

            CCSD          HF-SCF
   -115.54646862   -115.09205210
 **********************************************************************************************************************************
 Molpro calculation terminated
