
 Working directory              : /var/folders/2v/xbgp75_9785319ghcgb4zr4r0000gp/T//molpro.AgWlT4O5ba/
 Global scratch directory       : /var/folders/2v/xbgp75_9785319ghcgb4zr4r0000gp/T//molpro.AgWlT4O5ba/
 Wavefunction directory         : /Users/sacpjk/wfu/
 Main file repository           : /var/folders/2v/xbgp75_9785319ghcgb4zr4r0000gp/T//molpro.AgWlT4O5ba/

 id        : peterk

 Nodes                        nprocs
 Cardiff-University-G34YLXT77Y    1
 GA implementation: MPI file
 GA implementation (serial work in mppx): MPI file

 Using customized tuning parameters: mindgm=1; mindgv=20; mindgc=4; mindgr=1; noblas=0; minvec=7
 default implementation of scratch files=df  


 Variables initialized (1032), CPU time= 0.00 sec
 
 symmetry,nosym
 
 
 geometry={
 10
  o         -2.474977885023   -0.777821024971   -0.005565261659
  h         -2.833634533356    0.109861510214    0.026767055465
  h         -1.513470470091   -0.640226043838    0.010562948544
  n          0.446463179935   -0.562894099028    0.019913891533
  h          0.741827610981   -1.115532074206   -0.774876971585
  h          0.756543674654   -1.073615189747    0.836773384817
  c          1.105798456743    0.745469866173   -0.020327746347
  h          0.795256034737    1.327194826067    0.844187673487
  h          2.197107746783    0.706174894111   -0.029283415627
  h          0.779086184635    1.281387335225   -0.908151558628
 }
 basis=aug-cc-pVTZ
 
 
 
 hf; hf; counterpoise
 
 
 
 {put,xml;noorbitals,nobasis}
 Commands initialized (841), CPU time= 0.01 sec, 704 directives.
 Default parameters read. Elapsed time= 0.05 sec

 Checking input...
 Passed
1


                                         ***  PROGRAM SYSTEM MOLPRO  ***
                                       Copyright, TTI GmbH Stuttgart, 2015
                                    Version 2023.1 linked Tue Jun  6 09:54:11 2023


 **********************************************************************************************************************************
 LABEL *                                                                                                                                                                 
  64 bit serial version                                                                  DATE: 07-Jun-23          TIME: 07:16:49  
 **********************************************************************************************************************************

 SHA1:             8ebb0dd001088a5c915591db1a321413035db0b1
 **********************************************************************************************************************************

 Memory per process:       805 MW
 Total memory per node:   1074 MW
 Total GA space:           268 MW

 GA preallocation disabled
 GA check enabled

 Variable memory set to 805.3 MW

 ZSYMEL=NOSYM


 Geometry recognized as XYZ

 SETTING BASIS          =    AUG-CC-PVTZ


 Recomputing integrals since basis changed


 Using spherical harmonics

 Library entry O      S aug-cc-pVTZ          selected for orbital group  1
 Library entry O      P aug-cc-pVTZ          selected for orbital group  1
 Library entry O      D aug-cc-pVTZ          selected for orbital group  1
 Library entry O      F aug-cc-pVTZ          selected for orbital group  1
 Library entry H      S aug-cc-pVTZ          selected for orbital group  2
 Library entry H      P aug-cc-pVTZ          selected for orbital group  2
 Library entry H      D aug-cc-pVTZ          selected for orbital group  2
 Library entry N      S aug-cc-pVTZ          selected for orbital group  3
 Library entry N      P aug-cc-pVTZ          selected for orbital group  3
 Library entry N      D aug-cc-pVTZ          selected for orbital group  3
 Library entry N      F aug-cc-pVTZ          selected for orbital group  3
 Library entry C      S aug-cc-pVTZ          selected for orbital group  5
 Library entry C      P aug-cc-pVTZ          selected for orbital group  5
 Library entry C      D aug-cc-pVTZ          selected for orbital group  5
 Library entry C      F aug-cc-pVTZ          selected for orbital group  5


 PROGRAM * SEWARD (Integral evaluation for generally contracted gaussian basis sets)     Author: Roland Lindh, 1990

 Geometry written to block  1 of record 700


 Point group  C1  



 ATOMIC COORDINATES

 NR  ATOM    CHARGE       X              Y              Z

   1  O       8.00   -4.677030367   -1.469868711   -0.010516820
   2  H       1.00   -5.354793205    0.207608166    0.050582404
   3  H       1.00   -2.860044686   -1.209851881    0.019961080
   4  N       7.00    0.843693135   -1.063715684    0.037631801
   5  H       1.00    1.401851016   -2.108050103   -1.464305257
   6  H       1.00    1.429660346   -2.028838672    1.581272526
   7  C       6.00    2.089656232    1.408733881   -0.038413873
   8  H       1.00    1.502816105    2.508034735    1.595283501
   9  H       1.00    4.151931908    1.334477146   -0.055337636
  10  H       1.00    1.472259516    2.421471123   -1.716157725

 Bond lengths in Bohr (Angstrom)

 1-2  1.810255301  1-3  1.835749062  4-5  1.912587129  4-6  1.912497488  4-7  2.769695622
     ( 0.957945851)     ( 0.971436569)     ( 1.012097522)     ( 1.012050086)     ( 1.465659804)

  7- 8  2.054704556   7- 9  2.063681525   7-10  2.054662955
       ( 1.087302826)       ( 1.092053234)       ( 1.087280812)

 Bond angles

  2- 1- 3  103.81354080   4- 7- 8  109.10407841   4- 7- 9  114.68652182   4- 7-10  109.10154196

  5-4-6  105.59704104   5-4-7  109.54744641   6-4-7  109.56111075   8-7-9  108.13067151

  8- 7-10  107.44041838   9- 7-10  108.13881680

 NUCLEAR CHARGE:                   28
 NUMBER OF PRIMITIVE AOS:         390
 NUMBER OF SYMMETRY AOS:          349
 NUMBER OF CONTRACTIONS:          299   (  299A   )
 NUMBER OF INNER CORE ORBITALS:     0   (    0A   )
 NUMBER OF OUTER CORE ORBITALS:     3   (    3A   )
 NUMBER OF VALENCE ORBITALS:       19   (   19A   )


 NUCLEAR REPULSION ENERGY   79.77996038


 Eigenvalues of metric

         1 0.327E-04 0.426E-04 0.581E-04 0.609E-04 0.121E-03 0.128E-03 0.202E-03 0.221E-03


 Contracted 2-electron integrals neglected if value below      1.0D-12
   4     -171.32276695      -0.00076110     0.37D-03     0.36D-03     3     0       4.48     22.58    diag
   5     -171.32281644      -0.00004949     0.86D-04     0.93D-04     4     0       4.32     26.90    diag
   6     -171.32282064      -0.00000420     0.28D-04     0.26D-04     5     0       4.56     31.46    diag
   7     -171.32282115      -0.00000051     0.86D-05     0.98D-05     6     0       4.80     36.26    diag
   8     -171.32282118      -0.00000003     0.18D-05     0.26D-05     7     0       4.61     40.87    fixocc
   9     -171.32282119      -0.00000000     0.60D-06     0.80D-06     8     0       4.66     45.53    diag
  10     -171.32282119      -0.00000000     0.15D-06     0.17D-06     0     0       4.52     50.05    diag/orth

 Final occupancy:  14

 !RHF STATE 1.1 Energy               -171.322821187174
  RHF One-electron energy            -391.607199106565
  RHF Two-electron energy             140.504417542569
  RHF Kinetic energy                  171.102443473647
  RHF Nuclear energy                   79.779960376822
  RHF Virial quotient                  -1.001287986945

 !RHF STATE 1.1 Dipole moment           1.29384415     0.61646486     0.02866930
 Dipole moment /Debye                   3.28862382     1.56689739     0.07287010

 Orbital energies:

           1.1          2.1          3.1          4.1          5.1          6.1          7.1          8.1          9.1         10.1
    -20.523353   -15.563046   -11.257313    -1.310334    -1.194368    -0.915937    -0.683697    -0.678363    -0.624750    -0.576232

          11.1         12.1         13.1         14.1         15.1         16.1
     -0.547570    -0.535688    -0.469384    -0.419131     0.024159     0.037690


 HOMO     14.1    -0.419131 =     -11.4051eV
 LUMO     15.1     0.024159 =       0.6574eV
 LUMO-HOMO         0.443290 =      12.0625eV

 Orbitals saved in record  2100.2


 **********************************************************************************************************************************
 DATASETS  * FILE   NREC   LENGTH (MB)   RECORD NAMES
              1      19     3894.22       500      610      700      900      950      970     1000      129      960     1100   
                                          VAR    BASINP    GEOM    SYMINP    ZMAT    AOBASIS   BASIS     P2S    ABASIS      S 
                                         1400     1410     1200     1210     1080     1600     1650     1300     1700   
                                           T        V       H0       H01     AOSYM     SMH    MOLCAS    ERIS     OPER   

              2       4        1.94       700     1000      520     2100   
                                         GEOM     BASIS   MCVARS     RHF  

 PROGRAMS   *        TOTAL    HF-SCF       INT
 CPU TIMES  *        83.76     50.06     33.61
 REAL TIME  *       144.07 SEC
 DISK USED  *        14.62 GB
 **********************************************************************************************************************************


 Program * Restricted Hartree-Fock

 Molecular orbitals read from record     2100.2  Type=RHF/CANONICAL  

 Initial occupancy:  14

 NELEC=   28   SYM=1   MS2= 0   THRE=1.0D-08   THRD=3.2D-06   THRG=3.2D-06  HFMA2=F  DIIS_START=2   DIIS_MAX=10   DIIS_INCORE=F

 Level shifts:    0.00 (CLOSED)    0.00 (OPEN)    0.30 (GAP_MIN)

 ITER           ETOT              DE          GRAD        DDIFF     DIIS  NEXP   TIME(IT)  TIME(TOT)  DIAG
   1     -171.32282119    -171.32282119     0.00D+00     0.36D-01     0     0       4.68      4.68    start
   2     -171.32282119      -0.00000000     0.64D-07     0.72D-07     1     0       4.51      9.19    diag

 Final occupancy:  14

 !RHF STATE 1.1 Energy               -171.322821187205
  RHF One-electron energy            -391.607221979443
  RHF Two-electron energy             140.504440415417
  RHF Kinetic energy                  171.102460234414
  RHF Nuclear energy                   79.779960376822
  RHF Virial quotient                  -1.001287888862

 !RHF STATE 1.1 Dipole moment           1.29384001     0.61646247     0.02866937
 Dipole moment /Debye                   3.28861327     1.56689131     0.07287027

 Orbital energies:

           1.1          2.1          3.1          4.1          5.1          6.1          7.1          8.1          9.1         10.1
    -20.523356   -15.563045   -11.257319    -1.310335    -1.194368    -0.915938    -0.683697    -0.678363    -0.624751    -0.576233

          11.1         12.1         13.1         14.1         15.1         16.1
     -0.547571    -0.535689    -0.469386    -0.419131     0.024159     0.037690


 HOMO     14.1    -0.419131 =     -11.4051eV
 LUMO     15.1     0.024159 =       0.6574eV
 LUMO-HOMO         0.443290 =      12.0625eV

 Orbitals saved in record  2101.2


 **********************************************************************************************************************************
 DATASETS  * FILE   NREC   LENGTH (MB)   RECORD NAMES
              1      19     3894.22       500      610      700      900      950      970     1000      129      960     1100   
                                          VAR    BASINP    GEOM    SYMINP    ZMAT    AOBASIS   BASIS     P2S    ABASIS      S 
                                         1400     1410     1200     1210     1080     1600     1650     1300     1700   
                                           T        V       H0       H01     AOSYM     SMH    MOLCAS    ERIS     OPER   

              2       5        4.43       700     1000      520     2100     2101   
                                         GEOM     BASIS   MCVARS     RHF      RHF  

 PROGRAMS   *        TOTAL    HF-SCF    HF-SCF       INT
 CPU TIMES  *        92.96      9.20     50.06     33.61
 REAL TIME  *       156.61 SEC
 DISK USED  *        14.62 GB
 **********************************************************************************************************************************

 Counterpoise: absolute minimum monomer separation=    -1.000 Bragg radius scale factor=     1.400 Number of monomers= 2

 Counterpoise  HF-SCF001  energy

 Running default procedure: HF-SCF001

 Assignment of unique atoms to monomers:
1-10     1     1     1     2     2     2     2     2     2     2

 *** Long output written to logfile /Users/sacpjk/current/PAPT/S66/b010b979/03.molpro/run/1.molpro/1.log ***


 Description                       ENERGY
 Raw                        -171.32282119
 Dimer basis, monomer 1      -76.05996392
 Dimer basis, monomer 2      -95.25552263
 Monomer basis, monomer 1    -76.05988393
 Monomer basis, monomer 2    -95.25547390
 Counterpoise correction       0.00012872
 Counterpoise corrected     -171.32269247


 **********************************************************************************************************************************
 DATASETS  * FILE   NREC   LENGTH (MB)   RECORD NAMES
              1      18       31.90       500      610      700      900      950      970     1000      129      960     1100   
                                          VAR    BASINP    GEOM    SYMINP    ZMAT    AOBASIS   BASIS     P2S    ABASIS      S 
                                         1400     1410     1200     1210     1080     1600     1650     1700   
                                           T        V       H0       H01     AOSYM     SMH    MOLCAS    OPER   

              2      13       12.23       700     1000      520     2100     2101     2102     2103      701     1001     2104   
                                         GEOM     BASIS   MCVARS     RHF      RHF      RHF      RHF     GEOM     BASIS     RHF  
                                          702     1002     2105   
                                         GEOM     BASIS     RHF  

 PROGRAMS   *        TOTALCOUNTERPOI       INT    HF-SCF       INT    HF-SCF       INT    HF-SCF       INT    HF-SCF    HF-SCF
 CPU TIMES  *       201.90     10.92      7.76      0.43      0.38     44.77      0.04     44.56      0.05      9.20     50.06
 REAL TIME  *       292.21 SEC
 DISK USED  *        14.62 GB
 **********************************************************************************************************************************
