
 Working directory              : /var/folders/2v/xbgp75_9785319ghcgb4zr4r0000gp/T//molpro.uycEM8LOXe/
 Global scratch directory       : /var/folders/2v/xbgp75_9785319ghcgb4zr4r0000gp/T//molpro.uycEM8LOXe/
 Wavefunction directory         : /Users/sacpjk/wfu/
 Main file repository           : /var/folders/2v/xbgp75_9785319ghcgb4zr4r0000gp/T//molpro.uycEM8LOXe/

 id        : peterk

 Nodes                        nprocs
 Cardiff-University-G34YLXT77Y    1
 GA implementation: MPI file
 GA implementation (serial work in mppx): MPI file

 Using customized tuning parameters: mindgm=1; mindgv=20; mindgc=4; mindgr=1; noblas=0; minvec=7
 default implementation of scratch files=df  


 Variables initialized (1037), CPU time= 0.00 sec
 
 symmetry,nosym
 
 
 geometry={
 8
  c         -0.434803299979    0.316189783769   -0.230664827602
  o         -0.688982357910    1.272292030939   -0.929502575867
  o         -1.382707918986   -0.458150442963    0.337021777401
  h         -2.243707306849   -0.090851455961    0.069250635151
  c          0.940831852973   -0.165260045731    0.119486080121
  h          1.679217666079    0.472290041950   -0.351364243895
  h          1.067042368787   -0.153405320171    1.199521404459
  h          1.063108995886   -1.193104591884   -0.213748249663
 }
 basis=aug-cc-pVTZ
 
 
 
 hf; hf; papt; mp3; counterpoise
 
 
 
 {put,xml;noorbitals,nobasis}
 Commands initialized (841), CPU time= 0.01 sec, 716 directives.
 Default parameters read. Elapsed time= 0.15 sec

 Checking input...
 Passed
1


                                         ***  PROGRAM SYSTEM MOLPRO  ***
                                       Copyright, TTI GmbH Stuttgart, 2015
                                    Version 2023.1 linked Fri Jul  7 12:12:39 2023


 **********************************************************************************************************************************
 LABEL *                                                                                                                                                                 
  64 bit serial version                                                                  DATE: 10-Jul-23          TIME: 22:24:11  
 **********************************************************************************************************************************

 SHA1:             0fe2fddcc441eb00bb4c7ecb49b93e22d4ddc339
 **********************************************************************************************************************************

 Memory per process:      1573 MW
 Total memory per node:   2097 MW
 Total GA space:           524 MW

 GA preallocation disabled
 GA check enabled

 Variable memory set to 1572.9 MW

 ZSYMEL=NOSYM


 Geometry recognized as XYZ

 SETTING BASIS          =    AUG-CC-PVTZ


 Recomputing integrals since basis changed


 Using spherical harmonics

 Library entry C      S aug-cc-pVTZ          selected for orbital group  1
 Library entry C      P aug-cc-pVTZ          selected for orbital group  1
 Library entry C      D aug-cc-pVTZ          selected for orbital group  1
 Library entry C      F aug-cc-pVTZ          selected for orbital group  1
 Library entry O      S aug-cc-pVTZ          selected for orbital group  2
 Library entry O      P aug-cc-pVTZ          selected for orbital group  2
 Library entry O      D aug-cc-pVTZ          selected for orbital group  2
 Library entry O      F aug-cc-pVTZ          selected for orbital group  2
 Library entry H      S aug-cc-pVTZ          selected for orbital group  3
 Library entry H      P aug-cc-pVTZ          selected for orbital group  3
 Library entry H      D aug-cc-pVTZ          selected for orbital group  3


 PROGRAM * SEWARD (Integral evaluation for generally contracted gaussian basis sets)     Author: Roland Lindh, 1990

 Geometry written to block  1 of record 700


 Point group  C1  



 ATOMIC COORDINATES

 NR  ATOM    CHARGE       X              Y              Z

   1  C       6.00   -0.821659155    0.597512095   -0.435893351
   2  O       8.00   -1.301987961    2.404283489   -1.756505301
   3  O       8.00   -2.612939277   -0.865778861    0.636878857
   4  H       1.00   -4.239992314   -0.171684370    0.130864734
   5  C       6.00    1.777914531   -0.312296226    0.225795967
   6  H       1.00    3.173261493    0.892498831   -0.663982191
   7  H       1.00    2.016417840   -0.289894041    2.266766935
   8  H       1.00    2.008984843   -2.254640917   -0.403925651

 Bond lengths in Bohr (Angstrom)

 1-2  2.288919954  1-3  2.549655880  1-5  2.832554904  3-4  1.839869299  5-6  2.047004993
     ( 1.211244277)     ( 1.349219787)     ( 1.498923504)     ( 0.973616904)     ( 1.083228393)

 5-7  2.054981308  5-8  2.054907712
     ( 1.087449277)     ( 1.087410332)

 Bond angles

  1-3-4  106.80191145   1-5-6  109.57256808   1-5-7  109.57389652   1-5-8  109.58561376

  2-1-3  123.25385323   2-1-5  125.51430755   3-1-5  111.23183915   6-5-7  110.25385240

  6-5-8  110.27152505   7-5-8  107.55443570

 NUCLEAR CHARGE:                   32
 NUMBER OF PRIMITIVE AOS:         376
 NUMBER OF SYMMETRY AOS:          332
 NUMBER OF CONTRACTIONS:          276   (  276A   )
 NUMBER OF INNER CORE ORBITALS:     0   (    0A   )
 NUMBER OF OUTER CORE ORBITALS:     4   (    4A   )
 NUMBER OF VALENCE ORBITALS:       20   (   20A   )


 NUCLEAR REPULSION ENERGY  121.22795390


 Eigenvalues of metric

         1 0.205E-04 0.460E-04 0.504E-04 0.809E-04 0.902E-04 0.123E-03 0.200E-03 0.239E-03


 Contracted 2-electron integrals neglected if value below      1.0D-12
 AO integral compression algorithm  1   Integral accuracy      1.0D-12

     3707.240 MB (compressed) written to integral file ( 56.4%)


 NUMBER OF SORTED TWO-ELECTRON INTEGRALS:  730632651.     BUFFER LENGTH:  32768
 NUMBER OF SEGMENTS:  46  SEGMENT LENGTH:   15999984      RECORD LENGTH: 262144

 Memory used in sort:      16.29 MW

 SORT1 READ   822256493. AND WROTE   718470824. INTEGRALS IN   4132 RECORDS. CPU TIME:     5.16 SEC, REAL TIME:     6.65 SEC
 SORT2 READ   718470824. AND WROTE   730632651. INTEGRALS IN  14142 RECORDS. CPU TIME:     3.35 SEC, REAL TIME:     4.40 SEC

 FILE SIZES:   FILE 1:  3740.2 MBYTE,  FILE 4:  8665.5 MBYTE,   TOTAL:  12405.7 MBYTE

 OPERATOR DM      FOR CENTER  0  COORDINATES:    0.000000    0.000000    0.000000


 **********************************************************************************************************************************
 DATASETS  * FILE   NREC   LENGTH (MB)   RECORD NAMES
              1      19     3236.15       500      610      700      900      950      970     1000      129      960     1100   
                                          VAR    BASINP    GEOM    SYMINP    ZMAT    AOBASIS   BASIS     P2S    ABASIS      S 
                                         1400     1410     1200     1210     1080     1600     1650     1300     1700   
                                           T        V       H0       H01     AOSYM     SMH    MOLCAS    ERIS     OPER   

 PROGRAMS   *        TOTAL       INT
 CPU TIMES  *        22.61     22.52
 REAL TIME  *        27.90 SEC
 DISK USED  *        11.55 GB
 **********************************************************************************************************************************


 Program * Restricted Hartree-Fock

 Orbital guess generated from atomic densities. Full valence occupancy:   24

 Initial occupancy:  16

 NELEC=   32   SYM=1   MS2= 0   THRE=1.0D-08   THRD=3.2D-06   THRG=3.2D-06  HFMA2=F  DIIS_START=2   DIIS_MAX=10   DIIS_INCORE=F

 Level shifts:    0.00 (CLOSED)    0.00 (OPEN)    0.30 (GAP_MIN)

 ITER           ETOT              DE          GRAD        DDIFF     DIIS  NEXP   TIME(IT)  TIME(TOT)  DIAG
   1     -227.80271097    -227.80271097     0.00D+00     0.40D-01     0     0       2.56      4.95    start
   2     -227.86708435      -0.06437339     0.52D-02     0.60D-02     1     0       2.58      7.53    diag
   3     -227.90321166      -0.03612731     0.36D-02     0.23D-02     2     0       2.59     10.12    diag
   4     -227.90487613      -0.00166446     0.55D-03     0.55D-03     3     0       2.65     12.77    diag
   5     -227.90517148      -0.00029535     0.23D-03     0.22D-03     4     0       2.63     15.40    diag
   6     -227.90520754      -0.00003606     0.67D-04     0.75D-04     5     0       2.66     18.06    diag
   7     -227.90521441      -0.00000687     0.27D-04     0.36D-04     6     0       2.73     20.79    diag
   8     -227.90521558      -0.00000117     0.10D-04     0.15D-04     7     0       2.71     23.50    fixocc
   9     -227.90521574      -0.00000016     0.35D-05     0.63D-05     8     0       2.71     26.21    diag
  10     -227.90521575      -0.00000001     0.76D-06     0.13D-05     9     0       2.67     28.88    diag/orth
  11     -227.90521575      -0.00000000     0.19D-06     0.23D-06     0     0       2.66     31.54    diag

 Final occupancy:  16

 !RHF STATE 1.1 Energy               -227.905215745710
  RHF One-electron energy            -551.865635724766
  RHF Two-electron energy             202.732466082784
  RHF Kinetic energy                  227.525965538901
  RHF Nuclear energy                  121.227953896272
  RHF Virial quotient                  -1.001666843632

 !RHF STATE 1.1 Dipole moment           0.17174094    -0.63732925     0.46571994
 Dipole moment /Debye                   0.43652192    -1.61992936     1.18374203

 Orbital energies:

           1.1          2.1          3.1          4.1          5.1          6.1          7.1          8.1          9.1         10.1
    -20.617953   -20.551528   -11.390790   -11.245346    -1.467414    -1.362334    -1.030123    -0.826688    -0.707520    -0.682126

          11.1         12.1         13.1         14.1         15.1         16.1         17.1         18.1
     -0.653281    -0.585255    -0.575205    -0.563739    -0.484606    -0.456410     0.027245     0.038576


 HOMO     16.1    -0.456410 =     -12.4195eV
 LUMO     17.1     0.027245 =       0.7414eV
 LUMO-HOMO         0.483654 =      13.1609eV

 Orbitals saved in record  2100.2


 **********************************************************************************************************************************
 DATASETS  * FILE   NREC   LENGTH (MB)   RECORD NAMES
              1      19     3236.15       500      610      700      900      950      970     1000      129      960     1100   
                                          VAR    BASINP    GEOM    SYMINP    ZMAT    AOBASIS   BASIS     P2S    ABASIS      S 
                                         1400     1410     1200     1210     1080     1600     1650     1300     1700   
                                           T        V       H0       H01     AOSYM     SMH    MOLCAS    ERIS     OPER   

              2       4        1.70       700     1000      520     2100   
                                         GEOM     BASIS   MCVARS     RHF  

 PROGRAMS   *        TOTAL    HF-SCF       INT
 CPU TIMES  *        54.16     31.55     22.52
 REAL TIME  *        63.67 SEC
 DISK USED  *        11.55 GB
 **********************************************************************************************************************************


 Program * Restricted Hartree-Fock

 Molecular orbitals read from record     2100.2  Type=RHF/CANONICAL  

 Initial occupancy:  16

 NELEC=   32   SYM=1   MS2= 0   THRE=1.0D-08   THRD=3.2D-06   THRG=3.2D-06  HFMA2=F  DIIS_START=2   DIIS_MAX=10   DIIS_INCORE=F

 Level shifts:    0.00 (CLOSED)    0.00 (OPEN)    0.30 (GAP_MIN)

 ITER           ETOT              DE          GRAD        DDIFF     DIIS  NEXP   TIME(IT)  TIME(TOT)  DIAG
   1     -227.90521575    -227.90521575     0.00D+00     0.40D-01     0     0       2.69      2.69    start
   2     -227.90521575      -0.00000000     0.83D-07     0.99D-07     1     0       2.63      5.32    diag

 Final occupancy:  16

 !RHF STATE 1.1 Energy               -227.905215745773
  RHF One-electron energy            -551.865655123787
  RHF Two-electron energy             202.732485481742
  RHF Kinetic energy                  227.525966275634
  RHF Nuclear energy                  121.227953896272
  RHF Virial quotient                  -1.001666840389

 !RHF STATE 1.1 Dipole moment           0.17173394    -0.63731756     0.46571141
 Dipole moment /Debye                   0.43650413    -1.61989965     1.18372033

 Orbital energies:

           1.1          2.1          3.1          4.1          5.1          6.1          7.1          8.1          9.1         10.1
    -20.617956   -20.551527   -11.390799   -11.245348    -1.467416    -1.362336    -1.030125    -0.826690    -0.707522    -0.682128

          11.1         12.1         13.1         14.1         15.1         16.1         17.1         18.1
     -0.653283    -0.585257    -0.575206    -0.563740    -0.484606    -0.456411     0.027245     0.038576


 HOMO     16.1    -0.456411 =     -12.4196eV
 LUMO     17.1     0.027245 =       0.7414eV
 LUMO-HOMO         0.483656 =      13.1609eV

 Orbitals saved in record  2101.2


 **********************************************************************************************************************************
 DATASETS  * FILE   NREC   LENGTH (MB)   RECORD NAMES
              1      19     3236.15       500      610      700      900      950      970     1000      129      960     1100   
                                          VAR    BASINP    GEOM    SYMINP    ZMAT    AOBASIS   BASIS     P2S    ABASIS      S 
                                         1400     1410     1200     1210     1080     1600     1650     1300     1700   
                                           T        V       H0       H01     AOSYM     SMH    MOLCAS    ERIS     OPER   

              2       5        3.84       700     1000      520     2100     2101   
                                         GEOM     BASIS   MCVARS     RHF      RHF  

 PROGRAMS   *        TOTAL    HF-SCF    HF-SCF       INT
 CPU TIMES  *        59.49      5.33     31.55     22.52
 REAL TIME  *        69.81 SEC
 DISK USED  *        11.55 GB
 **********************************************************************************************************************************


 PROGRAM * PAPT (Closed-shell)     Authors: C. Hampel, H.-J. Werner, 1991, P.J. Knowles, 2021


 Convergence thresholds:  THRVAR = 1.00D-08  THRDEN = 1.00D-06

 Number of core orbitals:           4 (   4 )
 Number of closed-shell orbitals:  12 (  12 )
 Number of external orbitals:     260 ( 260 )

 Molecular orbitals read from record     2101.2  Type=RHF/CANONICAL  

 Number of N-1 electron functions:              12
 Number of N-2 electron functions:              78
 Number of singly external CSFs:              3120
 Number of doubly external CSFs:           4868760
 Total number of CSFs:                     4871881

 Length of J-op  integral file:               0.00 MB
 Length of K-op  integral file:               5.29 MB

 Integral transformation finished. Total CPU:   4.76 sec, npass=  1  Memory used:  11.53 MW

 Reference energy:                   -227.90521575

                        CORR.ENERGY   TOTAL ENERGY   ENERGY CHANGE
 MP2:                   -0.81729443  -228.72251018    -0.81729443

 SCS-MP2 correlation energy:           -0.80439433   (PS=  1.200000  PT=  0.333333)
 SCS-MP2 total energy:               -228.70961008
 Iteration:   1     0.2259D+00
 Iteration:   2     0.3066D+00
 Iteration:   3     0.7051D-01
 Iteration:   4     0.5342D-01
 Iteration:   5     0.1334D+00
 Iteration:   6     0.2091D-01
 Iteration:   7     0.4484D-01
 Iteration:   8     0.1352D-01
 Iteration:   9     0.7995D-02
 Iteration:  10     0.1363D-01
 Iteration:  11     0.2209D-02
 Iteration:  12     0.6244D-02
 Iteration:  13     0.1190D-02
 Iteration:  14     0.1012D-02
 Iteration:  15     0.1117D-02
 Iteration:  16     0.4405D-03
 Iteration:  17     0.2952D-01
 Iteration:  18     0.1843D-03
 Iteration:  19     0.2414D-03
 Iteration:  20     0.8850D-04
 PAPT operator written to  7000.1
 PAPT orbitals and eigenvalues written to  7000.2

 MP3(D):                -0.82444304  -228.72965879    -0.00714861



 RESULTS
 =======

  Reference energy                   -227.905215745772
  MP3 singlet pair energy              -0.546490126760
  MP3 triplet pair energy              -0.277952915124
  MP3 correlation energy               -0.824443041884

 !MP3 total energy                   -228.729658787656

 Timing summary (sec):

 STEP                 CPU(USER)    SYS     CPU(TOT)    WALL
 Transformation          4.92      0.59      5.51      5.50
 CCSD iterations        79.67      0.71     80.38     21.35

 Program statistics:

 Available memory in ccsd:              1572863408
 Min. memory needed in ccsd:              12604519
 Max. memory used in ccsd:                16966327
 Max. memory used in cckext:              12544424 ( 1 integral passes)



 **********************************************************************************************************************************
 DATASETS  * FILE   NREC   LENGTH (MB)   RECORD NAMES
              1      21     3305.69       500      610      700      900      950      970     1000      129      960     1100   
                                          VAR    BASINP    GEOM    SYMINP    ZMAT    AOBASIS   BASIS     P2S    ABASIS      S 
                                         1400     1410     1200     1210     1080     1600     1650     1300     1700     1380   
                                           T        V       H0       H01     AOSYM     SMH    MOLCAS    ERIS     OPER     JKOP   
                                         7000   
                                        PAPT AO    

              2       6        5.69       700     1000      520     2100     2101     7000   
                                         GEOM     BASIS   MCVARS     RHF      RHF     PAPT   

 PROGRAMS   *        TOTAL      PAPT    HF-SCF    HF-SCF       INT
 CPU TIMES  *        84.52     25.03      5.33     31.55     22.52
 REAL TIME  *        96.74 SEC
 DISK USED  *        11.55 GB
 **********************************************************************************************************************************


 PROGRAM * MP3 (Closed-shell)     Authors: C. Hampel, H.-J. Werner, 1991, M. Deegan, P.J. Knowles, 1992


 Convergence thresholds:  THRVAR = 1.00D-08  THRDEN = 1.00D-06

 Number of core orbitals:           4 (   4 )
 Number of closed-shell orbitals:  12 (  12 )
 Number of external orbitals:     260 ( 260 )

 Molecular orbitals read from record     7000.2  Type=PAPT/CANONICAL (state 1.1)

 Number of N-1 electron functions:              12
 Number of N-2 electron functions:              78
 Number of singly external CSFs:              3120
 Number of doubly external CSFs:           4868760
 Total number of CSFs:                     4871881

 Length of J-op  integral file:               0.00 MB
 Length of K-op  integral file:               5.29 MB

 Integral transformation finished. Total CPU:   4.76 sec, npass=  1  Memory used:  11.53 MW
 Orbital energies read from record       7000.2  Type=PAPT/CANONICAL (state 1.1)

 Reference energy:                   -227.90521575

                        CORR.ENERGY   TOTAL ENERGY   ENERGY CHANGE
 MP2:                   -0.83166795  -228.73688370    -0.83166795

 SCS-MP2 correlation energy:           -0.82207371   (PS=  1.200000  PT=  0.333333)
 SCS-MP2 total energy:               -228.72728945

 MP3(D):                -0.83188258  -228.73709833    -0.00021463



 RESULTS
 =======

  Reference energy                   -227.905215745772
  MP3 singlet pair energy              -0.551939598947
  MP3 triplet pair energy              -0.279942984917
  MP3 correlation energy               -0.831882583864

 !MP3 total energy                   -228.737098329636

 Timing summary (sec):

 STEP                 CPU(USER)    SYS     CPU(TOT)    WALL
 Transformation          7.49      0.88      8.37      8.38
 CCSD iterations        96.19      0.61     96.80     12.53

 Program statistics:

 Available memory in ccsd:              1572863408
 Min. memory needed in ccsd:              12604519
 Max. memory used in ccsd:                16966327
 Max. memory used in cckext:              12544424 ( 1 integral passes)



 **********************************************************************************************************************************
 DATASETS  * FILE   NREC   LENGTH (MB)   RECORD NAMES
              1      21     3305.69       500      610      700      900      950      970     1000      129      960     1100   
                                          VAR    BASINP    GEOM    SYMINP    ZMAT    AOBASIS   BASIS     P2S    ABASIS      S 
                                         1400     1410     1200     1210     1080     1600     1650     1300     1700     1380   
                                           T        V       H0       H01     AOSYM     SMH    MOLCAS    ERIS     OPER     JKOP   
                                         7000   
                                        PAPT AO    

              2       6        5.69       700     1000      520     2100     2101     7000   
                                         GEOM     BASIS   MCVARS     RHF      RHF     PAPT   

 PROGRAMS   *        TOTAL       MP3      PAPT    HF-SCF    HF-SCF       INT
 CPU TIMES  *       103.61     19.09     25.03      5.33     31.55     22.52
 REAL TIME  *       117.72 SEC
 DISK USED  *        11.55 GB
 **********************************************************************************************************************************

 Counterpoise: absolute minimum monomer separation=    -1.000 Bragg radius scale factor=     1.400 Number of monomers= 1
 Counterpoise skipped because only a single monomer


 **********************************************************************************************************************************
 DATASETS  * FILE   NREC   LENGTH (MB)   RECORD NAMES
              1      21     3305.69       500      610      700      900      950      970     1000      129      960     1100   
                                          VAR    BASINP    GEOM    SYMINP    ZMAT    AOBASIS   BASIS     P2S    ABASIS      S 
                                         1400     1410     1200     1210     1080     1600     1650     1300     1700     1380   
                                           T        V       H0       H01     AOSYM     SMH    MOLCAS    ERIS     OPER     JKOP   
                                         7000   
                                        PAPT AO    

              2       6        5.69       700     1000      520     2100     2101     7000   
                                         GEOM     BASIS   MCVARS     RHF      RHF     PAPT   

 PROGRAMS   *        TOTALCOUNTERPOI       MP3      PAPT    HF-SCF    HF-SCF       INT
 CPU TIMES  *       103.61      0.00     19.09     25.03      5.33     31.55     22.52
 REAL TIME  *       117.72 SEC
 DISK USED  *        11.55 GB
 **********************************************************************************************************************************

 Dump information in style XML to xml output                                                                      

 Orbitals will not be exported.

 **********************************************************************************************************************************

 MP3/aug-cc-pVTZ energy=   -228.737098329636

             MP3            PAPT          HF-SCF          HF-SCF
   -228.73709833   -228.72965879   -227.90521575   -227.90521575
 **********************************************************************************************************************************
 Molpro calculation terminated
