
 Working directory              : /tmp/peterk/molpro.onVxbZIuDE/
 Global scratch directory       : /tmp/peterk/molpro.onVxbZIuDE/
 Wavefunction directory         : /home/peterk/wfu/
 Main file repository           : /tmp/peterk/molpro.onVxbZIuDE/

 id        : peterk

 Nodes     nprocs
 marat        1
 GA implementation: MPI file
 GA implementation (serial work in mppx): MPI file

 Using customized tuning parameters: mindgm=1; mindgv=20; mindgc=4; mindgr=1; noblas=0; minvec=7
 default implementation of scratch files=df  


 Variables initialized (1032), CPU time= 0.00 sec
 
 core,small
 angstrom
 
 geometry={
 N;N,N,1.09811947
 }
 basis=cc-pCVTZ
 
 
 
 hf; mp3
 
 
 
 {put,xml;noorbitals,nobasis}
 Commands initialized (841), CPU time= 0.01 sec, 708 directives.
 Default parameters read. Elapsed time= 0.04 sec

 Checking input...
 Passed
1


                                         ***  PROGRAM SYSTEM MOLPRO  ***
                                       Copyright, TTI GmbH Stuttgart, 2015
                                    Version 2023.1 linked Sat Jun 10 08:01:27 2023


 **********************************************************************************************************************************
 LABEL *                                                                                                                                                                 
  (16 PROC) 64 bit serial version                                                        DATE: 12-Jun-23          TIME: 10:24:22  
 **********************************************************************************************************************************

 SHA1:             8376d659ba1296ca7ee514c57770fe2c96af278c
 **********************************************************************************************************************************

 Memory per process:      1074 MW
 Total memory per node:   1074 MW

 GA preallocation disabled
 GA check disabled

 Variable memory set to 1073.7 MW

 ZUNIT=ANG

 SETTING BASIS          =    CC-PCVTZ


 Recomputing integrals since basis changed


 Using spherical harmonics

 Library entry N      S cc-pCVTZ             selected for orbital group  1
 Library entry N      P cc-pCVTZ             selected for orbital group  1
 Library entry N      D cc-pCVTZ             selected for orbital group  1
 Library entry N      F cc-pCVTZ             selected for orbital group  1


 PROGRAM * SEWARD (Integral evaluation for generally contracted gaussian basis sets)     Author: Roland Lindh, 1990

 Geometry written to block  1 of record 700

 Orientation using atomic masses  
 Molecule type: Linear
 Symmetry elements: X,Y,Z
 Rotational constants:      59.8428370     59.8428370      0.0000000 GHz  (calculated with average atomic masses)

 Point group  D2h 



 ATOMIC COORDINATES

 NR  ATOM    CHARGE       X              Y              Z

   1  N       7.00    0.000000000    0.000000000   -1.037572525
   2  N       7.00    0.000000000    0.000000000    1.037572525

 Bond lengths in Bohr (Angstrom)

 1-2  2.075145050
     ( 1.098119470)

 NUCLEAR CHARGE:                   14
 NUMBER OF PRIMITIVE AOS:         122
 NUMBER OF SYMMETRY AOS:          110
 NUMBER OF CONTRACTIONS:           86   (   19Ag  +   10B3u +   10B2u +    4B1g +   19B1u +   10B2g +   10B3g +    4Au  )
 NUMBER OF INNER CORE ORBITALS:     0   (    0Ag  +    0B3u +    0B2u +    0B1g +    0B1u +    0B2g +    0B3g +    0Au  )
 NUMBER OF OUTER CORE ORBITALS:     2   (    1Ag  +    0B3u +    0B2u +    0B1g +    1B1u +    0B2g +    0B3g +    0Au  )
 NUMBER OF VALENCE ORBITALS:        8   (    2Ag  +    1B3u +    1B2u +    0B1g +    2B1u +    1B2g +    1B3g +    0Au  )


 NUCLEAR REPULSION ENERGY   23.61280721

 EXTRA SYMMETRY OF AOS IN SYMMETRY 1:   1 1 1 1 1 1 1 1 1 1   1 1 2 1 2 1 2 1 2
 EXTRA SYMMETRY OF AOS IN SYMMETRY 2:   1 1 1 1 1 1 1 1 1 2
 EXTRA SYMMETRY OF AOS IN SYMMETRY 3:   1 1 1 1 1 1 1 1 1 2
 EXTRA SYMMETRY OF AOS IN SYMMETRY 5:   1 1 1 1 1 1 1 1 1 1   1 1 2 1 2 1 2 1 2
 EXTRA SYMMETRY OF AOS IN SYMMETRY 6:   1 1 1 1 1 1 1 1 1 2
 EXTRA SYMMETRY OF AOS IN SYMMETRY 7:   1 1 1 1 1 1 1 1 1 2

 Eigenvalues of metric

         1 0.704E-02 0.120E-01 0.159E-01 0.615E-01 0.131E+00 0.296E+00 0.412E+00 0.513E+00
         2 0.263E-01 0.326E+00 0.408E+00 0.531E+00 0.997E+00 0.110E+01 0.116E+01 0.159E+01
         3 0.263E-01 0.326E+00 0.408E+00 0.531E+00 0.997E+00 0.110E+01 0.116E+01 0.159E+01
         4 0.513E+00 0.100E+01 0.124E+01 0.198E+01
         5 0.674E-03 0.156E-02 0.120E-01 0.260E-01 0.558E-01 0.153E+00 0.305E+00 0.324E+00
         6 0.148E-01 0.662E-01 0.146E+00 0.397E+00 0.412E+00 0.905E+00 0.955E+00 0.126E+01
         7 0.148E-01 0.662E-01 0.146E+00 0.397E+00 0.412E+00 0.905E+00 0.955E+00 0.126E+01
         8 0.305E+00 0.588E+00 0.965E+00 0.140E+01


 Contracted 2-electron integrals neglected if value below      1.0D-11
 AO integral compression algorithm  1   Integral accuracy      1.0D-11

     8.126 MB (compressed) written to integral file ( 53.1%)


 NUMBER OF SORTED TWO-ELECTRON INTEGRALS:     948338.     BUFFER LENGTH:  32768
 NUMBER OF SEGMENTS:   1  SEGMENT LENGTH:     948338      RECORD LENGTH: 524288

 Memory used in sort:       1.51 MW

 SORT1 READ     1963088. AND WROTE      807546. INTEGRALS IN      3 RECORDS. CPU TIME:     0.03 SEC, REAL TIME:     0.04 SEC
 SORT2 READ      807546. AND WROTE      948338. INTEGRALS IN     31 RECORDS. CPU TIME:     0.06 SEC, REAL TIME:     0.06 SEC

 FILE SIZES:   FILE 1:    38.3 MBYTE,  FILE 4:    12.6 MBYTE,   TOTAL:     51.0 MBYTE

 OPERATOR DM      FOR CENTER  0  COORDINATES:    0.000000    0.000000    0.000000


 **********************************************************************************************************************************
 DATASETS  * FILE   NREC   LENGTH (MB)   RECORD NAMES
              1      19       32.60       500      610      700      900      950      970     1000      129      960     1100   
                                          VAR    BASINP    GEOM    SYMINP    ZMAT    AOBASIS   BASIS     P2S    ABASIS      S 
                                         1400     1410     1200     1210     1080     1600     1650     1300     1700   
                                           T        V       H0       H01     AOSYM     SMH    MOLCAS    ERIS     OPER   

 PROGRAMS   *        TOTAL       INT
 CPU TIMES  *         0.77      0.64
 REAL TIME  *         1.40 SEC
 DISK USED  *        48.94 MB
 **********************************************************************************************************************************


 Program * Restricted Hartree-Fock

 Orbital guess generated from atomic densities. Full valence occupancy:    3   1   1   0   3   1   1   0


 Initial occupancy:   3   1   1   0   2   0   0   0

 NELEC=   14   SYM=1   MS2= 0   THRE=1.0D-08   THRD=3.2D-06   THRG=3.2D-06  HFMA2=F  DIIS_START=2   DIIS_MAX=10   DIIS_INCORE=F

 Level shifts:    0.00 (CLOSED)    0.00 (OPEN)    0.30 (GAP_MIN)

 ITER           ETOT              DE          GRAD        DDIFF     DIIS  NEXP   TIME(IT)  TIME(TOT)  DIAG
   1     -108.97224467    -108.97224467     0.00D+00     0.20D+00     0     0       0.01      0.01    start
   2     -108.98351052      -0.01126585     0.11D-01     0.13D-01     1     0       0.00      0.01    diag
   3     -108.98426101      -0.00075049     0.33D-02     0.35D-02     2     0       0.00      0.01    diag
   4     -108.98431583      -0.00005482     0.62D-03     0.11D-02     3     0       0.00      0.01    diag
   5     -108.98431704      -0.00000122     0.10D-03     0.17D-03     4     0       0.01      0.02    diag
   6     -108.98431706      -0.00000002     0.12D-04     0.27D-04     5     0       0.00      0.02    diag
   7     -108.98431706      -0.00000000     0.20D-05     0.50D-05     6     0       0.00      0.02    diag
   8     -108.98431706      -0.00000000     0.22D-06     0.56D-06     7     0       0.00      0.02    fixocc
   9     -108.98431706      -0.00000000     0.21D-07     0.40D-07     0     0       0.01      0.03    diag

 Final occupancy:   3   1   1   0   2   0   0   0

 !RHF STATE 1.1 Energy               -108.984317063836
  RHF One-electron energy            -194.270692583163
  RHF Two-electron energy              61.673568313343
  RHF Kinetic energy                  108.770126946526
  RHF Nuclear energy                   23.612807205984
  RHF Virial quotient                  -1.001969199847

 !RHF STATE 1.1 Dipole moment           0.00000000     0.00000000     0.00000000
 Dipole moment /Debye                   0.00000000     0.00000000     0.00000000

 Orbital energies:

           1.1          2.1          3.1          4.1          5.1
    -15.681034    -1.469329    -0.632497     0.550362     0.577999

           1.2          2.2          3.2
     -0.611840     0.560487     1.341332

           1.3          2.3          3.3
     -0.611840     0.560487     1.341332

           1.4          2.4
      1.047555     3.828496

           1.5          2.5          3.5          4.5
    -15.677504    -0.777734     0.417901     0.896577

           1.6          2.6
      0.161707     0.730715

           1.7          2.7
      0.161707     0.730715

           1.8          2.8
      1.511891     4.903416


 HOMO      1.3    -0.611840 =     -16.6490eV
 LUMO      1.6     0.161707 =       4.4003eV
 LUMO-HOMO         0.773547 =      21.0493eV

 Orbitals saved in record  2100.2


 **********************************************************************************************************************************
 DATASETS  * FILE   NREC   LENGTH (MB)   RECORD NAMES
              1      19       32.60       500      610      700      900      950      970     1000      129      960     1100   
                                          VAR    BASINP    GEOM    SYMINP    ZMAT    AOBASIS   BASIS     P2S    ABASIS      S 
                                         1400     1410     1200     1210     1080     1600     1650     1300     1700   
                                           T        V       H0       H01     AOSYM     SMH    MOLCAS    ERIS     OPER   

              2       4        0.41       700     1000      520     2100   
                                         GEOM     BASIS   MCVARS     RHF  

 PROGRAMS   *        TOTAL    HF-SCF       INT
 CPU TIMES  *         0.80      0.03      0.64
 REAL TIME  *         1.43 SEC
 DISK USED  *        48.94 MB
 **********************************************************************************************************************************


 PROGRAM * MP3 (Closed-shell)     Authors: C. Hampel, H.-J. Werner, 1991, M. Deegan, P.J. Knowles, 1992


 CORETYPE=SMALL

 Convergence thresholds:  THRVAR = 1.00D-08  THRDEN = 1.00D-06

 Number of closed-shell orbitals:   7 (   3   1   1   0   2   0   0   0 )
 Number of external orbitals:      79 (  16   9   9   4  17  10  10   4 )

 Molecular orbitals read from record     2100.2  Type=RHF/CANONICAL  

 Number of N-1 electron functions:               7
 Number of N-2 electron functions:              28
 Number of singly external CSFs:               100
 Number of doubly external CSFs:             21353
 Total number of CSFs:                       21454

 Length of J-op  integral file:               0.00 MB
 Length of K-op  integral file:               0.14 MB

 Integral transformation finished. Total CPU:   0.00 sec, npass=  1  Memory used:   0.09 MW

 Reference energy:                   -108.98431706

                        CORR.ENERGY   TOTAL ENERGY   ENERGY CHANGE
 MP2:                   -0.47787275  -109.46218981    -0.47787275

 SCS-MP2 correlation energy:           -0.48049069   (PS=  1.200000  PT=  0.333333)
 SCS-MP2 total energy:               -109.46480775

 MP3(D):                -0.47257327  -109.45689033     0.00529948



 RESULTS
 =======

  Reference energy                   -108.984317063836

  Correlated core orbitals:             1.1       1.5
  Orbital energies:                   -15.6810  -15.6775

  MP3 core-core energy                 -0.075053228311
  MP3 core-valence energy              -0.028276627702
  MP3 valence correlation energy       -0.369243413811

  MP3 singlet pair energy              -0.332940789768
  MP3 triplet pair energy              -0.139632480056
  MP3 correlation energy               -0.472573269824

 !MP3 total energy                   -109.456890333660

 Timing summary (sec):

 STEP                 CPU(USER)    SYS     CPU(TOT)    WALL
 CCSD iterations         1.15      0.00      1.15      0.03

 Program statistics:

 Available memory in ccsd:              1073741625
 Min. memory needed in ccsd:                 73140
 Max. memory used in ccsd:                   89993
 Max. memory used in cckext:                105309 ( 1 integral passes)



 **********************************************************************************************************************************
 DATASETS  * FILE   NREC   LENGTH (MB)   RECORD NAMES
              1      20       32.96       500      610      700      900      950      970     1000      129      960     1100   
                                          VAR    BASINP    GEOM    SYMINP    ZMAT    AOBASIS   BASIS     P2S    ABASIS      S 
                                         1400     1410     1200     1210     1080     1600     1650     1300     1700     1380   
                                           T        V       H0       H01     AOSYM     SMH    MOLCAS    ERIS     OPER     JKOP   

              2       4        0.41       700     1000      520     2100   
                                         GEOM     BASIS   MCVARS     RHF  

 PROGRAMS   *        TOTAL       MP3    HF-SCF       INT
 CPU TIMES  *         0.86      0.06      0.03      0.64
 REAL TIME  *         1.49 SEC
 DISK USED  *        48.94 MB
 **********************************************************************************************************************************

 Dump information in style XML to xml output                                                                      

 Orbitals will not be exported.

 **********************************************************************************************************************************

 MP3/cc-pCVTZ energy=   -109.456890333660

             MP3          HF-SCF
   -109.45689033   -108.98431706
 **********************************************************************************************************************************
 Molpro calculation terminated
