
 Working directory              : /var/folders/2v/xbgp75_9785319ghcgb4zr4r0000gp/T//molpro.fqP8YSBvkz/
 Global scratch directory       : /var/folders/2v/xbgp75_9785319ghcgb4zr4r0000gp/T//molpro.fqP8YSBvkz/
 Wavefunction directory         : /Users/sacpjk/wfu/
 Main file repository           : /var/folders/2v/xbgp75_9785319ghcgb4zr4r0000gp/T//molpro.fqP8YSBvkz/

 id        : peterk

 Nodes                        nprocs
 Cardiff-University-G34YLXT77Y    1
 GA implementation: MPI file
 GA implementation (serial work in mppx): MPI file

 Using customized tuning parameters: mindgm=1; mindgv=20; mindgc=4; mindgr=1; noblas=0; minvec=7
 default implementation of scratch files=df  


 Variables initialized (1032), CPU time= 0.00 sec
 
 symmetry,nosym
 
 
 geometry={
            9
     C         -0.71355475      0.00000000     -0.69976629
     C         -1.24098505      0.00000000      0.55889447
     S          0.00000000      0.00000000      1.76913511
     C          1.24098505      0.00000000      0.55889447
     C          0.71355475      0.00000000     -0.69976629
     H         -1.31813560      0.00000000     -1.59705982
     H         -2.27881957      0.00000000      0.85336408
     H          2.27881957      0.00000000      0.85336408
     H          1.31813560      0.00000000     -1.59705982
 }
 basis=cc-pVDZ
 
 
 
 hf; hf; papt; mp4
 
 
 
 {put,xml;noorbitals,nobasis}
 Commands initialized (841), CPU time= 0.01 sec, 704 directives.
 Default parameters read. Elapsed time= 1.01 sec

 Checking input...
 Passed
1


                                         ***  PROGRAM SYSTEM MOLPRO  ***
                                       Copyright, TTI GmbH Stuttgart, 2015
                                    Version 2023.1 linked Tue Jun  6 09:54:11 2023


 **********************************************************************************************************************************
 LABEL *                                                                                                                                                                 
  64 bit serial version                                                                  DATE: 11-Jun-23          TIME: 13:53:33  
 **********************************************************************************************************************************

 SHA1:             8ebb0dd001088a5c915591db1a321413035db0b1
 **********************************************************************************************************************************

 Memory per process:       393 MW
 Total memory per node:    524 MW
 Total GA space:           131 MW

 GA preallocation disabled
 GA check enabled

 Variable memory set to 393.2 MW

 ZSYMEL=NOSYM


 Geometry recognized as XYZ

 SETTING BASIS          =    CC-PVDZ


 Recomputing integrals since basis changed


 Using spherical harmonics

 Library entry C      S cc-pVDZ              selected for orbital group  1
 Library entry C      P cc-pVDZ              selected for orbital group  1
 Library entry C      D cc-pVDZ              selected for orbital group  1
 Library entry S      S cc-pVDZ              selected for orbital group  2
 Library entry S      P cc-pVDZ              selected for orbital group  2
 Library entry S      D cc-pVDZ              selected for orbital group  2
 Library entry H      S cc-pVDZ              selected for orbital group  4
 Library entry H      P cc-pVDZ              selected for orbital group  4


 PROGRAM * SEWARD (Integral evaluation for generally contracted gaussian basis sets)     Author: Roland Lindh, 1990

 Geometry written to block  1 of record 700


 Point group  C1  



 ATOMIC COORDINATES

 NR  ATOM    CHARGE       X              Y              Z

   1  C       6.00   -1.348423052    0.000000000   -1.322366639
   2  C       6.00   -2.345121869    0.000000000    1.056157481
   3  S      16.00    0.000000000    0.000000000    3.343180835
   4  C       6.00    2.345121869    0.000000000    1.056157481
   5  C       6.00    1.348423052    0.000000000   -1.322366639
   6  H       1.00   -2.490915279    0.000000000   -3.018005664
   7  H       1.00   -4.306344875    0.000000000    1.612624396
   8  H       1.00    4.306344875    0.000000000    1.612624396
   9  H       1.00    2.490915279    0.000000000   -3.018005664

 Bond lengths in Bohr (Angstrom)

 1-2  2.578911693  1-5  2.696846105  1-6  2.044622261  2-3  3.275678923  2-7  2.038639523
     ( 1.364701297)     ( 1.427109500)     ( 1.081967506)     ( 1.733414636)     ( 1.078801577)

 3-4  3.275678923  4-5  2.578911693  4-8  2.038639523  5-9  2.044622261
     ( 1.733414636)     ( 1.364701297)     ( 1.078801577)     ( 1.081967506)

 Bond angles

  1-2-3  111.54573147   1-2-7  128.57615248   1-5-4  112.73567595   1-5-9  123.97140770

  2-1-5  112.73567595   2-1-6  123.29291635   2-3-4   91.43718515   3-2-7  119.87811605

  3-4-5  111.54573147   3-4-8  119.87811605   4-5-9  123.29291635   5-1-6  123.97140770

  5-4-8  128.57615248

 NUCLEAR CHARGE:                   44
 NUMBER OF PRIMITIVE AOS:         178
 NUMBER OF SYMMETRY AOS:          173
 NUMBER OF CONTRACTIONS:           94   (   94A   )
 NUMBER OF INNER CORE ORBITALS:     1   (    1A   )
 NUMBER OF OUTER CORE ORBITALS:     8   (    8A   )
 NUMBER OF VALENCE ORBITALS:       24   (   24A   )


 NUCLEAR REPULSION ENERGY  202.03892472

 EXTRA SYMMETRY OF AOS IN SYMMETRY 1:   1 1 1 1 2 1 1 2 1 1   2 1 1 2 1 1 1 1 2 1   1 2 1 1 2 1 1 2 1 1   1 1 1 2 1 1 2 1 1 2
                                        1 1 2 1 1 2 1 1 1 1   2 1 1 2 1 1 2 1 1 2   1 1 1 1 2 1 1 2 1 1   2 1 1 2 1 1 1 2 1 1
                                        1 1 2 1 1 1 1 2 1 1   1 1 2 1

 Eigenvalues of metric

         1 0.105E-02 0.261E-02 0.434E-02 0.617E-02 0.135E-01 0.173E-01 0.184E-01 0.218E-01


 Contracted 2-electron integrals neglected if value below      1.0D-11
 AO integral compression algorithm  1   Integral accuracy      1.0D-11

     27.001 MB (compressed) written to integral file ( 29.6%)


 NUMBER OF SORTED TWO-ELECTRON INTEGRALS:    9970345.     BUFFER LENGTH:  32768
 NUMBER OF SEGMENTS:   1  SEGMENT LENGTH:    9970345      RECORD LENGTH: 524288

 Memory used in sort:      10.53 MW

 SORT1 READ    11311297. AND WROTE     5127369. INTEGRALS IN     15 RECORDS. CPU TIME:     0.07 SEC, REAL TIME:     0.09 SEC
 SORT2 READ     5127369. AND WROTE     9970345. INTEGRALS IN    103 RECORDS. CPU TIME:     0.10 SEC, REAL TIME:     0.13 SEC

 FILE SIZES:   FILE 1:    57.5 MBYTE,  FILE 4:    63.0 MBYTE,   TOTAL:    120.4 MBYTE

 OPERATOR DM      FOR CENTER  0  COORDINATES:    0.000000    0.000000    0.000000


 **********************************************************************************************************************************
 DATASETS  * FILE   NREC   LENGTH (MB)   RECORD NAMES
              1      19       50.85       500      610      700      900      950      970     1000      129      960     1100   
                                          VAR    BASINP    GEOM    SYMINP    ZMAT    AOBASIS   BASIS     P2S    ABASIS      S 
                                         1400     1410     1200     1210     1080     1600     1650     1300     1700   
                                           T        V       H0       H01     AOSYM     SMH    MOLCAS    ERIS     OPER   

 PROGRAMS   *        TOTAL       INT
 CPU TIMES  *         0.93      0.83
 REAL TIME  *         3.64 SEC
 DISK USED  *       115.34 MB
 **********************************************************************************************************************************


 Program * Restricted Hartree-Fock

 Orbital guess generated from atomic densities. Full valence occupancy:   33

 Initial occupancy:  22

 NELEC=   44   SYM=1   MS2= 0   THRE=1.0D-08   THRD=3.2D-06   THRG=3.2D-06  HFMA2=F  DIIS_START=2   DIIS_MAX=10   DIIS_INCORE=F

 Level shifts:    0.00 (CLOSED)    0.00 (OPEN)    0.30 (GAP_MIN)

 ITER           ETOT              DE          GRAD        DDIFF     DIIS  NEXP   TIME(IT)  TIME(TOT)  DIAG
   1     -551.26326106    -551.26326106     0.00D+00     0.13D+00     0     0       0.04      0.08    start
   2     -551.30706382      -0.04380276     0.47D-02     0.12D-01     1     0       0.04      0.12    diag
   3     -551.31913198      -0.01206816     0.26D-02     0.53D-02     2     0       0.05      0.17    diag
   4     -551.32088179      -0.00174980     0.69D-03     0.20D-02     3     0       0.04      0.21    diag
   5     -551.32102474      -0.00014296     0.16D-03     0.46D-03     4     0       0.04      0.25    diag
   6     -551.32106729      -0.00004254     0.77D-04     0.28D-03     5     0       0.05      0.30    diag
   7     -551.32107626      -0.00000897     0.32D-04     0.15D-03     6     0       0.04      0.34    diag
   8     -551.32107669      -0.00000044     0.80D-05     0.35D-04     7     0       0.05      0.39    fixocc
   9     -551.32107672      -0.00000002     0.21D-05     0.75D-05     8     0       0.04      0.43    diag
  10     -551.32107672      -0.00000000     0.65D-06     0.21D-05     9     0       0.04      0.47    diag/orth
  11     -551.32107672      -0.00000000     0.16D-06     0.38D-06     0     0       0.04      0.51    diag

 Final occupancy:  22

 !RHF STATE 1.1 Energy               -551.321076717735
  RHF One-electron energy           -1157.502850618213
  RHF Two-electron energy             404.142849180343
  RHF Kinetic energy                  551.205806522153
  RHF Nuclear energy                  202.038924720135
  RHF Virial quotient                  -1.000209123696

 !RHF STATE 1.1 Dipole moment           0.00000000    -0.00000000    -0.29654858
 Dipole moment /Debye                   0.00000000    -0.00000000    -0.75375132

 Orbital energies:

           1.1          2.1          3.1          4.1          5.1          6.1          7.1          8.1          9.1         10.1
    -91.977941   -11.265886   -11.265858   -11.242641   -11.241670    -8.981441    -6.663005    -6.661993    -6.660158    -1.168099

          11.1         12.1         13.1         14.1         15.1         16.1         17.1         18.1         19.1         20.1
     -0.983593    -0.982317    -0.766596    -0.747932    -0.694732    -0.574959    -0.549118    -0.522015    -0.518394    -0.470443

          21.1         22.1         23.1         24.1
     -0.343667    -0.326111     0.125297     0.192568


 HOMO     22.1    -0.326111 =      -8.8739eV
 LUMO     23.1     0.125297 =       3.4095eV
 LUMO-HOMO         0.451408 =      12.2834eV

 Orbitals saved in record  2100.2


 **********************************************************************************************************************************
 DATASETS  * FILE   NREC   LENGTH (MB)   RECORD NAMES
              1      19       50.85       500      610      700      900      950      970     1000      129      960     1100   
                                          VAR    BASINP    GEOM    SYMINP    ZMAT    AOBASIS   BASIS     P2S    ABASIS      S 
                                         1400     1410     1200     1210     1080     1600     1650     1300     1700   
                                           T        V       H0       H01     AOSYM     SMH    MOLCAS    ERIS     OPER   

              2       4        0.66       700     1000      520     2100   
                                         GEOM     BASIS   MCVARS     RHF  

 PROGRAMS   *        TOTAL    HF-SCF       INT
 CPU TIMES  *         1.45      0.52      0.83
 REAL TIME  *         4.80 SEC
 DISK USED  *       115.34 MB
 **********************************************************************************************************************************


 Program * Restricted Hartree-Fock

 Molecular orbitals read from record     2100.2  Type=RHF/CANONICAL  

 Initial occupancy:  22

 NELEC=   44   SYM=1   MS2= 0   THRE=1.0D-08   THRD=3.2D-06   THRG=3.2D-06  HFMA2=F  DIIS_START=2   DIIS_MAX=10   DIIS_INCORE=F

 Level shifts:    0.00 (CLOSED)    0.00 (OPEN)    0.30 (GAP_MIN)

 ITER           ETOT              DE          GRAD        DDIFF     DIIS  NEXP   TIME(IT)  TIME(TOT)  DIAG
   1     -551.32107672    -551.32107672     0.00D+00     0.13D+00     0     0       0.04      0.04    start
   2     -551.32107672      -0.00000000     0.64D-07     0.16D-06     1     0       0.04      0.08    diag

 Final occupancy:  22

 !RHF STATE 1.1 Energy               -551.321076717757
  RHF One-electron energy           -1157.502853572597
  RHF Two-electron energy             404.142852134705
  RHF Kinetic energy                  551.205809139568
  RHF Nuclear energy                  202.038924720135
  RHF Virial quotient                  -1.000209118947

 !RHF STATE 1.1 Dipole moment          -0.00000000    -0.00000000    -0.29653592
 Dipole moment /Debye                  -0.00000000    -0.00000000    -0.75371913

 Orbital energies:

           1.1          2.1          3.1          4.1          5.1          6.1          7.1          8.1          9.1         10.1
    -91.977941   -11.265885   -11.265857   -11.242643   -11.241672    -8.981441    -6.663005    -6.661993    -6.660158    -1.168099

          11.1         12.1         13.1         14.1         15.1         16.1         17.1         18.1         19.1         20.1
     -0.983594    -0.982318    -0.766596    -0.747932    -0.694732    -0.574959    -0.549119    -0.522015    -0.518394    -0.470443

          21.1         22.1         23.1         24.1
     -0.343667    -0.326111     0.125297     0.192568


 HOMO     22.1    -0.326111 =      -8.8739eV
 LUMO     23.1     0.125297 =       3.4095eV
 LUMO-HOMO         0.451409 =      12.2835eV

 Orbitals saved in record  2101.2


 **********************************************************************************************************************************
 DATASETS  * FILE   NREC   LENGTH (MB)   RECORD NAMES
              1      19       50.85       500      610      700      900      950      970     1000      129      960     1100   
                                          VAR    BASINP    GEOM    SYMINP    ZMAT    AOBASIS   BASIS     P2S    ABASIS      S 
                                         1400     1410     1200     1210     1080     1600     1650     1300     1700   
                                           T        V       H0       H01     AOSYM     SMH    MOLCAS    ERIS     OPER   

              2       5        0.99       700     1000      520     2100     2101   
                                         GEOM     BASIS   MCVARS     RHF      RHF  

 PROGRAMS   *        TOTAL    HF-SCF    HF-SCF       INT
 CPU TIMES  *         1.54      0.09      0.52      0.83
 REAL TIME  *         5.31 SEC
 DISK USED  *       115.34 MB
 **********************************************************************************************************************************


 PROGRAM * PAPT (Closed-shell)     Authors: C. Hampel, H.-J. Werner, 1991, P.J. Knowles, 2021


 Convergence thresholds:  THRVAR = 1.00D-08  THRDEN = 1.00D-06

 Number of core orbitals:           9 (   9 )
 Number of closed-shell orbitals:  13 (  13 )
 Number of external orbitals:      72 (  72 )

 Molecular orbitals read from record     2101.2  Type=RHF/CANONICAL  

 Number of N-1 electron functions:              13
 Number of N-2 electron functions:              91
 Number of singly external CSFs:               936
 Number of doubly external CSFs:            438516
 Total number of CSFs:                      439453

 Length of J-op  integral file:               0.00 MB
 Length of K-op  integral file:               0.67 MB

 Integral transformation finished. Total CPU:   0.13 sec, npass=  1  Memory used:   1.54 MW

 Reference energy:                   -551.32107672

                        CORR.ENERGY   TOTAL ENERGY   ENERGY CHANGE
 MP2:                   -0.66169961  -551.98277633    -0.66169961

 SCS-MP2 correlation energy:           -0.64203206   (PS=  1.200000  PT=  0.333333)
 SCS-MP2 total energy:               -551.96310878
 Iteration:   1     0.2486D+00
 Iteration:   2     0.1848D+01
 Iteration:   3     0.8413D-01
 Iteration:   4     0.2470D+00
 Iteration:   5     0.2618D-01
 Iteration:   6     0.4439D-01
 Iteration:   7     0.1097D-01
 Iteration:   8     0.5491D-02
 Iteration:   9     0.1726D-01
 Iteration:  10     0.1252D-02
 Iteration:  11     0.4673D-02
 Iteration:  12     0.3375D-03
 Iteration:  13     0.3483D-03
 Iteration:  14     0.2116D-03
 Iteration:  15     0.4945D-04
 PAPT operator written to  7000.1
 PAPT orbitals and eigenvalues written to  7000.2

 MP3(D):                -0.68988052  -552.01095723    -0.02818091



 RESULTS
 =======

  Reference energy                   -551.321076717757
  MP3 singlet pair energy              -0.446117498749
  MP3 triplet pair energy              -0.243763017386
  MP3 correlation energy               -0.689880516136

 !MP3 total energy                   -552.010957233893

 Timing summary (sec):

 STEP                 CPU(USER)    SYS     CPU(TOT)    WALL
 Transformation          0.14      0.01      0.15      0.37
 CCSD iterations         3.24      0.06      3.30      3.30

 Program statistics:

 Available memory in ccsd:               393215302
 Min. memory needed in ccsd:               1252725
 Max. memory used in ccsd:                 1610537
 Max. memory used in cckext:               1725727 ( 1 integral passes)



 **********************************************************************************************************************************
 DATASETS  * FILE   NREC   LENGTH (MB)   RECORD NAMES
              1      21       60.25       500      610      700      900      950      970     1000      129      960     1100   
                                          VAR    BASINP    GEOM    SYMINP    ZMAT    AOBASIS   BASIS     P2S    ABASIS      S 
                                         1400     1410     1200     1210     1080     1600     1650     1300     1700     1380   
                                           T        V       H0       H01     AOSYM     SMH    MOLCAS    ERIS     OPER     JKOP   
                                         7000   
                                        PAPT AO    

              2       6        1.30       700     1000      520     2100     2101     7000   
                                         GEOM     BASIS   MCVARS     RHF      RHF     PAPT   

 PROGRAMS   *        TOTAL      PAPT    HF-SCF    HF-SCF       INT
 CPU TIMES  *         3.28      1.73      0.09      0.52      0.83
 REAL TIME  *         9.19 SEC
 DISK USED  *       115.34 MB
 **********************************************************************************************************************************


 PROGRAM * MP4 (Closed-shell)     Authors: C. Hampel, H.-J. Werner, 1991, M. Deegan, P.J. Knowles, 1992


 Convergence thresholds:  THRVAR = 1.00D-08  THRDEN = 1.00D-06

 MP4(T)     terms to be evaluated (factor= 0.000)


 Number of core orbitals:           9 (   9 )
 Number of closed-shell orbitals:  13 (  13 )
 Number of external orbitals:      72 (  72 )

 Molecular orbitals read from record     7000.2  Type=PAPT/CANONICAL (state 1.1)

 Number of N-1 electron functions:              13
 Number of N-2 electron functions:              91
 Number of singly external CSFs:               936
 Number of doubly external CSFs:            438516
 Total number of CSFs:                      439453

 Length of J-op  integral file:               0.00 MB
 Length of K-op  integral file:               0.67 MB

 Memory could be reduced to 7.02 Mwords without degradation in triples

 Integral transformation finished. Total CPU:   0.25 sec, npass=  1  Memory used:   7.41 MW
 Orbital energies read from record       7000.2  Type=PAPT/CANONICAL (state 1.1)

 Reference energy:                   -551.32107672

                        CORR.ENERGY   TOTAL ENERGY   ENERGY CHANGE
 MP2:                   -0.69706844  -552.01814516    -0.69706844

 SCS-MP2 correlation energy:           -0.68119019   (PS=  1.200000  PT=  0.333333)
 SCS-MP2 total energy:               -552.00226691

 MP3(D):                -0.69743575  -552.01851247    -0.00036731
 MP4(DQ):               -0.68913280  -552.01020952     0.00830295
 MP4(SDQ):              -0.69505692  -552.01613364    -0.00592412

 Norm of t1 vector:      0.07167764      S-energy:    -0.00592412      T1 diagnostic:  0.00993990

 Largest off-diagonal element in interal  block of Fock matrix:  0.17D+00
 Largest off-diagonal element in external block of Fock matrix:  0.20D+00


 Total CPU time for triples:      4.63 sec


 RESULTS
 =======

  Reference energy                   -551.321076717757
  MP4(SDQ) singlet pair energy         -0.447159895025
  MP4(SDQ) triplet pair energy         -0.241972904563
  MP4(SDQ) correlation energy          -0.695056917351

  Triples contribution                 -0.034705739644
  Total correlation energy             -0.729762656995

  MP4(SDQ) total energy              -552.016133635108
 !MP4(SDTQ) total energy             -552.050839374752

 Timing summary (sec):

 STEP                 CPU(USER)    SYS     CPU(TOT)    WALL
 Transformation          0.35      0.03      0.38      0.57
 CCSD iterations         4.43      0.04      4.47      1.45
 Triples                 4.63      0.31      4.94      5.24

 Program statistics:

 Available memory in ccsd:               393215302
 Min. memory needed in ccsd:               1252725
 Max. memory used in ccsd:                 1610537
 Max. memory used in cckext:               1725727 ( 1 integral passes)



 **********************************************************************************************************************************
 DATASETS  * FILE   NREC   LENGTH (MB)   RECORD NAMES
              1      22       79.02       500      610      700      900      950      970     1000      129      960     1100   
                                          VAR    BASINP    GEOM    SYMINP    ZMAT    AOBASIS   BASIS     P2S    ABASIS      S 
                                         1400     1410     1200     1210     1080     1600     1650     1300     1700     1380   
                                           T        V       H0       H01     AOSYM     SMH    MOLCAS    ERIS     OPER     JKOP   
                                         7000     1380(1)
                                        PAPT AO   JKOP   

              2       6        1.30       700     1000      520     2100     2101     7000   
                                         GEOM     BASIS   MCVARS     RHF      RHF     PAPT   

 PROGRAMS   *        TOTAL       MP4      PAPT    HF-SCF    HF-SCF       INT
 CPU TIMES  *         9.31      6.03      1.73      0.09      0.52      0.83
 REAL TIME  *        16.81 SEC
 DISK USED  *       132.11 MB
 **********************************************************************************************************************************

 Dump information in style XML to xml output                                                                      

 Orbitals will not be exported.

 **********************************************************************************************************************************

 MP4/cc-pVDZ energy=   -552.050839374752

             MP4            PAPT          HF-SCF          HF-SCF
   -552.05083937   -552.01095723   -551.32107672   -551.32107672
 **********************************************************************************************************************************
 Molpro calculation terminated
