
 Working directory              : /var/folders/2v/xbgp75_9785319ghcgb4zr4r0000gp/T//molpro.n8kBxkVDUA/
 Global scratch directory       : /var/folders/2v/xbgp75_9785319ghcgb4zr4r0000gp/T//molpro.n8kBxkVDUA/
 Wavefunction directory         : /Users/sacpjk/wfu/
 Main file repository           : /var/folders/2v/xbgp75_9785319ghcgb4zr4r0000gp/T//molpro.n8kBxkVDUA/

 id        : peterk

 Nodes                        nprocs
 Cardiff-University-G34YLXT77Y    1
 GA implementation: MPI file
 GA implementation (serial work in mppx): MPI file

 Using customized tuning parameters: mindgm=1; mindgv=20; mindgc=4; mindgr=1; noblas=0; minvec=7
 default implementation of scratch files=df  


 Variables initialized (1032), CPU time= 0.01 sec
 
 symmetry,nosym
 
 
 geometry={
            6
     F          1.82355879      0.00051927      0.00010874
     C          0.00014416     -0.00008973     -0.00018227
     H          0.00006416     -0.30488877      1.02506923
     H          0.00028716      1.04017819     -0.24893240
     H         -0.00009484     -0.73625925     -0.77617604
     F         -1.82395944      0.00054027      0.00011274
 }
 basis=cc-pVTZ
 
 charge=-1
 
 hf
 
 
 
 {put,xml;noorbitals,nobasis}
 Commands initialized (841), CPU time= 0.00 sec, 704 directives.
 Default parameters read. Elapsed time= 0.12 sec

 Checking input...
 Passed
1


                                         ***  PROGRAM SYSTEM MOLPRO  ***
                                       Copyright, TTI GmbH Stuttgart, 2015
                                    Version 2023.1 linked Tue Jun  6 09:54:11 2023


 **********************************************************************************************************************************
 LABEL *                                                                                                                                                                 
  64 bit serial version                                                                  DATE: 09-Jun-23          TIME: 15:32:27  
 **********************************************************************************************************************************

 SHA1:             8ebb0dd001088a5c915591db1a321413035db0b1
 **********************************************************************************************************************************

 Memory per process:       805 MW
 Total memory per node:   1074 MW
 Total GA space:           268 MW

 GA preallocation disabled
 GA check enabled

 Variable memory set to 805.3 MW

 ZSYMEL=NOSYM


 Geometry recognized as XYZ

 SETTING BASIS          =    CC-PVTZ
 SETTING CHARGE         =        -1.00000000                                  


 Recomputing integrals since basis changed


 Using spherical harmonics

 Library entry F      S cc-pVTZ              selected for orbital group  1
 Library entry F      P cc-pVTZ              selected for orbital group  1
 Library entry F      D cc-pVTZ              selected for orbital group  1
 Library entry F      F cc-pVTZ              selected for orbital group  1
 Library entry C      S cc-pVTZ              selected for orbital group  2
 Library entry C      P cc-pVTZ              selected for orbital group  2
 Library entry C      D cc-pVTZ              selected for orbital group  2
 Library entry C      F cc-pVTZ              selected for orbital group  2
 Library entry H      S cc-pVTZ              selected for orbital group  3
 Library entry H      P cc-pVTZ              selected for orbital group  3
 Library entry H      D cc-pVTZ              selected for orbital group  3


 PROGRAM * SEWARD (Integral evaluation for generally contracted gaussian basis sets)     Author: Roland Lindh, 1990

 Geometry written to block  1 of record 700


 Point group  C1  



 ATOMIC COORDINATES

 NR  ATOM    CHARGE       X              Y              Z

   1  F       9.00    3.446026685    0.000981278    0.000205489
   2  C       6.00    0.000272423   -0.000169565   -0.000344440
   3  H       1.00    0.000121245   -0.576156274    1.937100103
   4  H       1.00    0.000542654    1.965651900   -0.470414060
   5  H       1.00   -0.000179222   -1.391328339   -1.466760140
   6  F       9.00   -3.446783804    0.001020962    0.000213048

 Bond lengths in Bohr (Angstrom)

 1-2  3.445754498  2-3  2.021250126  2-4  2.021242082  2-5  2.021310947  2-6  3.447056478
     ( 1.823414755)     ( 1.069599504)     ( 1.069595247)     ( 1.069631689)     ( 1.824103733)

 Bond angles

  1-2-3   90.00097349   1-2-4   89.97585498   1-2-5   90.03260652   1-2-6  179.95694098

  3-2-4  120.00490672   3-2-5  119.95179677   3-2-6   89.99247148   4-2-5  120.04329562

  4-2-6   89.99056926   5-2-6   90.00753967

 NUCLEAR CHARGE:                   27
 NUMBER OF PRIMITIVE AOS:         192
 NUMBER OF SYMMETRY AOS:          174
 NUMBER OF CONTRACTIONS:          132   (  132A   )
 NUMBER OF INNER CORE ORBITALS:     0   (    0A   )
 NUMBER OF OUTER CORE ORBITALS:     3   (    3A   )
 NUMBER OF VALENCE ORBITALS:       15   (   15A   )


 NUCLEAR REPULSION ENERGY   66.36612659


 Eigenvalues of metric

         1 0.120E-02 0.182E-02 0.183E-02 0.245E-02 0.764E-02 0.858E-02 0.987E-02 0.988E-02


 Contracted 2-electron integrals neglected if value below      1.0D-11
 AO integral compression algorithm  1   Integral accuracy      1.0D-11

     145.228 MB (compressed) written to integral file ( 41.3%)


 NUMBER OF SORTED TWO-ELECTRON INTEGRALS:   38531031.     BUFFER LENGTH:  32768
 NUMBER OF SEGMENTS:   3  SEGMENT LENGTH:   15998004      RECORD LENGTH: 524288

 Memory used in sort:      16.56 MW

 SORT1 READ    43978959. AND WROTE    33100263. INTEGRALS IN     96 RECORDS. CPU TIME:     0.28 SEC, REAL TIME:     0.43 SEC
 SORT2 READ    33100263. AND WROTE    38531031. INTEGRALS IN    554 RECORDS. CPU TIME:     0.33 SEC, REAL TIME:     0.42 SEC

 FILE SIZES:   FILE 1:   176.0 MBYTE,  FILE 4:   402.7 MBYTE,   TOTAL:    578.7 MBYTE

 OPERATOR DM      FOR CENTER  0  COORDINATES:    0.000000    0.000000    0.000000


 **********************************************************************************************************************************
 DATASETS  * FILE   NREC   LENGTH (MB)   RECORD NAMES
              1      19      148.92       500      610      700      900      950      970     1000      129      960     1100   
                                          VAR    BASINP    GEOM    SYMINP    ZMAT    AOBASIS   BASIS     P2S    ABASIS      S 
                                         1400     1410     1200     1210     1080     1600     1650     1300     1700   
                                           T        V       H0       H01     AOSYM     SMH    MOLCAS    ERIS     OPER   

 PROGRAMS   *        TOTAL       INT
 CPU TIMES  *         1.69      1.61
 REAL TIME  *         2.50 SEC
 DISK USED  *       552.30 MB
 **********************************************************************************************************************************


 Program * Restricted Hartree-Fock

 Orbital guess generated from atomic densities. Full valence occupancy:   18

 Initial occupancy:  14

 NELEC=   28   SYM=1   MS2= 0   THRE=1.0D-08   THRD=3.2D-06   THRG=3.2D-06  HFMA2=F  DIIS_START=2   DIIS_MAX=10   DIIS_INCORE=F

 Level shifts:    0.00 (CLOSED)    0.00 (OPEN)    0.30 (GAP_MIN)

 ITER           ETOT              DE          GRAD        DDIFF     DIIS  NEXP   TIME(IT)  TIME(TOT)  DIAG
   1     -238.41948214    -238.41948214     0.00D+00     0.78D-01     0     0       0.18      0.36    start
   2     -238.47507795      -0.05559581     0.92D-02     0.12D-01     1     0       0.19      0.55    diag
   3     -238.51602639      -0.04094844     0.69D-02     0.46D-02     2     0       0.19      0.74    diag
   4     -238.51655487      -0.00052848     0.39D-03     0.74D-03     3     0       0.19      0.93    diag
   5     -238.51659458      -0.00003971     0.11D-03     0.17D-03     4     0       0.18      1.11    diag
   6     -238.51659987      -0.00000529     0.41D-04     0.77D-04     5     0       0.19      1.30    diag
   7     -238.51660042      -0.00000055     0.11D-04     0.25D-04     6     0       0.18      1.48    diag
   8     -238.51660044      -0.00000002     0.21D-05     0.56D-05     7     0       0.19      1.67    fixocc
   9     -238.51660044      -0.00000000     0.39D-06     0.11D-05     8     0       0.19      1.86    diag
  10     -238.51660044      -0.00000000     0.90D-07     0.15D-06     0     0       0.18      2.04    diag/orth

 Final occupancy:  14

 !RHF STATE 1.1 Energy               -238.516600437603
  RHF One-electron energy            -472.581363177641
  RHF Two-electron energy             167.698636145933
  RHF Kinetic energy                  238.593235138022
  RHF Nuclear energy                   66.366126594105
  RHF Virial quotient                  -0.999678806063

 !RHF STATE 1.1 Dipole moment           0.00211933    -0.00149511    -0.00033234
 Dipole moment /Debye                   0.00538680    -0.00380020    -0.00084473

 Orbital energies:

           1.1          2.1          3.1          4.1          5.1          6.1          7.1          8.1          9.1         10.1
    -25.916939   -25.916711   -11.109276    -1.195444    -1.190508    -0.728990    -0.426803    -0.426649    -0.339004    -0.292629

          11.1         12.1         13.1         14.1         15.1         16.1
     -0.292624    -0.264944    -0.264923    -0.226596     0.327185     0.388694


 HOMO     14.1    -0.226596 =      -6.1660eV
 LUMO     15.1     0.327185 =       8.9032eV
 LUMO-HOMO         0.553781 =      15.0691eV

 Orbitals saved in record  2100.2


 **********************************************************************************************************************************
 DATASETS  * FILE   NREC   LENGTH (MB)   RECORD NAMES
              1      19      148.92       500      610      700      900      950      970     1000      129      960     1100   
                                          VAR    BASINP    GEOM    SYMINP    ZMAT    AOBASIS   BASIS     P2S    ABASIS      S 
                                         1400     1410     1200     1210     1080     1600     1650     1300     1700   
                                           T        V       H0       H01     AOSYM     SMH    MOLCAS    ERIS     OPER   

              2       4        0.75       700     1000      520     2100   
                                         GEOM     BASIS   MCVARS     RHF  

 PROGRAMS   *        TOTAL    HF-SCF       INT
 CPU TIMES  *         3.73      2.04      1.61
 REAL TIME  *         5.25 SEC
 DISK USED  *       552.30 MB
 **********************************************************************************************************************************

 Dump information in style XML to xml output                                                                      

 Orbitals will not be exported.

 **********************************************************************************************************************************

 HF/cc-pVTZ energy=   -238.516600437603

          HF-SCF
   -238.51660044
 **********************************************************************************************************************************
 Molpro calculation terminated
