
 Working directory              : /var/folders/2v/xbgp75_9785319ghcgb4zr4r0000gp/T//molpro.XQNR0MuPWU/
 Global scratch directory       : /var/folders/2v/xbgp75_9785319ghcgb4zr4r0000gp/T//molpro.XQNR0MuPWU/
 Wavefunction directory         : /Users/sacpjk/wfu/
 Main file repository           : /var/folders/2v/xbgp75_9785319ghcgb4zr4r0000gp/T//molpro.XQNR0MuPWU/

 id        : peterk

 Nodes                        nprocs
 Cardiff-University-G34YLXT77Y    1
 GA implementation: MPI file
 GA implementation (serial work in mppx): MPI file

 Using customized tuning parameters: mindgm=1; mindgv=20; mindgc=4; mindgr=1; noblas=0; minvec=7
 default implementation of scratch files=df  


 Variables initialized (1032), CPU time= 0.01 sec
 
 symmetry,nosym
 
 
 geometry={
 6
  o         -1.692967873638   -0.055792648846    0.005566286146
  h         -2.012965043629    0.847043389039   -0.015864689617
  h         -0.733250757415    0.042389103344    0.000843023067
  o          1.230099247645    0.026984399092   -0.003755499652
  h          1.606720862419   -0.411395666637    0.762368881989
  h          1.602363564566   -0.449228575938   -0.749158001985
 }
 basis=aug-cc-pVTZ
 
 
 
 hf; ccsd; counterpoise
 
 
 
 {put,xml;noorbitals,nobasis}
 Commands initialized (841), CPU time= 0.00 sec, 704 directives.
 Default parameters read. Elapsed time= 1.03 sec

 Checking input...
 Passed
1


                                         ***  PROGRAM SYSTEM MOLPRO  ***
                                       Copyright, TTI GmbH Stuttgart, 2015
                                    Version 2023.1 linked Tue Jun  6 09:54:11 2023


 **********************************************************************************************************************************
 LABEL *                                                                                                                                                                 
  64 bit serial version                                                                  DATE: 08-Jun-23          TIME: 14:55:23  
 **********************************************************************************************************************************

 SHA1:             8ebb0dd001088a5c915591db1a321413035db0b1
 **********************************************************************************************************************************

 Memory per process:       805 MW
 Total memory per node:   1074 MW
 Total GA space:           268 MW

 GA preallocation disabled
 GA check enabled

 Variable memory set to 805.3 MW

 ZSYMEL=NOSYM


 Geometry recognized as XYZ

 SETTING BASIS          =    AUG-CC-PVTZ


 Recomputing integrals since basis changed


 Using spherical harmonics

 Library entry O      S aug-cc-pVTZ          selected for orbital group  1
 Library entry O      P aug-cc-pVTZ          selected for orbital group  1
 Library entry O      D aug-cc-pVTZ          selected for orbital group  1
 Library entry O      F aug-cc-pVTZ          selected for orbital group  1
 Library entry H      S aug-cc-pVTZ          selected for orbital group  2
 Library entry H      P aug-cc-pVTZ          selected for orbital group  2
 Library entry H      D aug-cc-pVTZ          selected for orbital group  2


 PROGRAM * SEWARD (Integral evaluation for generally contracted gaussian basis sets)     Author: Roland Lindh, 1990

 Geometry written to block  1 of record 700


 Point group  C1  



 ATOMIC COORDINATES

 NR  ATOM    CHARGE       X              Y              Z

   1  O       8.00   -3.199245619   -0.105432826    0.010518756
   2  H       1.00   -3.803952631    1.600680021   -0.029979918
   3  H       1.00   -1.385643112    0.080103796    0.001593083
   4  O       8.00    2.324550684    0.050993124   -0.007096866
   5  H       1.00    3.036262389   -0.777425139    1.440668393
   6  H       1.00    3.028028289   -0.848918976   -1.415703448

 Bond lengths in Bohr (Angstrom)

 1-2  1.810561173  1-3  1.823090113  4-5  1.813514437  4-6  1.813531095
     ( 0.958107711)     ( 0.964737741)     ( 0.959670512)     ( 0.959679327)

 Bond angles

  2-1-3  103.66482512   5-4-6  103.95523304

 NUCLEAR CHARGE:                   20
 NUMBER OF PRIMITIVE AOS:         242
 NUMBER OF SYMMETRY AOS:          216
 NUMBER OF CONTRACTIONS:          184   (  184A   )
 NUMBER OF INNER CORE ORBITALS:     0   (    0A   )
 NUMBER OF OUTER CORE ORBITALS:     2   (    2A   )
 NUMBER OF VALENCE ORBITALS:       12   (   12A   )


 NUCLEAR REPULSION ENERGY   36.51369360


 Eigenvalues of metric

         1 0.226E-03 0.274E-03 0.344E-03 0.349E-03 0.624E-03 0.102E-02 0.125E-02 0.144E-02


 Contracted 2-electron integrals neglected if value below      1.0D-11
 AO integral compression algorithm  1   Integral accuracy      1.0D-11

     605.553 MB (compressed) written to integral file ( 44.4%)


 NUMBER OF SORTED TWO-ELECTRON INTEGRALS:  144848710.     BUFFER LENGTH:  32768
 NUMBER OF SEGMENTS:  10  SEGMENT LENGTH:   15999503      RECORD LENGTH: 524288

 Memory used in sort:      16.56 MW

 SORT1 READ   170587420. AND WROTE   133430723. INTEGRALS IN    388 RECORDS. CPU TIME:     1.19 SEC, REAL TIME:     2.13 SEC
 SORT2 READ   133430723. AND WROTE   144848710. INTEGRALS IN   2310 RECORDS. CPU TIME:     1.05 SEC, REAL TIME:     3.28 SEC

 FILE SIZES:   FILE 1:   636.9 MBYTE,  FILE 4:  1627.5 MBYTE,   TOTAL:   2264.3 MBYTE

 OPERATOR DM      FOR CENTER  0  COORDINATES:    0.000000    0.000000    0.000000


 **********************************************************************************************************************************
 DATASETS  * FILE   NREC   LENGTH (MB)   RECORD NAMES
              1      19      525.83       500      610      700      900      950      970     1000      129      960     1100   
                                          VAR    BASINP    GEOM    SYMINP    ZMAT    AOBASIS   BASIS     P2S    ABASIS      S 
                                         1400     1410     1200     1210     1080     1600     1650     1300     1700   
                                           T        V       H0       H01     AOSYM     SMH    MOLCAS    ERIS     OPER   

 PROGRAMS   *        TOTAL       INT
 CPU TIMES  *         5.39      5.30
 REAL TIME  *        14.96 SEC
 DISK USED  *         2.11 GB
 **********************************************************************************************************************************


 Program * Restricted Hartree-Fock

 Orbital guess generated from atomic densities. Full valence occupancy:   14

 Initial occupancy:  10

 NELEC=   20   SYM=1   MS2= 0   THRE=1.0D-08   THRD=3.2D-06   THRG=3.2D-06  HFMA2=F  DIIS_START=2   DIIS_MAX=10   DIIS_INCORE=F

 Level shifts:    0.00 (CLOSED)    0.00 (OPEN)    0.30 (GAP_MIN)

 ITER           ETOT              DE          GRAD        DDIFF     DIIS  NEXP   TIME(IT)  TIME(TOT)  DIAG
   1     -152.05758390    -152.05758390     0.00D+00     0.47D-01     0     0       0.74      1.39    start
   2     -152.10797249      -0.05038859     0.70D-02     0.76D-02     1     0       0.77      2.16    diag
   3     -152.12610908      -0.01813660     0.42D-02     0.26D-02     2     0       0.75      2.91    diag
   4     -152.12648414      -0.00037506     0.42D-03     0.37D-03     3     0       0.74      3.65    diag
   5     -152.12651726      -0.00003312     0.11D-03     0.11D-03     4     0       0.73      4.38    diag
   6     -152.12651932      -0.00000205     0.24D-04     0.28D-04     5     0       0.76      5.14    diag
   7     -152.12651952      -0.00000021     0.11D-04     0.87D-05     6     0       0.79      5.93    diag
   8     -152.12651955      -0.00000003     0.26D-05     0.37D-05     7     0       0.72      6.65    fixocc
   9     -152.12651955      -0.00000000     0.42D-06     0.58D-06     8     0       0.73      7.38    diag
  10     -152.12651955      -0.00000000     0.70D-07     0.70D-07     0     0       0.77      8.15    diag/orth

 Final occupancy:  10

 !RHF STATE 1.1 Energy               -152.126519548390
  RHF One-electron energy            -282.375943371509
  RHF Two-electron energy              93.735730220893
  RHF Kinetic energy                  151.920168695141
  RHF Nuclear energy                   36.513693602226
  RHF Virial quotient                  -1.001358284782

 !RHF STATE 1.1 Dipole moment           1.13789967     0.03666677    -0.00362352
 Dipole moment /Debye                   2.89225246     0.09319763    -0.00921008

 Orbital energies:

           1.1          2.1          3.1          4.1          5.1          6.1          7.1          8.1          9.1         10.1
    -20.592344   -20.535862    -1.380073    -1.322565    -0.740747    -0.692471    -0.615546    -0.559347    -0.532107    -0.481176

          11.1         12.1
      0.022520     0.045332


 HOMO     10.1    -0.481176 =     -13.0935eV
 LUMO     11.1     0.022520 =       0.6128eV
 LUMO-HOMO         0.503696 =      13.7063eV

 Orbitals saved in record  2100.2


 **********************************************************************************************************************************
 DATASETS  * FILE   NREC   LENGTH (MB)   RECORD NAMES
              1      19      525.83       500      610      700      900      950      970     1000      129      960     1100   
                                          VAR    BASINP    GEOM    SYMINP    ZMAT    AOBASIS   BASIS     P2S    ABASIS      S 
                                         1400     1410     1200     1210     1080     1600     1650     1300     1700   
                                           T        V       H0       H01     AOSYM     SMH    MOLCAS    ERIS     OPER   

              2       4        1.00       700     1000      520     2100   
                                         GEOM     BASIS   MCVARS     RHF  

 PROGRAMS   *        TOTAL    HF-SCF       INT
 CPU TIMES  *        13.55      8.16      5.30
 REAL TIME  *        27.36 SEC
 DISK USED  *         2.11 GB
 **********************************************************************************************************************************


 PROGRAM * CCSD (Closed-shell coupled cluster)     Authors: C. Hampel, H.-J. Werner, 1991, M. Deegan, P.J. Knowles, 1992


 Convergence thresholds:  THRVAR = 1.00D-08  THRDEN = 1.00D-06

 Number of core orbitals:           2 (   2 )
 Number of closed-shell orbitals:   8 (   8 )
 Number of external orbitals:     174 ( 174 )

 Molecular orbitals read from record     2100.2  Type=RHF/CANONICAL  

 Number of N-1 electron functions:               8
 Number of N-2 electron functions:              36
 Number of singly external CSFs:              1392
 Number of doubly external CSFs:            969528
 Total number of CSFs:                      970921

 Length of J-op  integral file:               0.00 MB
 Length of K-op  integral file:               2.39 MB
 Length of 3-ext integral record:             0.00 MB

 Integral transformation finished. Total CPU:   2.66 sec, npass=  1  Memory used:  30.97 MW

 Reference energy:                   -152.12651955

 MP2 singlet pair energy:              -0.34209964
 MP2 triplet pair energy:              -0.19755147
 MP2 correlation energy:               -0.53965111
 MP2 total energy:                   -152.66617066

 SCS-MP2 correlation energy:           -0.53344048   (PS=  1.200000  PT=  0.333333)
 SCS-MP2 total energy:               -152.65996003

 ITER.      SQ.NORM     CORR.ENERGY   TOTAL ENERGY   ENERGY CHANGE        DEN1      VAR(S)    VAR(P)  DIIS     TIME  TIME/IT
   1      1.12597284    -0.54795722  -152.67447677    -0.00830611     0.00277130  0.18D-02  0.19D-02  1  1    18.72     3.15
   2      1.13329676    -0.54854365  -152.67506320    -0.00058642    -0.00955563  0.22D-04  0.23D-03  2  2    21.06     3.09
   3      1.13596022    -0.54868020  -152.67519975    -0.00013655    -0.00172641  0.23D-04  0.10D-04  3  3    23.42     3.16
   4      1.13684830    -0.54866467  -152.67518422     0.00001553    -0.00041338  0.11D-05  0.12D-05  4  4    25.78     3.21
   5      1.13705039    -0.54865859  -152.67517814     0.00000608    -0.00006142  0.32D-06  0.77D-07  5  5    28.06     3.19
   6      1.13712042    -0.54865204  -152.67517159     0.00000656    -0.00001375  0.26D-07  0.62D-08  6  6    30.43     3.24
   7      1.13713379    -0.54865149  -152.67517104     0.00000055    -0.00000139  0.21D-08  0.12D-08  6  1    32.74     3.22
   8      1.13713581    -0.54865147  -152.67517101     0.00000002     0.00000072  0.42D-09  0.16D-09  6  3    34.93     3.20

 Norm of t1 vector:      0.05772556      S-energy:    -0.00000050      T1 diagnostic:  0.01020453
                                                                       D1 diagnostic:  0.02230402
                                                                       D2 diagnostic:  0.12766735 (internal)


 RESULTS
 =======

  Reference energy                   -152.126519548390
  CCSD singlet pair energy             -0.372841037769
  CCSD triplet pair energy             -0.175809928995
  CCSD correlation energy              -0.548651465052

 !CCSD total energy                  -152.675171013442

 Timing summary (sec):

 STEP                 CPU(USER)    SYS     CPU(TOT)    WALL
 Transformation          2.70      0.30      3.00      4.21
 CCSD iterations        32.26      1.45     33.71     25.92

 Program statistics:

 Available memory in ccsd:               805306102
 Min. memory needed in ccsd:               2900485
 Max. memory used in ccsd:                 3720965
 Max. memory used in cckext:               2715543 ( 8 integral passes)



 **********************************************************************************************************************************
 DATASETS  * FILE   NREC   LENGTH (MB)   RECORD NAMES
              1      20      702.02       500      610      700      900      950      970     1000      129      960     1100   
                                          VAR    BASINP    GEOM    SYMINP    ZMAT    AOBASIS   BASIS     P2S    ABASIS      S 
                                         1400     1410     1200     1210     1080     1600     1650     1300     1700     1380   
                                           T        V       H0       H01     AOSYM     SMH    MOLCAS    ERIS     OPER     JKOP   

              2       4        1.00       700     1000      520     2100   
                                         GEOM     BASIS   MCVARS     RHF  

 PROGRAMS   *        TOTAL      CCSD    HF-SCF       INT
 CPU TIMES  *        34.84     21.28      8.16      5.30
 REAL TIME  *        58.20 SEC
 DISK USED  *         2.11 GB
 **********************************************************************************************************************************

 Counterpoise: absolute minimum monomer separation=    -1.000 Bragg radius scale factor=     1.400 Number of monomers= 2

 Counterpoise  CCSD  energy

 Running default procedure: HF-SCF000  CCSD

 Assignment of unique atoms to monomers:
1-6     1     1     1     2     2     2

 *** Long output written to logfile /Users/sacpjk/current/PAPT/S66/9d185d99/01.molpro/run/1.molpro/1.log ***


 Description                       ENERGY          ENERGR          ENERGC
 Raw                        -152.67517101   -152.12651955   -152.67517101
 Dimer basis, monomer 1      -76.33391651    -76.06026063    -76.33391651
 Dimer basis, monomer 2      -76.33405750    -76.06047083    -76.33405750
 Monomer basis, monomer 1    -76.33362530    -76.06021624    -76.33362530
 Monomer basis, monomer 2    -76.33366407    -76.06039913    -76.33366407
 Counterpoise correction       0.00068464      0.00011609      0.00068464
 Counterpoise corrected     -152.67448637   -152.12640346   -152.67448637


 **********************************************************************************************************************************
 DATASETS  * FILE   NREC   LENGTH (MB)   RECORD NAMES
              1      18       29.89       500      610      700      900      950      970     1000      129      960     1100   
                                          VAR    BASINP    GEOM    SYMINP    ZMAT    AOBASIS   BASIS     P2S    ABASIS      S 
                                         1400     1410     1200     1210     1080     1600     1650     1700   
                                           T        V       H0       H01     AOSYM     SMH    MOLCAS    OPER   

              2       9        3.02       700     1000      520     2100     2101      701     1001     2102      702   
                                         GEOM     BASIS   MCVARS     RHF      RHF     GEOM     BASIS     RHF     GEOM   

 PROGRAMS   *        TOTALCOUNTERPOI    HF-SCF       INT      CCSD    HF-SCF       INT      CCSD    HF-SCF       INT      CCSD
 CPU TIMES  *        71.20      0.80      0.39      0.38      0.85      0.38      0.41      9.47      7.18      0.02      9.18
 REAL TIME  *       115.83 SEC
 DISK USED  *         2.11 GB
 **********************************************************************************************************************************

 Dump information in style XML to xml output                                                                      

 Orbitals will not be exported.

 **********************************************************************************************************************************

 CCSD/aug-cc-pVTZ energy=   -152.674486370765

            CCSD          HF-SCF            CCSD          HF-SCF            CCSD          HF-SCF            CCSD          HF-SCF
    -76.33366407    -76.06039913    -76.33362530    -76.06021624    -76.33405750    -76.06047083    -76.33391651    -76.06026063
 **********************************************************************************************************************************
 Molpro calculation terminated
