
 Working directory              : /var/folders/2v/xbgp75_9785319ghcgb4zr4r0000gp/T//molpro.r4dNPQKf9q/
 Global scratch directory       : /var/folders/2v/xbgp75_9785319ghcgb4zr4r0000gp/T//molpro.r4dNPQKf9q/
 Wavefunction directory         : /Users/sacpjk/wfu/
 Main file repository           : /var/folders/2v/xbgp75_9785319ghcgb4zr4r0000gp/T//molpro.r4dNPQKf9q/

 id        : peterk

 Nodes                        nprocs
 Cardiff-University-G34YLXT77Y    1
 GA implementation: MPI file
 GA implementation (serial work in mppx): MPI file

 Using customized tuning parameters: mindgm=1; mindgv=20; mindgc=4; mindgr=1; noblas=0; minvec=7
 default implementation of scratch files=df  


 Variables initialized (1032), CPU time= 0.00 sec
 
 core,small
 angstrom
 
 geometry={
 C;O,C,1.20430342;H1,C,1.10077162,O,121.78046616;H2,C,1.10077162,O,121.78046616,H1,180
 }
 basis=cc-pCVQZ
 
 
 
 hf; mp4
 
 
 
 {put,xml;noorbitals,nobasis}
 Commands initialized (841), CPU time= 0.01 sec, 704 directives.
 Default parameters read. Elapsed time= 3.38 sec

 Checking input...
 Passed
1


                                         ***  PROGRAM SYSTEM MOLPRO  ***
                                       Copyright, TTI GmbH Stuttgart, 2015
                                    Version 2023.1 linked Tue Jun  6 09:54:11 2023


 **********************************************************************************************************************************
 LABEL *                                                                                                                                                                 
  64 bit serial version                                                                  DATE: 12-Jun-23          TIME: 10:43:38  
 **********************************************************************************************************************************

 SHA1:             8ebb0dd001088a5c915591db1a321413035db0b1
 **********************************************************************************************************************************

 Memory per process:       393 MW
 Total memory per node:    524 MW
 Total GA space:           131 MW

 GA preallocation disabled
 GA check enabled

 Variable memory set to 393.2 MW

 ZUNIT=ANG

 SETTING BASIS          =    CC-PCVQZ


 Recomputing integrals since basis changed


 Using spherical harmonics

 Library entry C      S cc-pCVQZ             selected for orbital group  1
 Library entry C      P cc-pCVQZ             selected for orbital group  1
 Library entry C      D cc-pCVQZ             selected for orbital group  1
 Library entry C      F cc-pCVQZ             selected for orbital group  1
 Library entry C      G cc-pCVQZ             selected for orbital group  1
 Library entry O      S cc-pCVQZ             selected for orbital group  2
 Library entry O      P cc-pCVQZ             selected for orbital group  2
 Library entry O      D cc-pCVQZ             selected for orbital group  2
 Library entry O      F cc-pCVQZ             selected for orbital group  2
 Library entry O      G cc-pCVQZ             selected for orbital group  2
 Library entry H      S cc-pVQZ              selected for orbital group  3
 Library entry H      P cc-pVQZ              selected for orbital group  3
 Library entry H      D cc-pVQZ              selected for orbital group  3
 Library entry H      F cc-pVQZ              selected for orbital group  3


 PROGRAM * SEWARD (Integral evaluation for generally contracted gaussian basis sets)     Author: Roland Lindh, 1990

 Geometry written to block  1 of record 700

 Orientation using atomic masses  
 Molecule type: Asymmetric top,     Order of principal axis = 2
 Symmetry elements: X,Y
 Rotational constants:      34.2927288     38.9589211    286.3164739 GHz  (calculated with average atomic masses)

 Point group  C2v 



 ATOMIC COORDINATES

 NR  ATOM    CHARGE       X              Y              Z

   1  C       6.00    0.000000000    0.000000000   -1.139102130
   2  O       8.00    0.000000000    0.000000000    1.136701504
   3  H1      1.00    0.000000000    1.768283747   -2.234650061
   4  H2      1.00    0.000000000   -1.768283747   -2.234650061

 Bond lengths in Bohr (Angstrom)

 1-2  2.275803635  1-3  2.080156888  1-4  2.080156888
     ( 1.204303420)     ( 1.100771620)     ( 1.100771620)

 Bond angles

  2-1-3  121.78046616   2-1-4  121.78046616   3-1-4  116.43906768

 NUCLEAR CHARGE:                   16
 NUMBER OF PRIMITIVE AOS:         308
 NUMBER OF SYMMETRY AOS:          258
 NUMBER OF CONTRACTIONS:          228   (   88A1  +   50B1  +   60B2  +   30A2  )
 NUMBER OF INNER CORE ORBITALS:     0   (    0A1  +    0B1  +    0B2  +    0A2  )
 NUMBER OF OUTER CORE ORBITALS:     2   (    2A1  +    0B1  +    0B2  +    0A2  )
 NUMBER OF VALENCE ORBITALS:       10   (    5A1  +    2B1  +    3B2  +    0A2  )


 NUCLEAR REPULSION ENERGY   31.34585015


 Eigenvalues of metric

         1 0.258E-04 0.268E-04 0.227E-03 0.382E-03 0.995E-03 0.128E-02 0.153E-02 0.177E-02
         2 0.154E-02 0.252E-02 0.813E-02 0.130E-01 0.436E-01 0.546E-01 0.101E+00 0.107E+00
         3 0.252E-03 0.121E-02 0.175E-02 0.240E-02 0.446E-02 0.635E-02 0.854E-02 0.135E-01
         4 0.122E-01 0.410E-01 0.941E-01 0.138E+00 0.179E+00 0.210E+00 0.271E+00 0.358E+00


 Contracted 2-electron integrals neglected if value below      1.0D-12
 AO integral compression algorithm  1   Integral accuracy      1.0D-12

     390.070 MB (compressed) written to integral file ( 45.6%)


 NUMBER OF SORTED TWO-ELECTRON INTEGRALS:   87298231.     BUFFER LENGTH:  32768
 NUMBER OF SEGMENTS:   6  SEGMENT LENGTH:   15999670      RECORD LENGTH: 524288

 Memory used in sort:      16.56 MW

 SORT1 READ   106982298. AND WROTE    70522460. INTEGRALS IN    204 RECORDS. CPU TIME:     1.14 SEC, REAL TIME:     1.40 SEC
 SORT2 READ    70522460. AND WROTE    87298231. INTEGRALS IN   1488 RECORDS. CPU TIME:     0.78 SEC, REAL TIME:     0.94 SEC

 FILE SIZES:   FILE 1:   421.3 MBYTE,  FILE 4:   855.7 MBYTE,   TOTAL:   1277.0 MBYTE

 OPERATOR DM      FOR CENTER  0  COORDINATES:    0.000000    0.000000    0.000000


 **********************************************************************************************************************************
 DATASETS  * FILE   NREC   LENGTH (MB)   RECORD NAMES
              1      19      342.86       500      610      700      900      950      970     1000      129      960     1100   
                                          VAR    BASINP    GEOM    SYMINP    ZMAT    AOBASIS   BASIS     P2S    ABASIS      S 
                                         1400     1410     1200     1210     1080     1600     1650     1300     1700   
                                           T        V       H0       H01     AOSYM     SMH    MOLCAS    ERIS     OPER   

 PROGRAMS   *        TOTAL       INT
 CPU TIMES  *         6.82      6.71
 REAL TIME  *        13.18 SEC
 DISK USED  *         1.19 GB
 **********************************************************************************************************************************


 Program * Restricted Hartree-Fock

 Orbital guess generated from atomic densities. Full valence occupancy:    7   2   3   0

 Initial occupancy:   5   1   2   0

 NELEC=   16   SYM=1   MS2= 0   THRE=1.0D-08   THRD=3.2D-06   THRG=3.2D-06  HFMA2=F  DIIS_START=2   DIIS_MAX=10   DIIS_INCORE=F

 Level shifts:    0.00 (CLOSED)    0.00 (OPEN)    0.30 (GAP_MIN)

 ITER           ETOT              DE          GRAD        DDIFF     DIIS  NEXP   TIME(IT)  TIME(TOT)  DIAG
   1     -113.86852729    -113.86852729     0.00D+00     0.64D-01     0     0       0.21      0.42    start
   2     -113.89227339      -0.02374610     0.10D-01     0.95D-02     1     0       0.22      0.64    diag
   3     -113.92060764      -0.02833425     0.85D-02     0.44D-02     2     0       0.22      0.86    diag
   4     -113.92104342      -0.00043578     0.69D-03     0.60D-03     3     0       0.23      1.09    diag
   5     -113.92110012      -0.00005670     0.23D-03     0.22D-03     4     0       0.21      1.30    diag
   6     -113.92111308      -0.00001297     0.82D-04     0.12D-03     5     0       0.22      1.52    diag
   7     -113.92111524      -0.00000215     0.38D-04     0.63D-04     6     0       0.21      1.73    diag
   8     -113.92111531      -0.00000008     0.74D-05     0.13D-04     7     0       0.21      1.94    fixocc
   9     -113.92111531      -0.00000000     0.90D-06     0.13D-05     8     0       0.21      2.15    diag
  10     -113.92111531      -0.00000000     0.19D-06     0.22D-06     0     0       0.21      2.36    diag/orth

 Final occupancy:   5   1   2   0

 !RHF STATE 1.1 Energy               -113.921115314002
  RHF One-electron energy            -217.497359293504
  RHF Two-electron energy              72.230393831122
  RHF Kinetic energy                  113.774368389758
  RHF Nuclear energy                   31.345850148379
  RHF Virial quotient                  -1.001289806538

 !RHF STATE 1.1 Dipole moment           0.00000000     0.00000000    -1.11048909
 Dipole moment /Debye                   0.00000000     0.00000000    -2.82258174

 Orbital energies:

           1.1          2.1          3.1          4.1          5.1          6.1          7.1
    -20.574507   -11.339722    -1.405939    -0.870430    -0.652239     0.121025     0.216857

           1.2          2.2          3.2
     -0.537111     0.109467     0.335547

           1.3          2.3          3.3          4.3
     -0.695197    -0.443144     0.174085     0.346246

           1.4          2.4
      0.538814     0.870041


 HOMO      2.3    -0.443144 =     -12.0586eV
 LUMO      2.2     0.109467 =       2.9787eV
 LUMO-HOMO         0.552611 =      15.0373eV

 Orbitals saved in record  2100.2


 **********************************************************************************************************************************
 DATASETS  * FILE   NREC   LENGTH (MB)   RECORD NAMES
              1      19      342.86       500      610      700      900      950      970     1000      129      960     1100   
                                          VAR    BASINP    GEOM    SYMINP    ZMAT    AOBASIS   BASIS     P2S    ABASIS      S 
                                         1400     1410     1200     1210     1080     1600     1650     1300     1700   
                                           T        V       H0       H01     AOSYM     SMH    MOLCAS    ERIS     OPER   

              2       4        0.66       700     1000      520     2100   
                                         GEOM     BASIS   MCVARS     RHF  

 PROGRAMS   *        TOTAL    HF-SCF       INT
 CPU TIMES  *         9.18      2.35      6.71
 REAL TIME  *        16.57 SEC
 DISK USED  *         1.19 GB
 **********************************************************************************************************************************


 PROGRAM * MP4 (Closed-shell)     Authors: C. Hampel, H.-J. Werner, 1991, M. Deegan, P.J. Knowles, 1992


 CORETYPE=SMALL

 Convergence thresholds:  THRVAR = 1.00D-08  THRDEN = 1.00D-06

 MP4(T)     terms to be evaluated (factor= 0.000)


 Number of closed-shell orbitals:   8 (   5   1   2   0 )
 Number of external orbitals:     220 (  83  49  58  30 )

 Molecular orbitals read from record     2100.2  Type=RHF/CANONICAL  

 Number of N-1 electron functions:               8
 Number of N-2 electron functions:              36
 Number of singly external CSFs:               580
 Number of doubly external CSFs:            409268
 Total number of CSFs:                      409849

 Length of J-op  integral file:               0.00 MB
 Length of K-op  integral file:               1.07 MB

 Memory could be reduced to 28.21 Mwords without degradation in triples

 Integral transformation finished. Total CPU:   0.63 sec, npass=  1  Memory used:   4.70 MW

 Reference energy:                   -113.92111531

                        CORR.ENERGY   TOTAL ENERGY   ENERGY CHANGE
 MP2:                   -0.53599047  -114.45710579    -0.53599047

 SCS-MP2 correlation energy:           -0.54691748   (PS=  1.200000  PT=  0.333333)
 SCS-MP2 total energy:               -114.46803279

 MP3(D):                -0.54004277  -114.46115809    -0.00405230
 MP4(DQ):               -0.53992430  -114.46103962     0.00011847
 MP4(SDQ):              -0.54586437  -114.46697969    -0.00594007

 Norm of t1 vector:      0.06351018      S-energy:    -0.00594007      T1 diagnostic:  0.01122712


 Total CPU time for triples:      6.46 sec


 RESULTS
 =======

  Reference energy                   -113.921115314003

  Correlated core orbitals:             1.1       2.1
  Orbital energies:                   -20.5745  -11.3397

  MP4(SDQ) core-core energy            -0.081121948003
  MP4(SDQ) core-valence energy         -0.032729036472
  MP4(SDQ) valence correlation ener    -0.432013388821

  MP4(SDQ) singlet pair energy         -0.387217167177
  MP4(SDQ) triplet pair energy         -0.152707137444
  MP4(SDQ) correlation energy          -0.545864373296

  Triples contribution                 -0.021799628401
  Total correlation energy             -0.567664001697

  MP4(SDQ) total energy              -114.466979687299
 !MP4(SDTQ) total energy             -114.488779315699

 Timing summary (sec):

 STEP                 CPU(USER)    SYS     CPU(TOT)    WALL
 Transformation          0.63      0.09      0.72      1.15
 CCSD iterations        10.04      0.06     10.10      1.90
 Triples                 6.46      0.42      6.88      7.22

 Program statistics:

 Available memory in ccsd:               393215739
 Min. memory needed in ccsd:               1233294
 Max. memory used in ccsd:                 1583238
 Max. memory used in cckext:               1630894 ( 1 integral passes)



 **********************************************************************************************************************************
 DATASETS  * FILE   NREC   LENGTH (MB)   RECORD NAMES
              1      20      432.26       500      610      700      900      950      970     1000      129      960     1100   
                                          VAR    BASINP    GEOM    SYMINP    ZMAT    AOBASIS   BASIS     P2S    ABASIS      S 
                                         1400     1410     1200     1210     1080     1600     1650     1300     1700     1380   
                                           T        V       H0       H01     AOSYM     SMH    MOLCAS    ERIS     OPER     JKOP   

              2       4        0.66       700     1000      520     2100   
                                         GEOM     BASIS   MCVARS     RHF  

 PROGRAMS   *        TOTAL       MP4    HF-SCF       INT
 CPU TIMES  *        17.04      7.84      2.35      6.71
 REAL TIME  *        27.61 SEC
 DISK USED  *         1.19 GB
 **********************************************************************************************************************************

 Dump information in style XML to xml output                                                                      

 Orbitals will not be exported.

 **********************************************************************************************************************************

 MP4/cc-pCVQZ energy=   -114.488779315699

             MP4          HF-SCF
   -114.48877932   -113.92111531
 **********************************************************************************************************************************
 Molpro calculation terminated
