
 Working directory              : /var/folders/2v/xbgp75_9785319ghcgb4zr4r0000gp/T//molpro.8BjDSz6QfJ/
 Global scratch directory       : /var/folders/2v/xbgp75_9785319ghcgb4zr4r0000gp/T//molpro.8BjDSz6QfJ/
 Wavefunction directory         : /Users/sacpjk/wfu/
 Main file repository           : /var/folders/2v/xbgp75_9785319ghcgb4zr4r0000gp/T//molpro.8BjDSz6QfJ/

 id        : peterk

 Nodes                        nprocs
 Cardiff-University-G34YLXT77Y    1
 GA implementation: MPI file
 GA implementation (serial work in mppx): MPI file

 Using customized tuning parameters: mindgm=1; mindgv=20; mindgc=4; mindgr=1; noblas=0; minvec=7
 default implementation of scratch files=df  


 Variables initialized (1032), CPU time= 0.00 sec
 
 symmetry,nosym
 
 
 geometry={
            1
     F          0.00000000      0.00000000      0.00000000
 }
 basis=cc-pVDZ
 
 charge=-1
 
 hf; hf; papt; mp4
 
 
 
 {put,xml;noorbitals,nobasis}
 Commands initialized (841), CPU time= 0.01 sec, 704 directives.
 Default parameters read. Elapsed time= 0.45 sec

 Checking input...
 Passed
1


                                         ***  PROGRAM SYSTEM MOLPRO  ***
                                       Copyright, TTI GmbH Stuttgart, 2015
                                    Version 2023.1 linked Tue Jun  6 09:54:11 2023


 **********************************************************************************************************************************
 LABEL *                                                                                                                                                                 
  64 bit serial version                                                                  DATE: 09-Jun-23          TIME: 15:37:56  
 **********************************************************************************************************************************

 SHA1:             8ebb0dd001088a5c915591db1a321413035db0b1
 **********************************************************************************************************************************

 Memory per process:       805 MW
 Total memory per node:   1074 MW
 Total GA space:           268 MW

 GA preallocation disabled
 GA check enabled

 Variable memory set to 805.3 MW

 ZSYMEL=NOSYM


 Geometry recognized as XYZ

 SETTING BASIS          =    CC-PVDZ
 SETTING CHARGE         =        -1.00000000                                  


 Recomputing integrals since basis changed


 Using spherical harmonics

 Library entry F      S cc-pVDZ              selected for orbital group  1
 Library entry F      P cc-pVDZ              selected for orbital group  1
 Library entry F      D cc-pVDZ              selected for orbital group  1


 PROGRAM * SEWARD (Integral evaluation for generally contracted gaussian basis sets)     Author: Roland Lindh, 1990

 Geometry written to block  1 of record 700

 Orientation using atomic masses  
 Molecule type: Atom
 Rotational constants:       0.0000000      0.0000000      0.0000000 GHz  (calculated with average atomic masses)

 Point group  C1  



 ATOMIC COORDINATES

 NR  ATOM    CHARGE       X              Y              Z

   1  F       9.00    0.000000000    0.000000000    0.000000000

 NUCLEAR CHARGE:                    9
 NUMBER OF PRIMITIVE AOS:          27
 NUMBER OF SYMMETRY AOS:           26
 NUMBER OF CONTRACTIONS:           14   (   14A   )
 NUMBER OF INNER CORE ORBITALS:     0   (    0A   )
 NUMBER OF OUTER CORE ORBITALS:     1   (    1A   )
 NUMBER OF VALENCE ORBITALS:        4   (    4A   )


 NUCLEAR REPULSION ENERGY    0.00000000

 EXTRA SYMMETRY OF AOS IN SYMMETRY 1:   1 1 1 2 3 4 2 3 4 5   6 7 8 9

 Eigenvalues of metric

         1 0.487E-01 0.202E+00 0.202E+00 0.202E+00 0.100E+01 0.100E+01 0.100E+01 0.100E+01


 Contracted 2-electron integrals neglected if value below      1.0D-11
 AO integral compression algorithm  1   Integral accuracy      1.0D-11

     0.262 MB (compressed) written to integral file ( 51.8%)


 NUMBER OF SORTED TWO-ELECTRON INTEGRALS:       5565.     BUFFER LENGTH:  32768
 NUMBER OF SEGMENTS:   1  SEGMENT LENGTH:       5565      RECORD LENGTH: 524288

 Memory used in sort:       0.56 MW

 SORT1 READ        6730. AND WROTE         776. INTEGRALS IN      1 RECORDS. CPU TIME:     0.00 SEC, REAL TIME:     0.00 SEC
 SORT2 READ         776. AND WROTE        5565. INTEGRALS IN      1 RECORDS. CPU TIME:     0.00 SEC, REAL TIME:     0.00 SEC

 FILE SIZES:   FILE 1:    30.2 MBYTE,  FILE 4:     4.3 MBYTE,   TOTAL:     34.5 MBYTE

 OPERATOR DM      FOR CENTER  0  COORDINATES:    0.000000    0.000000    0.000000


 **********************************************************************************************************************************
 DATASETS  * FILE   NREC   LENGTH (MB)   RECORD NAMES
              1      19       28.60       500      610      700      900      950      970     1000      129      960     1100   
                                          VAR    BASINP    GEOM    SYMINP    ZMAT    AOBASIS   BASIS     P2S    ABASIS      S 
                                         1400     1410     1200     1210     1080     1600     1650     1300     1700   
                                           T        V       H0       H01     AOSYM     SMH    MOLCAS    ERIS     OPER   

 PROGRAMS   *        TOTAL       INT
 CPU TIMES  *         0.17      0.07
 REAL TIME  *         1.67 SEC
 DISK USED  *        33.21 MB
 **********************************************************************************************************************************


 Program * Restricted Hartree-Fock

 Orbital guess generated from atomic densities. Full valence occupancy:    5

 Initial occupancy:   5

 NELEC=   10   SYM=1   MS2= 0   THRE=1.0D-08   THRD=3.2D-06   THRG=3.2D-06  HFMA2=F  DIIS_START=2   DIIS_MAX=10   DIIS_INCORE=F

 Level shifts:    0.00 (CLOSED)    0.00 (OPEN)    0.30 (GAP_MIN)

 ITER           ETOT              DE          GRAD        DDIFF     DIIS  NEXP   TIME(IT)  TIME(TOT)  DIAG
   1      -99.29785341     -99.29785341     0.00D+00     0.42D+00     0     0       0.00      0.00    start
   2      -99.34608743      -0.04823403     0.50D-01     0.10D+00     1     0       0.00      0.00    diag
   3      -99.36598302      -0.01989559     0.28D-01     0.34D-01     2     0       0.00      0.00    diag
   4      -99.36598357      -0.00000055     0.19D-03     0.20D-03     3     0       0.00      0.00    diag
   5      -99.36598357      -0.00000000     0.42D-05     0.12D-04     4     0       0.01      0.01    diag
   6      -99.36598357      -0.00000000     0.84D-06     0.56D-06     5     0       0.00      0.01    diag
   7      -99.36598357       0.00000000     0.30D-09     0.52D-09     0     0       0.00      0.01    diag

 Final occupancy:   5

 !RHF STATE 1.1 Energy                -99.365983566385
  RHF One-electron energy            -144.878694211729
  RHF Two-electron energy              45.512710645344
  RHF Kinetic energy                   99.646029006970
  RHF Nuclear energy                    0.000000000000
  RHF Virial quotient                  -0.997189597585

 !RHF STATE 1.1 Dipole moment          -0.00000000    -0.00000000    -0.00000000
 Dipole moment /Debye                  -0.00000000    -0.00000000    -0.00000000

 Orbital energies:

           1.1          2.1          3.1          4.1          5.1          6.1          7.1
    -25.703605    -0.975208    -0.082608    -0.082608    -0.082608     1.938186     1.938186


 HOMO      5.1    -0.082608 =      -2.2479eV
 LUMO      6.1     1.938186 =      52.7407eV
 LUMO-HOMO         2.020794 =      54.9886eV

 Orbitals saved in record  2100.2


 **********************************************************************************************************************************
 DATASETS  * FILE   NREC   LENGTH (MB)   RECORD NAMES
              1      19       28.60       500      610      700      900      950      970     1000      129      960     1100   
                                          VAR    BASINP    GEOM    SYMINP    ZMAT    AOBASIS   BASIS     P2S    ABASIS      S 
                                         1400     1410     1200     1210     1080     1600     1650     1300     1700   
                                           T        V       H0       H01     AOSYM     SMH    MOLCAS    ERIS     OPER   

              2       4        0.38       700     1000      520     2100   
                                         GEOM     BASIS   MCVARS     RHF  

 PROGRAMS   *        TOTAL    HF-SCF       INT
 CPU TIMES  *         0.18      0.01      0.07
 REAL TIME  *         2.04 SEC
 DISK USED  *        33.21 MB
 **********************************************************************************************************************************


 Program * Restricted Hartree-Fock

 Molecular orbitals read from record     2100.2  Type=RHF/CANONICAL  

 Initial occupancy:   5

 NELEC=   10   SYM=1   MS2= 0   THRE=1.0D-08   THRD=3.2D-06   THRG=3.2D-06  HFMA2=F  DIIS_START=2   DIIS_MAX=10   DIIS_INCORE=F

 Level shifts:    0.00 (CLOSED)    0.00 (OPEN)    0.30 (GAP_MIN)

 ITER           ETOT              DE          GRAD        DDIFF     DIIS  NEXP   TIME(IT)  TIME(TOT)  DIAG
   1      -99.36598357     -99.36598357     0.00D+00     0.37D+00     0     0       0.00      0.00    start
   2      -99.36598357      -0.00000000     0.14D-09     0.28D-09     1     0       0.00      0.00    diag

 Final occupancy:   5

 !RHF STATE 1.1 Energy                -99.365983566385
  RHF One-electron energy            -144.878694220359
  RHF Two-electron energy              45.512710653974
  RHF Kinetic energy                   99.646029017265
  RHF Nuclear energy                    0.000000000000
  RHF Virial quotient                  -0.997189597482

 !RHF STATE 1.1 Dipole moment           0.00000000    -0.00000000     0.00000000
 Dipole moment /Debye                   0.00000000    -0.00000000     0.00000000

 Orbital energies:

           1.1          2.1          3.1          4.1          5.1          6.1          7.1
    -25.703605    -0.975208    -0.082608    -0.082608    -0.082608     1.938186     1.938186


 HOMO      5.1    -0.082608 =      -2.2479eV
 LUMO      6.1     1.938186 =      52.7407eV
 LUMO-HOMO         2.020794 =      54.9886eV

 Orbitals saved in record  2101.2


 **********************************************************************************************************************************
 DATASETS  * FILE   NREC   LENGTH (MB)   RECORD NAMES
              1      19       28.60       500      610      700      900      950      970     1000      129      960     1100   
                                          VAR    BASINP    GEOM    SYMINP    ZMAT    AOBASIS   BASIS     P2S    ABASIS      S 
                                         1400     1410     1200     1210     1080     1600     1650     1300     1700   
                                           T        V       H0       H01     AOSYM     SMH    MOLCAS    ERIS     OPER   

              2       5        0.48       700     1000      520     2100     2101   
                                         GEOM     BASIS   MCVARS     RHF      RHF  

 PROGRAMS   *        TOTAL    HF-SCF    HF-SCF       INT
 CPU TIMES  *         0.18      0.00      0.01      0.07
 REAL TIME  *         2.33 SEC
 DISK USED  *        33.21 MB
 **********************************************************************************************************************************


 PROGRAM * PAPT (Closed-shell)     Authors: C. Hampel, H.-J. Werner, 1991, P.J. Knowles, 2021


 Convergence thresholds:  THRVAR = 1.00D-08  THRDEN = 1.00D-06

 Number of core orbitals:           1 (   1 )
 Number of closed-shell orbitals:   4 (   4 )
 Number of external orbitals:       9 (   9 )

 Molecular orbitals read from record     2101.2  Type=RHF/CANONICAL  

 Number of N-1 electron functions:               4
 Number of N-2 electron functions:              10
 Number of singly external CSFs:                36
 Number of doubly external CSFs:               666
 Total number of CSFs:                         703

 Length of J-op  integral file:               0.00 MB
 Length of K-op  integral file:               0.08 MB

 Integral transformation finished. Total CPU:   0.00 sec, npass=  1  Memory used:   0.07 MW

 Reference energy:                    -99.36598357

                        CORR.ENERGY   TOTAL ENERGY   ENERGY CHANGE
 MP2:                   -0.18860920   -99.55459276    -0.18860920

 SCS-MP2 correlation energy:           -0.18159483   (PS=  1.200000  PT=  0.333333)
 SCS-MP2 total energy:                -99.54757839
 Iteration:   1     0.1470D+00
 Iteration:   2     0.4021D+00
 Iteration:   3     0.1001D-01
 Iteration:   4     0.4284D-11
 PAPT operator written to  7000.1
 PAPT orbitals and eigenvalues written to  7000.2

 MP3(D):                -0.19011333   -99.55609689    -0.00150413



 RESULTS
 =======

  Reference energy                    -99.365983566385
  MP3 singlet pair energy              -0.119143294471
  MP3 triplet pair energy              -0.070970033040
  MP3 correlation energy               -0.190113327510

 !MP3 total energy                    -99.556096893895

 Timing summary (sec):

 STEP                 CPU(USER)    SYS     CPU(TOT)    WALL
 CCSD iterations         0.29      0.00      0.29      0.27

 Program statistics:

 Available memory in ccsd:               805306299
 Min. memory needed in ccsd:                  5137
 Max. memory used in ccsd:                    5199
 Max. memory used in cckext:                 38358 ( 1 integral passes)



 **********************************************************************************************************************************
 DATASETS  * FILE   NREC   LENGTH (MB)   RECORD NAMES
              1      21       28.63       500      610      700      900      950      970     1000      129      960     1100   
                                          VAR    BASINP    GEOM    SYMINP    ZMAT    AOBASIS   BASIS     P2S    ABASIS      S 
                                         1400     1410     1200     1210     1080     1600     1650     1300     1700     1380   
                                           T        V       H0       H01     AOSYM     SMH    MOLCAS    ERIS     OPER     JKOP   
                                         7000   
                                        PAPT AO    

              2       6        0.58       700     1000      520     2100     2101     7000   
                                         GEOM     BASIS   MCVARS     RHF      RHF     PAPT   

 PROGRAMS   *        TOTAL      PAPT    HF-SCF    HF-SCF       INT
 CPU TIMES  *         0.21      0.03      0.00      0.01      0.07
 REAL TIME  *         2.72 SEC
 DISK USED  *        33.21 MB
 **********************************************************************************************************************************


 PROGRAM * MP4 (Closed-shell)     Authors: C. Hampel, H.-J. Werner, 1991, M. Deegan, P.J. Knowles, 1992


 Convergence thresholds:  THRVAR = 1.00D-08  THRDEN = 1.00D-06

 MP4(T)     terms to be evaluated (factor= 0.000)


 Number of core orbitals:           1 (   1 )
 Number of closed-shell orbitals:   4 (   4 )
 Number of external orbitals:       9 (   9 )

 Molecular orbitals read from record     7000.2  Type=PAPT/CANONICAL (state 1.1)

 Number of N-1 electron functions:               4
 Number of N-2 electron functions:              10
 Number of singly external CSFs:                36
 Number of doubly external CSFs:               666
 Total number of CSFs:                         703

 Length of J-op  integral file:               0.00 MB
 Length of K-op  integral file:               0.08 MB

 Memory could be reduced to 0.06 Mwords without degradation in triples

 Integral transformation finished. Total CPU:   0.00 sec, npass=  1  Memory used:   0.08 MW
 Orbital energies read from record       7000.2  Type=PAPT/CANONICAL (state 1.1)

 Reference energy:                    -99.36598357

                        CORR.ENERGY   TOTAL ENERGY   ENERGY CHANGE
 MP2:                   -0.19044956   -99.55643313    -0.19044956

 SCS-MP2 correlation energy:           -0.18343915   (PS=  1.200000  PT=  0.333333)
 SCS-MP2 total energy:                -99.54942272

 MP3(D):                -0.19047210   -99.55645566    -0.00002254
 MP4(DQ):               -0.19157317   -99.55755673    -0.00110107
 MP4(SDQ):              -0.19158656   -99.55757012    -0.00001339

 Norm of t1 vector:      0.00219091      S-energy:    -0.00001339      T1 diagnostic:  0.00054773


 Total CPU time for triples:      0.00 sec


 RESULTS
 =======

  Reference energy                    -99.365983566385
  MP4(SDQ) singlet pair energy         -0.119440273530
  MP4(SDQ) triplet pair energy         -0.072132894481
  MP4(SDQ) correlation energy          -0.191586557118

  Triples contribution                 -0.000633397700
  Total correlation energy             -0.192219954818

  MP4(SDQ) total energy               -99.557570123503
 !MP4(SDTQ) total energy              -99.558203521202

 Timing summary (sec):

 STEP                 CPU(USER)    SYS     CPU(TOT)    WALL
 CCSD iterations         0.32      0.01      0.33      0.14

 Program statistics:

 Available memory in ccsd:               805306299
 Min. memory needed in ccsd:                  5137
 Max. memory used in ccsd:                    5199
 Max. memory used in cckext:                 38358 ( 1 integral passes)



 **********************************************************************************************************************************
 DATASETS  * FILE   NREC   LENGTH (MB)   RECORD NAMES
              1      22       28.64       500      610      700      900      950      970     1000      129      960     1100   
                                          VAR    BASINP    GEOM    SYMINP    ZMAT    AOBASIS   BASIS     P2S    ABASIS      S 
                                         1400     1410     1200     1210     1080     1600     1650     1300     1700     1380   
                                           T        V       H0       H01     AOSYM     SMH    MOLCAS    ERIS     OPER     JKOP   
                                         7000     1380(1)
                                        PAPT AO   JKOP   

              2       6        0.58       700     1000      520     2100     2101     7000   
                                         GEOM     BASIS   MCVARS     RHF      RHF     PAPT   

 PROGRAMS   *        TOTAL       MP4      PAPT    HF-SCF    HF-SCF       INT
 CPU TIMES  *         0.24      0.03      0.03      0.00      0.01      0.07
 REAL TIME  *         3.00 SEC
 DISK USED  *        33.21 MB
 **********************************************************************************************************************************

 Dump information in style XML to xml output                                                                      

 Orbitals will not be exported.

 **********************************************************************************************************************************

 MP4/cc-pVDZ energy=    -99.558203521202

             MP4            PAPT          HF-SCF          HF-SCF
    -99.55820352    -99.55609689    -99.36598357    -99.36598357
 **********************************************************************************************************************************
 Molpro calculation terminated
