
 Working directory              : /var/folders/2v/xbgp75_9785319ghcgb4zr4r0000gp/T//molpro.TM8p9lKOvC/
 Global scratch directory       : /var/folders/2v/xbgp75_9785319ghcgb4zr4r0000gp/T//molpro.TM8p9lKOvC/
 Wavefunction directory         : /Users/sacpjk/wfu/
 Main file repository           : /var/folders/2v/xbgp75_9785319ghcgb4zr4r0000gp/T//molpro.TM8p9lKOvC/

 id        : peterk

 Nodes                        nprocs
 Cardiff-University-G34YLXT77Y    1
 GA implementation: MPI file
 GA implementation (serial work in mppx): MPI file

 Using customized tuning parameters: mindgm=1; mindgv=20; mindgc=4; mindgr=1; noblas=0; minvec=7
 default implementation of scratch files=df  


 Variables initialized (1032), CPU time= 0.00 sec
 
 symmetry,nosym
 
 
 geometry={
            1
     O          0.00000000      0.00000000      0.00000000
 }
 basis=cc-pVDZ
 
 
 spin=2
 uhf
 
 
 
 {put,xml;noorbitals,nobasis}
 Commands initialized (841), CPU time= 0.01 sec, 704 directives.
 Default parameters read. Elapsed time= 0.19 sec

 Checking input...
 Passed
1


                                         ***  PROGRAM SYSTEM MOLPRO  ***
                                       Copyright, TTI GmbH Stuttgart, 2015
                                    Version 2023.1 linked Tue Jun  6 09:54:11 2023


 **********************************************************************************************************************************
 LABEL *                                                                                                                                                                 
  64 bit serial version                                                                  DATE: 09-Jun-23          TIME: 09:27:57  
 **********************************************************************************************************************************

 SHA1:             8ebb0dd001088a5c915591db1a321413035db0b1
 **********************************************************************************************************************************

 Memory per process:       805 MW
 Total memory per node:   1074 MW
 Total GA space:           268 MW

 GA preallocation disabled
 GA check enabled

 Variable memory set to 805.3 MW

 ZSYMEL=NOSYM


 Geometry recognized as XYZ

 SETTING BASIS          =    CC-PVDZ
 SETTING SPIN           =         2.00000000                                  


 Recomputing integrals since basis changed


 Using spherical harmonics

 Library entry O      S cc-pVDZ              selected for orbital group  1
 Library entry O      P cc-pVDZ              selected for orbital group  1
 Library entry O      D cc-pVDZ              selected for orbital group  1


 PROGRAM * SEWARD (Integral evaluation for generally contracted gaussian basis sets)     Author: Roland Lindh, 1990

 Geometry written to block  1 of record 700

 Orientation using atomic masses  
 Molecule type: Atom
 Rotational constants:       0.0000000      0.0000000      0.0000000 GHz  (calculated with average atomic masses)

 Point group  C1  



 ATOMIC COORDINATES

 NR  ATOM    CHARGE       X              Y              Z

   1  O       8.00    0.000000000    0.000000000    0.000000000

 NUCLEAR CHARGE:                    8
 NUMBER OF PRIMITIVE AOS:          27
 NUMBER OF SYMMETRY AOS:           26
 NUMBER OF CONTRACTIONS:           14   (   14A   )
 NUMBER OF INNER CORE ORBITALS:     0   (    0A   )
 NUMBER OF OUTER CORE ORBITALS:     1   (    1A   )
 NUMBER OF VALENCE ORBITALS:        4   (    4A   )


 NUCLEAR REPULSION ENERGY    0.00000000

 EXTRA SYMMETRY OF AOS IN SYMMETRY 1:   1 1 1 2 3 4 2 3 4 5   6 7 8 9

 Eigenvalues of metric

         1 0.472E-01 0.195E+00 0.195E+00 0.195E+00 0.100E+01 0.100E+01 0.100E+01 0.100E+01


 Contracted 2-electron integrals neglected if value below      1.0D-11
 AO integral compression algorithm  1   Integral accuracy      1.0D-11

     0.262 MB (compressed) written to integral file ( 49.8%)


 NUMBER OF SORTED TWO-ELECTRON INTEGRALS:       5565.     BUFFER LENGTH:  32768
 NUMBER OF SEGMENTS:   1  SEGMENT LENGTH:       5565      RECORD LENGTH: 524288

 Memory used in sort:       0.56 MW

 SORT1 READ        6730. AND WROTE         776. INTEGRALS IN      1 RECORDS. CPU TIME:     0.00 SEC, REAL TIME:     0.00 SEC
 SORT2 READ         776. AND WROTE        5565. INTEGRALS IN      1 RECORDS. CPU TIME:     0.00 SEC, REAL TIME:     0.00 SEC

 FILE SIZES:   FILE 1:    30.2 MBYTE,  FILE 4:     4.3 MBYTE,   TOTAL:     34.5 MBYTE

 OPERATOR DM      FOR CENTER  0  COORDINATES:    0.000000    0.000000    0.000000


 **********************************************************************************************************************************
 DATASETS  * FILE   NREC   LENGTH (MB)   RECORD NAMES
              1      19       28.60       500      610      700      900      950      970     1000      129      960     1100   
                                          VAR    BASINP    GEOM    SYMINP    ZMAT    AOBASIS   BASIS     P2S    ABASIS      S 
                                         1400     1410     1200     1210     1080     1600     1650     1300     1700   
                                           T        V       H0       H01     AOSYM     SMH    MOLCAS    ERIS     OPER   

 PROGRAMS   *        TOTAL       INT
 CPU TIMES  *         0.16      0.07
 REAL TIME  *         0.60 SEC
 DISK USED  *        33.21 MB
 **********************************************************************************************************************************


 Program * Unrestricted Hartree-Fock

 Orbital guess generated from atomic densities. Full valence occupancy:    5

 Initial alpha occupancy:   5
 Initial beta  occupancy:   3

 Elapsed time for starting guess:      0.00 sec

 NELEC=    8   SYM=1   MS2=2   THRE=1.0D-08   THRD=3.2D-06   THRG=3.2D-06  HFMA2=F  DIIS_START=2   DIIS_MAX=10   DIIS_INCORE=F

 Initial level shifts:    0.20 (ALPHA)    0.20 (BETA)

 ITER         ETOT            DE          GRAD         DDIFF    DIIS  NEXP   TIME(IT)  TIME(TOT)  DIAG
   1    -74.77116836   -74.77116836     0.00D+00     0.00D+00     0     0       0.00      0.00    start
   2    -74.79050177    -0.01933340     0.28D-01     0.34D+00     1     0       0.00      0.00    diag
   3    -74.79181331    -0.00131154     0.83D-02     0.36D-01     2     0       0.00      0.00    diag
   4    -74.79212510    -0.00031179     0.25D-02     0.11D-01     3     0       0.00      0.00    diag
   5    -74.79216409    -0.00003898     0.82D-03     0.38D-02     4     0       0.00      0.00    diag
   6    -74.79216596    -0.00000188     0.19D-03     0.12D-02     5     0       0.00      0.00    diag
   7    -74.79216606    -0.00000009     0.37D-04     0.20D-03     5     0       0.00      0.00    diag
   8    -74.79216606    -0.00000000     0.53D-05     0.16D-04     5     0       0.00      0.00    diag
   9    -74.79216606    -0.00000000     0.95D-06     0.20D-05     4     0       0.00      0.00    diag
  10    -74.79216606    -0.00000000     0.12D-06     0.12D-05     4     0       0.00      0.00    diag/ort

 Final alpha occupancy:   5
 Final beta  occupancy:   3

 !UHF STATE 1.1 Energy                -74.792166058189
  UHF One-electron energy            -103.277002456383
  UHF Two-electron energy              28.484836398194
  UHF Kinetic energy                   74.805616122763
  UHF Nuclear energy                    0.000000000000
  UHF Virial quotient                  -0.999820199802

 !UHF STATE 1.1 Dipole moment           0.00000000    -0.00000000     0.00000000
 Dipole moment /Debye                   0.00000000    -0.00000000     0.00000000

 EXPECTATION VALUE OF S**2:             2.00436675

 Orbital energies for positive spin:

           1.1          2.1          3.1          4.1          5.1          6.1          7.1
    -20.701944    -1.407499    -0.695879    -0.695879    -0.599251     1.066278     1.066278

 Orbital energies for negative spin:

           1.1          2.1          3.1          4.1          5.1
    -20.622950    -1.071393    -0.512536     0.132643     0.132643


 HOMO     -3.1    -0.512536 =     -13.9468eV
 LUMO     -4.1     0.132643 =       3.6094eV
 LUMO-HOMO         0.645179 =      17.5562eV

 Orbitals saved in record  2200.2

 Occupation number threshold for pseudo-canonical orbitals: 1.9990 (occupied), 0.0010 (virtual)

 Number of pseudo-canonical occupied orbitals per symmetry:    2
 Number of active natural orbitals per symmetry:               4

 Natural orbitals saved to record    2200.2 (Orbital set 3)

 Orbital spaces for UNO-CAS (Min. occupation: 0.020  Max. occupation: 1.980):

 Closed:        3
 Active:        2


 **********************************************************************************************************************************
 DATASETS  * FILE   NREC   LENGTH (MB)   RECORD NAMES
              1      19       28.60       500      610      700      900      950      970     1000      129      960     1100   
                                          VAR    BASINP    GEOM    SYMINP    ZMAT    AOBASIS   BASIS     P2S    ABASIS      S 
                                         1400     1410     1200     1210     1080     1600     1650     1300     1700   
                                           T        V       H0       H01     AOSYM     SMH    MOLCAS    ERIS     OPER   

              2       4        0.39       700     1000      520     2200   
                                         GEOM     BASIS   MCVARS     UHF  

              4       3        0.10      2900     3000     3100   

 PROGRAMS   *        TOTAL   UHF-SCF       INT
 CPU TIMES  *         0.16      0.00      0.07
 REAL TIME  *         0.79 SEC
 DISK USED  *        33.21 MB
 **********************************************************************************************************************************

 Dump information in style XML to xml output                                                                      

 Orbitals will not be exported.

 **********************************************************************************************************************************

 UHF/cc-pVDZ energy=    -74.792166058189

         UHF-SCF
    -74.79216606
 **********************************************************************************************************************************
 Molpro calculation terminated
