
 Working directory              : /var/folders/2v/xbgp75_9785319ghcgb4zr4r0000gp/T//molpro.o9lyc8Eykt/
 Global scratch directory       : /var/folders/2v/xbgp75_9785319ghcgb4zr4r0000gp/T//molpro.o9lyc8Eykt/
 Wavefunction directory         : /Users/sacpjk/wfu/
 Main file repository           : /var/folders/2v/xbgp75_9785319ghcgb4zr4r0000gp/T//molpro.o9lyc8Eykt/

 id        : peterk

 Nodes                        nprocs
 Cardiff-University-G34YLXT77Y    1
 GA implementation: MPI file
 GA implementation (serial work in mppx): MPI file

 Using customized tuning parameters: mindgm=1; mindgv=20; mindgc=4; mindgr=1; noblas=0; minvec=7
 default implementation of scratch files=df  


 Variables initialized (1032), CPU time= 0.01 sec
 
 symmetry,nosym
 
 
 geometry={
            3
     N          0.00000000      0.00000000     -1.14542900
     N          0.00000000      0.00000000     -0.01934100
     O          0.00000000      0.00000000      1.16477000
 }
 basis=cc-pVTZ
 
 
 
 hf
 
 
 
 {put,xml;noorbitals,nobasis}
 Commands initialized (841), CPU time= 0.00 sec, 704 directives.
 Default parameters read. Elapsed time= 0.69 sec

 Checking input...
 Passed
1


                                         ***  PROGRAM SYSTEM MOLPRO  ***
                                       Copyright, TTI GmbH Stuttgart, 2015
                                    Version 2023.1 linked Tue Jun  6 09:54:11 2023


 **********************************************************************************************************************************
 LABEL *                                                                                                                                                                 
  64 bit serial version                                                                  DATE: 10-Jun-23          TIME: 14:44:48  
 **********************************************************************************************************************************

 SHA1:             8ebb0dd001088a5c915591db1a321413035db0b1
 **********************************************************************************************************************************

 Memory per process:       805 MW
 Total memory per node:   1074 MW
 Total GA space:           268 MW

 GA preallocation disabled
 GA check enabled

 Variable memory set to 805.3 MW

 ZSYMEL=NOSYM


 Geometry recognized as XYZ

 SETTING BASIS          =    CC-PVTZ


 Recomputing integrals since basis changed


 Using spherical harmonics

 Library entry N      S cc-pVTZ              selected for orbital group  1
 Library entry N      P cc-pVTZ              selected for orbital group  1
 Library entry N      D cc-pVTZ              selected for orbital group  1
 Library entry N      F cc-pVTZ              selected for orbital group  1
 Library entry O      S cc-pVTZ              selected for orbital group  2
 Library entry O      P cc-pVTZ              selected for orbital group  2
 Library entry O      D cc-pVTZ              selected for orbital group  2
 Library entry O      F cc-pVTZ              selected for orbital group  2


 PROGRAM * SEWARD (Integral evaluation for generally contracted gaussian basis sets)     Author: Roland Lindh, 1990

 Geometry written to block  1 of record 700


 Point group  C1  



 ATOMIC COORDINATES

 NR  ATOM    CHARGE       X              Y              Z

   1  N       7.00    0.000000000    0.000000000   -2.164547105
   2  N       7.00    0.000000000    0.000000000   -0.036549193
   3  O       8.00    0.000000000    0.000000000    2.201096298

 Bond lengths in Bohr (Angstrom)

 1-2  2.127997912  2-3  2.237645491
     ( 1.126088000)     ( 1.184111000)

 Bond angles

  1-2-3  180.00000000

 NUCLEAR CHARGE:                   22
 NUMBER OF PRIMITIVE AOS:         141
 NUMBER OF SYMMETRY AOS:          126
 NUMBER OF CONTRACTIONS:           90   (   90A   )
 NUMBER OF INNER CORE ORBITALS:     0   (    0A   )
 NUMBER OF OUTER CORE ORBITALS:     3   (    3A   )
 NUMBER OF VALENCE ORBITALS:       12   (   12A   )


 NUCLEAR REPULSION ENERGY   60.88007743

 EXTRA SYMMETRY OF AOS IN SYMMETRY 1:   1 1 1 1 2 3 1 2 3 1   2 3 1 1 4 2 5 3 1 4   2 5 3 2 3 1 6 4 7 5   1 1 1 1 2 3 1 2 3 1
                                        2 3 1 1 4 2 5 3 1 4   2 5 3 2 3 1 6 4 7 5   1 1 1 1 2 3 1 2 3 1   2 3 1 1 4 2 5 3 1 4
                                        2 5 3 2 3 1 6 4 7 5

 Eigenvalues of metric

         1 0.710E-03 0.163E-02 0.247E-02 0.361E-02 0.107E-01 0.207E-01 0.207E-01 0.286E-01


 Contracted 2-electron integrals neglected if value below      1.0D-11
 AO integral compression algorithm  1   Integral accuracy      1.0D-11

     12.583 MB (compressed) written to integral file ( 14.5%)


 NUMBER OF SORTED TWO-ELECTRON INTEGRALS:    8386560.     BUFFER LENGTH:  32768
 NUMBER OF SEGMENTS:   1  SEGMENT LENGTH:    8386560      RECORD LENGTH: 524288

 Memory used in sort:       8.94 MW

 SORT1 READ    10601556. AND WROTE     1754098. INTEGRALS IN      6 RECORDS. CPU TIME:     0.04 SEC, REAL TIME:     0.07 SEC
 SORT2 READ     1754098. AND WROTE     8386560. INTEGRALS IN     48 RECORDS. CPU TIME:     0.09 SEC, REAL TIME:     0.13 SEC

 FILE SIZES:   FILE 1:    42.9 MBYTE,  FILE 4:    25.2 MBYTE,   TOTAL:     68.1 MBYTE

 OPERATOR DM      FOR CENTER  0  COORDINATES:    0.000000    0.000000    0.000000


 **********************************************************************************************************************************
 DATASETS  * FILE   NREC   LENGTH (MB)   RECORD NAMES
              1      19       37.60       500      610      700      900      950      970     1000      129      960     1100   
                                          VAR    BASINP    GEOM    SYMINP    ZMAT    AOBASIS   BASIS     P2S    ABASIS      S 
                                         1400     1410     1200     1210     1080     1600     1650     1300     1700   
                                           T        V       H0       H01     AOSYM     SMH    MOLCAS    ERIS     OPER   

 PROGRAMS   *        TOTAL       INT
 CPU TIMES  *         0.58      0.48
 REAL TIME  *         2.94 SEC
 DISK USED  *        65.35 MB
 **********************************************************************************************************************************


 Program * Restricted Hartree-Fock

 Orbital guess generated from atomic densities. Full valence occupancy:   15

 Initial occupancy:  11

 NELEC=   22   SYM=1   MS2= 0   THRE=1.0D-08   THRD=3.2D-06   THRG=3.2D-06  HFMA2=F  DIIS_START=2   DIIS_MAX=10   DIIS_INCORE=F

 Level shifts:    0.00 (CLOSED)    0.00 (OPEN)    0.30 (GAP_MIN)

 ITER           ETOT              DE          GRAD        DDIFF     DIIS  NEXP   TIME(IT)  TIME(TOT)  DIAG
   1     -183.65349266    -183.65349266     0.00D+00     0.93D-01     0     0       0.03      0.06    start
   2     -183.69771002      -0.04421736     0.12D-01     0.16D-01     1     0       0.04      0.10    diag
   3     -183.74875544      -0.05104542     0.95D-02     0.82D-02     2     0       0.03      0.13    diag
   4     -183.74948470      -0.00072926     0.93D-03     0.13D-02     3     0       0.03      0.16    diag
   5     -183.74970021      -0.00021551     0.53D-03     0.62D-03     4     0       0.04      0.20    diag
   6     -183.74975803      -0.00005782     0.20D-03     0.31D-03     5     0       0.03      0.23    diag
   7     -183.74976651      -0.00000849     0.75D-04     0.14D-03     6     0       0.04      0.27    diag
   8     -183.74976689      -0.00000037     0.17D-04     0.29D-04     7     0       0.04      0.31    fixocc
   9     -183.74976689      -0.00000001     0.27D-05     0.49D-05     8     0       0.03      0.34    diag
  10     -183.74976689      -0.00000000     0.16D-06     0.28D-06     9     0       0.04      0.38    diag/orth
  11     -183.74976689      -0.00000000     0.34D-07     0.53D-07     0     0       0.03      0.41    diag

 Final occupancy:  11

 !RHF STATE 1.1 Energy               -183.749766894202
  RHF One-electron energy            -370.741840474909
  RHF Two-electron energy             126.111996150463
  RHF Kinetic energy                  183.365706619623
  RHF Nuclear energy                   60.880077430243
  RHF Virial quotient                  -1.002094504374

 !RHF STATE 1.1 Dipole moment          -0.00000000    -0.00000000    -0.23785526
 Dipole moment /Debye                  -0.00000000    -0.00000000    -0.60456778

 Orbital energies:

           1.1          2.1          3.1          4.1          5.1          6.1          7.1          8.1          9.1         10.1
    -20.653722   -15.843451   -15.695786    -1.612382    -1.422907    -0.831141    -0.761768    -0.761768    -0.696766    -0.489616

          11.1         12.1         13.1
     -0.489616     0.155361     0.155361


 HOMO     11.1    -0.489616 =     -13.3231eV
 LUMO     12.1     0.155361 =       4.2276eV
 LUMO-HOMO         0.644978 =      17.5507eV

 Orbitals saved in record  2100.2


 **********************************************************************************************************************************
 DATASETS  * FILE   NREC   LENGTH (MB)   RECORD NAMES
              1      19       37.60       500      610      700      900      950      970     1000      129      960     1100   
                                          VAR    BASINP    GEOM    SYMINP    ZMAT    AOBASIS   BASIS     P2S    ABASIS      S 
                                         1400     1410     1200     1210     1080     1600     1650     1300     1700   
                                           T        V       H0       H01     AOSYM     SMH    MOLCAS    ERIS     OPER   

              2       4        0.54       700     1000      520     2100   
                                         GEOM     BASIS   MCVARS     RHF  

 PROGRAMS   *        TOTAL    HF-SCF       INT
 CPU TIMES  *         0.99      0.41      0.48
 REAL TIME  *         3.87 SEC
 DISK USED  *        65.35 MB
 **********************************************************************************************************************************

 Dump information in style XML to xml output                                                                      

 Orbitals will not be exported.

 **********************************************************************************************************************************

 HF/cc-pVTZ energy=   -183.749766894202

          HF-SCF
   -183.74976689
 **********************************************************************************************************************************
 Molpro calculation terminated
