
 Working directory              : /var/folders/2v/xbgp75_9785319ghcgb4zr4r0000gp/T//molpro.lBEhus7VvH/
 Global scratch directory       : /var/folders/2v/xbgp75_9785319ghcgb4zr4r0000gp/T//molpro.lBEhus7VvH/
 Wavefunction directory         : /Users/sacpjk/wfu/
 Main file repository           : /var/folders/2v/xbgp75_9785319ghcgb4zr4r0000gp/T//molpro.lBEhus7VvH/

 id        : peterk

 Nodes                        nprocs
 Cardiff-University-G34YLXT77Y    1
 GA implementation: MPI file
 GA implementation (serial work in mppx): MPI file

 Using customized tuning parameters: mindgm=1; mindgv=20; mindgc=4; mindgr=1; noblas=0; minvec=7
 default implementation of scratch files=df  


 Variables initialized (1032), CPU time= 0.00 sec
 
 symmetry,nosym
 
 
 geometry={
           18
     SI         0.67139927      0.96171872      1.80521348
     SI        -0.67139927     -0.96171872      1.80521348
     SI         0.00000000     -2.31395795      0.00000000
     SI         0.67139927     -0.96171872     -1.80521348
     SI        -0.67139927      0.96171872     -1.80521348
     SI         0.00000000      2.31395795      0.00000000
     H          2.08573887      0.54782614      1.59489390
     H          0.59761219      1.71115483      3.08849794
     H         -0.59761219     -1.71115483      3.08849794
     H         -2.08573887     -0.54782614      1.59489390
     H         -1.12581429     -3.18741508     -0.42917386
     H          1.12581429     -3.18741508      0.42917386
     H          2.08573887     -0.54782614     -1.59489390
     H          0.59761219     -1.71115483     -3.08849794
     H         -2.08573887      0.54782614     -1.59489390
     H         -0.59761219      1.71115483     -3.08849794
     H         -1.12581429      3.18741508      0.42917386
     H          1.12581429      3.18741508     -0.42917386
 }
 basis=cc-pVTZ
 
 
 
 hf
 
 
 
 {put,xml;noorbitals,nobasis}
 Commands initialized (841), CPU time= 0.01 sec, 704 directives.
 Default parameters read. Elapsed time= 0.16 sec

 Checking input...
 Passed
1


                                         ***  PROGRAM SYSTEM MOLPRO  ***
                                       Copyright, TTI GmbH Stuttgart, 2015
                                    Version 2023.1 linked Tue Jun  6 09:54:11 2023


 **********************************************************************************************************************************
 LABEL *                                                                                                                                                                 
  64 bit serial version                                                                  DATE: 12-Jun-23          TIME: 23:29:59  
 **********************************************************************************************************************************

 SHA1:             8ebb0dd001088a5c915591db1a321413035db0b1
 **********************************************************************************************************************************

 Memory per process:       393 MW
 Total memory per node:    524 MW
 Total GA space:           131 MW

 GA preallocation disabled
 GA check enabled

 Variable memory set to 393.2 MW

 ZSYMEL=NOSYM


 Geometry recognized as XYZ

 SETTING BASIS          =    CC-PVTZ


 Recomputing integrals since basis changed


 Using spherical harmonics

 Library entry SI     S cc-pVTZ              selected for orbital group  1
 Library entry SI     P cc-pVTZ              selected for orbital group  1
 Library entry SI     D cc-pVTZ              selected for orbital group  1
 Library entry SI     F cc-pVTZ              selected for orbital group  1
 Library entry H      S cc-pVTZ              selected for orbital group  2
 Library entry H      P cc-pVTZ              selected for orbital group  2
 Library entry H      D cc-pVTZ              selected for orbital group  2


 PROGRAM * SEWARD (Integral evaluation for generally contracted gaussian basis sets)     Author: Roland Lindh, 1990

 Geometry written to block  1 of record 700


 Point group  C1  



 ATOMIC COORDINATES

 NR  ATOM    CHARGE       X              Y              Z

   1  SI     14.00    1.268760741    1.817384990    3.411359074
   2  SI     14.00   -1.268760741   -1.817384990    3.411359074
   3  SI     14.00    0.000000000   -4.372746789    0.000000000
   4  SI     14.00    1.268760741   -1.817384990   -3.411359074
   5  SI     14.00   -1.268760741    1.817384990   -3.411359074
   6  SI     14.00    0.000000000    4.372746789    0.000000000
   7  H       1.00    3.941475232    1.035241369    3.013912669
   8  H       1.00    1.129323368    3.233613986    5.836415243
   9  H       1.00   -1.129323368   -3.233613986    5.836415243
  10  H       1.00   -3.941475232   -1.035241369    3.013912669
  11  H       1.00   -2.127480675   -6.023341547   -0.811021055
  12  H       1.00    2.127480675   -6.023341547    0.811021055
  13  H       1.00    3.941475232   -1.035241369   -3.013912669
  14  H       1.00    1.129323368   -3.233613986   -5.836415243
  15  H       1.00   -3.941475232    1.035241369   -3.013912669
  16  H       1.00   -1.129323368    3.233613986   -5.836415243
  17  H       1.00   -2.127480675    6.023341547    0.811021055
  18  H       1.00    2.127480675    6.023341547   -0.811021055

 Bond lengths in Bohr (Angstrom)

 1-2  4.432896127  1-6  4.447133737  1-7  2.813025958  1-8  2.811768976  2-3  4.447133737
     ( 2.345787609)     ( 2.353321827)     ( 1.488589231)     ( 1.487924064)     ( 2.353321827)

  2- 9  2.811768976   2-10  2.813025958   3- 4  4.447133737   3-11  2.812186379   3-12  2.812186379
       ( 1.487924064)       ( 1.488589231)       ( 2.353321827)       ( 1.488144944)       ( 1.488144944)

  4- 5  4.432896127   4-13  2.813025958   4-14  2.811768976   5- 6  4.447133737   5-15  2.813025958
       ( 2.345787609)       ( 1.488589231)       ( 1.487924064)       ( 2.353321827)       ( 1.488589231)

  5-16  2.811768976   6-17  2.812186379   6-18  2.812186379
       ( 1.487924064)       ( 1.488144944)       ( 1.488144944)

 Bond angles

  1- 2- 3  107.92906079   1- 2- 9  112.61930491   1- 2-10  108.41482557   1- 6- 5  109.85553033

  1- 6-17  109.38243490   1- 6-18  110.03864338   2- 1- 6  107.92906079   2- 1- 7  108.41482557

  2- 1- 8  112.61930491   2- 3- 4  109.85553033   2- 3-11  110.03864338   2- 3-12  109.38243490

  3- 2- 9  110.97890823   3- 2-10  108.81137139   3- 4- 5  107.92906079   3- 4-13  108.81137139

  3- 4-14  110.97890823   4- 3-11  109.38243490   4- 3-12  110.03864338   4- 5- 6  107.92906079

  4- 5-15  108.41482557   4- 5-16  112.61930491   5- 4-13  108.41482557   5- 4-14  112.61930491

  5- 6-17  110.03864338   5- 6-18  109.38243490   6- 1- 7  108.81137139   6- 1- 8  110.97890823

  6- 5-15  108.81137139   6- 5-16  110.97890823   7- 1- 8  108.00004762   9- 2-10  108.00004762

 11- 3-12  108.11917112  13- 4-14  108.00004762  15- 5-16  108.00004762  17- 6-18  108.11917112

 NUCLEAR CHARGE:                   96
 NUMBER OF PRIMITIVE AOS:         588
 NUMBER OF SYMMETRY AOS:          546
 NUMBER OF CONTRACTIONS:          372   (  372A   )
 NUMBER OF INNER CORE ORBITALS:     6   (    6A   )
 NUMBER OF OUTER CORE ORBITALS:    24   (   24A   )
 NUMBER OF VALENCE ORBITALS:       36   (   36A   )


 NUCLEAR REPULSION ENERGY  681.30113274


 Eigenvalues of metric

         1 0.571E-03 0.910E-03 0.108E-02 0.122E-02 0.133E-02 0.134E-02 0.164E-02 0.178E-02


 Contracted 2-electron integrals neglected if value below      1.0D-11
 AO integral compression algorithm  1   Integral accuracy      1.0D-11

     5670.699 MB (compressed) written to integral file ( 31.3%)


 NUMBER OF SORTED TWO-ELECTRON INTEGRALS: 2406688131.     BUFFER LENGTH:  32768
 NUMBER OF SEGMENTS:  76  SEGMENT LENGTH:   31999951      RECORD LENGTH: 262144

 Memory used in sort:      32.29 MW

 SORT1 READ  2266617803. AND WROTE  1607852665. INTEGRALS IN   9237 RECORDS. CPU TIME:    17.87 SEC, REAL TIME:    23.42 SEC
 SORT2 READ  1607852665. AND WROTE  2406688131. INTEGRALS IN  21632 RECORDS. CPU TIME:    13.02 SEC, REAL TIME:    25.08 SEC

 FILE SIZES:   FILE 1:  5706.1 MBYTE,  FILE 4: 19371.5 MBYTE,   TOTAL:  25077.6 MBYTE

 OPERATOR DM      FOR CENTER  0  COORDINATES:    0.000000    0.000000    0.000000


 **********************************************************************************************************************************
 DATASETS  * FILE   NREC   LENGTH (MB)   RECORD NAMES
              1      19     4940.30       500      610      700      900      950      970     1000      129      960     1100   
                                          VAR    BASINP    GEOM    SYMINP    ZMAT    AOBASIS   BASIS     P2S    ABASIS      S 
                                         1400     1410     1200     1210     1080     1600     1650     1300     1700   
                                           T        V       H0       H01     AOSYM     SMH    MOLCAS    ERIS     OPER   

 PROGRAMS   *        TOTAL       INT
 CPU TIMES  *        83.48     83.39
 REAL TIME  *       109.10 SEC
 DISK USED  *        23.36 GB
 **********************************************************************************************************************************


 Program * Restricted Hartree-Fock

 Orbital guess generated from atomic densities. Full valence occupancy:   66

 Initial occupancy:  48

 NELEC=   96   SYM=1   MS2= 0   THRE=1.0D-08   THRD=3.2D-06   THRG=3.2D-06  HFMA2=F  DIIS_START=2   DIIS_MAX=10   DIIS_INCORE=F

 Level shifts:    0.00 (CLOSED)    0.00 (OPEN)    0.30 (GAP_MIN)

 ITER           ETOT              DE          GRAD        DDIFF     DIIS  NEXP   TIME(IT)  TIME(TOT)  DIAG
   1    -1740.58293937   -1740.58293937     0.00D+00     0.50D-01     0     0       9.79     18.83    start
   2    -1740.65312341      -0.07018404     0.13D-02     0.23D-02     1     0       9.65     28.48    diag
   3    -1740.66308675      -0.00996334     0.42D-03     0.86D-03     2     0       9.61     38.09    diag
   4    -1740.66348033      -0.00039358     0.10D-03     0.20D-03     3     0       9.41     47.50    diag
   5    -1740.66352021      -0.00003988     0.31D-04     0.75D-04     4     0       9.81     57.31    diag
   6    -1740.66352200      -0.00000179     0.54D-05     0.24D-04     5     0      10.30     67.61    diag
   7    -1740.66352207      -0.00000008     0.12D-05     0.52D-05     6     0      10.32     77.93    diag
   8    -1740.66352208      -0.00000000     0.24D-06     0.11D-05     7     0      10.53     88.46    fixocc
   9    -1740.66352208      -0.00000000     0.58D-07     0.15D-06     0     0      10.53     98.99    diag

 Final occupancy:  48

 !RHF STATE 1.1 Energy              -1740.663522077045
  RHF One-electron energy           -3773.654331005849
  RHF Two-electron energy            1351.689676185905
  RHF Kinetic energy                 1740.836051995746
  RHF Nuclear energy                  681.301132742899
  RHF Virial quotient                  -0.999900892494

 !RHF STATE 1.1 Dipole moment          -0.00000000    -0.00000000     0.00000000
 Dipole moment /Debye                  -0.00000000    -0.00000000     0.00000000

 Orbital energies:

           1.1          2.1          3.1          4.1          5.1          6.1          7.1          8.1          9.1         10.1
    -68.774106   -68.774106   -68.773941   -68.773941   -68.773939   -68.773939    -6.124269    -6.124207    -6.124193    -6.124062

          11.1         12.1         13.1         14.1         15.1         16.1         17.1         18.1         19.1         20.1
     -6.124053    -6.123985    -4.230347    -4.230252    -4.230247    -4.230157    -4.230153    -4.230145    -4.229931    -4.229919

          21.1         22.1         23.1         24.1         25.1         26.1         27.1         28.1         29.1         30.1
     -4.229915    -4.229876    -4.229840    -4.229828    -4.229617    -4.229608    -4.229605    -4.229523    -4.229494    -4.229414

          31.1         32.1         33.1         34.1         35.1         36.1         37.1         38.1         39.1         40.1
     -0.795745    -0.742778    -0.742530    -0.665691    -0.660318    -0.620390    -0.515209    -0.507769    -0.497916    -0.487643

          41.1         42.1         43.1         44.1         45.1         46.1         47.1         48.1         49.1         50.1
     -0.474652    -0.471692    -0.455924    -0.433209    -0.416405    -0.382081    -0.370577    -0.370319     0.091948     0.092470


 HOMO     48.1    -0.370319 =     -10.0769eV
 LUMO     49.1     0.091948 =       2.5020eV
 LUMO-HOMO         0.462267 =      12.5789eV

 Orbitals saved in record  2100.2


 **********************************************************************************************************************************
 DATASETS  * FILE   NREC   LENGTH (MB)   RECORD NAMES
              1      19     4940.30       500      610      700      900      950      970     1000      129      960     1100   
                                          VAR    BASINP    GEOM    SYMINP    ZMAT    AOBASIS   BASIS     P2S    ABASIS      S 
                                         1400     1410     1200     1210     1080     1600     1650     1300     1700   
                                           T        V       H0       H01     AOSYM     SMH    MOLCAS    ERIS     OPER   

              2       4        2.84       700     1000      520     2100   
                                         GEOM     BASIS   MCVARS     RHF  

 PROGRAMS   *        TOTAL    HF-SCF       INT
 CPU TIMES  *       182.48     99.00     83.39
 REAL TIME  *       222.94 SEC
 DISK USED  *        23.36 GB
 **********************************************************************************************************************************

 Dump information in style XML to xml output                                                                      

 Orbitals will not be exported.

 **********************************************************************************************************************************

 HF/cc-pVTZ energy=  -1740.663522077045

          HF-SCF
  -1740.66352208
 **********************************************************************************************************************************
 Molpro calculation terminated
