
 Working directory              : /tmp/peterk/molpro.aWP2isBKps/
 Global scratch directory       : /tmp/peterk/molpro.aWP2isBKps/
 Wavefunction directory         : /home/peterk/wfu/
 Main file repository           : /tmp/peterk/molpro.aWP2isBKps/

 id        : peterk

 Nodes     nprocs
 marat        1
 GA implementation: MPI file
 GA implementation (serial work in mppx): MPI file

 Using customized tuning parameters: mindgm=1; mindgv=20; mindgc=4; mindgr=1; noblas=0; minvec=7
 default implementation of scratch files=df  


 Variables initialized (1032), CPU time= 0.01 sec
 
 core,small
 angstrom
 
 geometry={
 H1;C1,H1,1.06209557;C2,C1,1.20366063,H1,180;H2,C2,1.06209557,C1,180,H1,0
 }
 basis=cc-pCV5Z
 
 
 
 hf; ccsd
 
 
 
 {put,xml;noorbitals,nobasis}
 Commands initialized (841), CPU time= 0.00 sec, 708 directives.
 Default parameters read. Elapsed time= 0.06 sec

 Checking input...
 Passed
1


                                         ***  PROGRAM SYSTEM MOLPRO  ***
                                       Copyright, TTI GmbH Stuttgart, 2015
                                    Version 2023.1 linked Sat Jun 10 08:01:27 2023


 **********************************************************************************************************************************
 LABEL *                                                                                                                                                                 
  (16 PROC) 64 bit serial version                                                        DATE: 12-Jun-23          TIME: 11:47:10  
 **********************************************************************************************************************************

 SHA1:             8376d659ba1296ca7ee514c57770fe2c96af278c
 **********************************************************************************************************************************

 Memory per process:      1074 MW
 Total memory per node:   1074 MW

 GA preallocation disabled
 GA check disabled

 Variable memory set to 1073.7 MW

 ZUNIT=ANG

 SETTING BASIS          =    CC-PCV5Z


 Recomputing integrals since basis changed


 Using spherical harmonics

 Library entry H      S cc-pV5Z              selected for orbital group  1
 Library entry H      P cc-pV5Z              selected for orbital group  1
 Library entry H      D cc-pV5Z              selected for orbital group  1
 Library entry H      F cc-pV5Z              selected for orbital group  1
 Library entry H      G cc-pV5Z              selected for orbital group  1
 Library entry C      S cc-pCV5Z             selected for orbital group  2
 Library entry C      P cc-pCV5Z             selected for orbital group  2
 Library entry C      D cc-pCV5Z             selected for orbital group  2
 Library entry C      F cc-pCV5Z             selected for orbital group  2
 Library entry C      G cc-pCV5Z             selected for orbital group  2
 Library entry C      H cc-pCV5Z             selected for orbital group  2


 PROGRAM * SEWARD (Integral evaluation for generally contracted gaussian basis sets)     Author: Roland Lindh, 1990

 Geometry written to block  1 of record 700

 Orientation using atomic masses  
 Molecule type: Linear
 Symmetry elements: X,Y,Z
 Rotational constants:      35.3856639     35.3856639      0.0000000 GHz  (calculated with average atomic masses)

 Point group  D2h 



 ATOMIC COORDINATES

 NR  ATOM    CHARGE       X              Y              Z

   1  H1      1.00    0.000000000    0.000000000   -3.144364214
   2  H2      1.00    0.000000000    0.000000000    3.144364214
   3  C1      6.00    0.000000000    0.000000000   -1.137294469
   4  C2      6.00    0.000000000    0.000000000    1.137294469

 Bond lengths in Bohr (Angstrom)

 1-3  2.007069745  2-4  2.007069745  3-4  2.274588938
     ( 1.062095570)     ( 1.062095570)     ( 1.203660630)

 Bond angles

  1-3-4  179.99999829   2-4-3  179.99999829

 NUCLEAR CHARGE:                   14
 NUMBER OF PRIMITIVE AOS:         570
 NUMBER OF SYMMETRY AOS:          440
 NUMBER OF CONTRACTIONS:          400   (   77Ag  +   48B3u +   48B2u +   27B1g +   77B1u +   48B2g +   48B3g +   27Au  )
 NUMBER OF INNER CORE ORBITALS:     0   (    0Ag  +    0B3u +    0B2u +    0B1g +    0B1u +    0B2g +    0B3g +    0Au  )
 NUMBER OF OUTER CORE ORBITALS:     2   (    1Ag  +    0B3u +    0B2u +    0B1g +    1B1u +    0B2g +    0B3g +    0Au  )
 NUMBER OF VALENCE ORBITALS:       10   (    3Ag  +    1B3u +    1B2u +    0B1g +    3B1u +    1B2g +    1B3g +    0Au  )


 NUCLEAR REPULSION ENERGY   24.76756786

 EXTRA SYMMETRY OF AOS IN SYMMETRY 1:   1 1 1 1 1 1 1 1 1 1   2 1 2 1 2 1 2 1 2 1   3 2 1 1 1 1 1 1 1 1   1 1 1 1 1 1 1 1 1 1
                                        1 1 2 1 2 1 2 1 2 1   2 1 2 1 2 1 2 1 2 1   2 1 2 1 2 1 3 2 1 3   2 1 3 2 2 3 1
 EXTRA SYMMETRY OF AOS IN SYMMETRY 2:   1 1 1 1 1 1 1 1 2 1   2 1 2 1 1 1 1 1 1 1   1 1 1 1 1 1 1 1 1 1   2 1 2 1 2 1 2 1 2 1
                                        2 1 2 1 2 1 2 3
 EXTRA SYMMETRY OF AOS IN SYMMETRY 3:   1 1 1 1 1 1 1 1 2 1   2 1 2 1 1 1 1 1 1 1   1 1 1 1 1 1 1 1 1 1   2 1 2 1 2 1 2 1 2 1
                                        2 1 2 1 2 1 2 3
 EXTRA SYMMETRY OF AOS IN SYMMETRY 4:   1 1 1 1 1 1 2 1 1 1   1 1 1 1 1 1 1 1 1 1   2 1 2 1 2 2 1
 EXTRA SYMMETRY OF AOS IN SYMMETRY 5:   1 1 1 1 1 1 1 1 1 1   2 1 2 1 2 1 2 1 2 1   3 2 1 1 1 1 1 1 1 1   1 1 1 1 1 1 1 1 1 1
                                        1 1 2 1 2 1 2 1 2 1   2 1 2 1 2 1 2 1 2 1   2 1 2 1 2 1 3 2 1 3   2 1 3 2 2 3 1
 EXTRA SYMMETRY OF AOS IN SYMMETRY 6:   1 1 1 1 1 1 1 1 2 1   2 1 2 1 1 1 1 1 1 1   1 1 1 1 1 1 1 1 1 1   2 1 2 1 2 1 2 1 2 1
                                        2 1 2 1 2 1 2 3
 EXTRA SYMMETRY OF AOS IN SYMMETRY 7:   1 1 1 1 1 1 1 1 2 1   2 1 2 1 1 1 1 1 1 1   1 1 1 1 1 1 1 1 1 1   2 1 2 1 2 1 2 1 2 1
                                        2 1 2 1 2 1 2 3
 EXTRA SYMMETRY OF AOS IN SYMMETRY 8:   1 1 1 1 1 1 2 1 1 1   1 1 1 1 1 1 1 1 1 1   2 1 2 1 2 2 1

 Eigenvalues of metric

         1 0.250E-05 0.281E-04 0.725E-04 0.191E-03 0.266E-03 0.351E-03 0.437E-03 0.569E-03
         2 0.309E-03 0.860E-03 0.494E-02 0.895E-02 0.125E-01 0.364E-01 0.411E-01 0.614E-01
         3 0.309E-03 0.860E-03 0.494E-02 0.895E-02 0.125E-01 0.364E-01 0.411E-01 0.614E-01
         4 0.318E-01 0.600E-01 0.767E-01 0.149E+00 0.177E+00 0.208E+00 0.368E+00 0.436E+00
         5 0.200E-05 0.862E-05 0.111E-04 0.636E-04 0.125E-03 0.143E-03 0.248E-03 0.369E-03
         6 0.101E-03 0.246E-03 0.475E-03 0.752E-03 0.729E-02 0.229E-01 0.294E-01 0.366E-01
         7 0.101E-03 0.246E-03 0.475E-03 0.752E-03 0.729E-02 0.229E-01 0.294E-01 0.366E-01
         8 0.492E-02 0.179E-01 0.268E-01 0.609E-01 0.886E-01 0.148E+00 0.232E+00 0.330E+00


 Contracted 2-electron integrals neglected if value below      1.0D-12
 AO integral compression algorithm  1   Integral accuracy      1.0D-12

     2088.763 MB (compressed) written to integral file ( 43.8%)


 NUMBER OF SORTED TWO-ELECTRON INTEGRALS:  409248324.     BUFFER LENGTH:  32768
 NUMBER OF SEGMENTS:  13  SEGMENT LENGTH:   31999968      RECORD LENGTH: 524288

 Memory used in sort:      32.56 MW

 SORT1 READ   596751864. AND WROTE   306506483. INTEGRALS IN    883 RECORDS. CPU TIME:    23.85 SEC, REAL TIME:    74.56 SEC
 SORT2 READ   306506483. AND WROTE   409248324. INTEGRALS IN   7968 RECORDS. CPU TIME:    10.88 SEC, REAL TIME:    44.45 SEC

 FILE SIZES:   FILE 1:  2122.4 MBYTE,  FILE 4:  3703.6 MBYTE,   TOTAL:   5826.1 MBYTE

 OPERATOR DM      FOR CENTER  0  COORDINATES:    0.000000    0.000000    0.000000


 **********************************************************************************************************************************
 DATASETS  * FILE   NREC   LENGTH (MB)   RECORD NAMES
              1      19     1458.65       500      610      700      900      950      970     1000      129      960     1100   
                                          VAR    BASINP    GEOM    SYMINP    ZMAT    AOBASIS   BASIS     P2S    ABASIS      S 
                                         1400     1410     1200     1210     1080     1600     1650     1300     1700   
                                           T        V       H0       H01     AOSYM     SMH    MOLCAS    ERIS     OPER   

 PROGRAMS   *        TOTAL       INT
 CPU TIMES  *       159.83    159.70
 REAL TIME  *       250.20 SEC
 DISK USED  *         5.43 GB
 **********************************************************************************************************************************


 Program * Restricted Hartree-Fock

 Orbital guess generated from atomic densities. Full valence occupancy:    4   1   1   0   4   1   1   0


 Initial occupancy:   3   1   1   0   2   0   0   0

 NELEC=   14   SYM=1   MS2= 0   THRE=1.0D-08   THRD=3.2D-06   THRG=3.2D-06  HFMA2=F  DIIS_START=2   DIIS_MAX=10   DIIS_INCORE=F

 Level shifts:    0.00 (CLOSED)    0.00 (OPEN)    0.30 (GAP_MIN)

 ITER           ETOT              DE          GRAD        DDIFF     DIIS  NEXP   TIME(IT)  TIME(TOT)  DIAG
   1      -76.83970858     -76.83970858     0.00D+00     0.51D-01     0     0       0.59      1.18    start
   2      -76.85397577      -0.01426719     0.58D-02     0.39D-02     1     0       0.60      1.78    diag
   3      -76.85535179      -0.00137602     0.17D-02     0.10D-02     2     0       0.57      2.35    diag
   4      -76.85547870      -0.00012691     0.36D-03     0.34D-03     3     0       0.61      2.96    diag
   5      -76.85548437      -0.00000567     0.76D-04     0.73D-04     4     0       0.59      3.55    diag
   6      -76.85548459      -0.00000022     0.14D-04     0.16D-04     5     0       0.60      4.15    diag
   7      -76.85548459      -0.00000000     0.19D-05     0.20D-05     6     0       0.64      4.79    diag
   8      -76.85548459      -0.00000000     0.27D-06     0.25D-06     0     0       0.60      5.39    fixocc

 Final occupancy:   3   1   1   0   2   0   0   0

 !RHF STATE 1.1 Energy                -76.855484594395
  RHF One-electron energy            -151.680415154197
  RHF Two-electron energy              50.057362700887
  RHF Kinetic energy                   76.703855648085
  RHF Nuclear energy                   24.767567858915
  RHF Virial quotient                  -1.001976809966

 !RHF STATE 1.1 Dipole moment           0.00000000     0.00000000     0.00000000
 Dipole moment /Debye                   0.00000000     0.00000000     0.00000000

 Orbital energies:

           1.1          2.1          3.1          4.1          5.1
    -11.242640    -1.030010    -0.681612     0.105120     0.202069

           1.2          2.2          3.2
     -0.410928     0.210335     0.532771

           1.3          2.3          3.3
     -0.410928     0.210335     0.532771

           1.4          2.4
      0.488946     1.404883

           1.5          2.5          3.5          4.5
    -11.238834    -0.767891     0.103082     0.220046

           1.6          2.6
      0.144092     0.338843

           1.7          2.7
      0.144092     0.338843

           1.8          2.8
      0.680410     1.599095


 HOMO      1.3    -0.410928 =     -11.1819eV
 LUMO      3.5     0.103082 =       2.8050eV
 LUMO-HOMO         0.514011 =      13.9869eV

 Orbitals saved in record  2100.2


 **********************************************************************************************************************************
 DATASETS  * FILE   NREC   LENGTH (MB)   RECORD NAMES
              1      19     1458.65       500      610      700      900      950      970     1000      129      960     1100   
                                          VAR    BASINP    GEOM    SYMINP    ZMAT    AOBASIS   BASIS     P2S    ABASIS      S 
                                         1400     1410     1200     1210     1080     1600     1650     1300     1700   
                                           T        V       H0       H01     AOSYM     SMH    MOLCAS    ERIS     OPER   

              2       4        0.83       700     1000      520     2100   
                                         GEOM     BASIS   MCVARS     RHF  

 PROGRAMS   *        TOTAL    HF-SCF       INT
 CPU TIMES  *       165.22      5.39    159.70
 REAL TIME  *       256.40 SEC
 DISK USED  *         5.43 GB
 **********************************************************************************************************************************


 PROGRAM * CCSD (Closed-shell coupled cluster)     Authors: C. Hampel, H.-J. Werner, 1991, M. Deegan, P.J. Knowles, 1992


 CORETYPE=SMALL

 Convergence thresholds:  THRVAR = 1.00D-08  THRDEN = 1.00D-06

 Number of closed-shell orbitals:   7 (   3   1   1   0   2   0   0   0 )
 Number of external orbitals:     393 (  74  47  47  27  75  48  48  27 )

 Molecular orbitals read from record     2100.2  Type=RHF/CANONICAL  

 Number of N-1 electron functions:               7
 Number of N-2 electron functions:              28
 Number of singly external CSFs:               466
 Number of doubly external CSFs:            502679
 Total number of CSFs:                      503146

 Length of J-op  integral file:               0.00 MB
 Length of K-op  integral file:               1.61 MB
 Length of 3-ext integral record:             0.00 MB

 Integral transformation finished. Total CPU:   3.45 sec, npass=  1  Memory used:  17.86 MW

 Reference energy:                    -76.85548459

 MP2 singlet pair energy:              -0.31731994
 MP2 triplet pair energy:              -0.12731774
 MP2 correlation energy:               -0.44463769
 MP2 total energy:                    -77.30012228

 SCS-MP2 correlation energy:           -0.46000386   (PS=  1.200000  PT=  0.333333)
 SCS-MP2 total energy:                -77.31548846

 ITER.      SQ.NORM     CORR.ENERGY   TOTAL ENERGY   ENERGY CHANGE        DEN1      VAR(S)    VAR(P)  DIIS     TIME  TIME/IT
   1      1.12089440    -0.45200481   -77.30748940    -0.00736712     0.00445894  0.26D-02  0.23D-02  1  1   172.01     3.34
   2      1.12989572    -0.45296922   -77.30845382    -0.00096441    -0.00971553  0.50D-04  0.40D-03  2  2   174.91     3.30
   3      1.13408605    -0.45320180   -77.30868639    -0.00023258    -0.00202095  0.20D-04  0.65D-04  3  3   177.68     3.23
   4      1.13690130    -0.45323209   -77.30871668    -0.00003029    -0.00117179  0.84D-06  0.72D-05  4  4   180.54     3.21
   5      1.13761725    -0.45325872   -77.30874332    -0.00002663    -0.00016146  0.59D-07  0.51D-06  5  5   183.38     3.19
   6      1.13772521    -0.45326237   -77.30874696    -0.00000365    -0.00000927  0.55D-08  0.39D-07  6  6   186.19     3.17
   7      1.13774154    -0.45326309   -77.30874768    -0.00000072    -0.00000490  0.11D-08  0.33D-08  6  2   189.08     3.17
   8      1.13774381    -0.45326302   -77.30874762     0.00000006    -0.00000057  0.12D-09  0.24D-09  6  1   192.02     3.17

 Norm of t1 vector:      0.06535286      S-energy:     0.00000042      T1 diagnostic:  0.01235053
                                                                       D1 diagnostic:  0.03144120
                                                                       D2 diagnostic:  0.18016998 (internal)

 Doubles amplitudes (print threshold =  0.500E-01):

         I         J         SYM. A    SYM. B    A         B      T(IJ, AB)

         4         4         6         6         1         1     -0.05524380
         5         5         7         7         1         1     -0.05524380


 RESULTS
 =======

  Reference energy                    -76.855484594395

  Correlated core orbitals:             1.1       1.5
  Orbital energies:                   -11.2426  -11.2388

  CCSD core-core energy                -0.083465737796
  CCSD core-valence energy             -0.028531932608
  CCSD valence correlation energy      -0.341265354296

  CCSD singlet pair energy             -0.341122807532
  CCSD triplet pair energy             -0.112140633440
  CCSD correlation energy              -0.453263024699

 !CCSD total energy                   -77.308747619094

 Timing summary (sec):

 STEP                 CPU(USER)    SYS     CPU(TOT)    WALL
 Transformation          3.47      0.69      4.16      6.37
 CCSD iterations       188.57      2.11    190.68     25.54

 Program statistics:

 Available memory in ccsd:              1073741625
 Min. memory needed in ccsd:               1587731
 Max. memory used in ccsd:                 2012452
 Max. memory used in cckext:               1906005 ( 8 integral passes)



 **********************************************************************************************************************************
 DATASETS  * FILE   NREC   LENGTH (MB)   RECORD NAMES
              1      20     1673.30       500      610      700      900      950      970     1000      129      960     1100   
                                          VAR    BASINP    GEOM    SYMINP    ZMAT    AOBASIS   BASIS     P2S    ABASIS      S 
                                         1400     1410     1200     1210     1080     1600     1650     1300     1700     1380   
                                           T        V       H0       H01     AOSYM     SMH    MOLCAS    ERIS     OPER     JKOP   

              2       4        0.83       700     1000      520     2100   
                                         GEOM     BASIS   MCVARS     RHF  

 PROGRAMS   *        TOTAL      CCSD    HF-SCF       INT
 CPU TIMES  *       191.56     26.33      5.39    159.70
 REAL TIME  *       288.48 SEC
 DISK USED  *         5.43 GB
 **********************************************************************************************************************************

 Dump information in style XML to xml output                                                                      

 Orbitals will not be exported.

 **********************************************************************************************************************************

 CCSD/cc-pCV5Z energy=    -77.308747619094

            CCSD          HF-SCF
    -77.30874762    -76.85548459
 **********************************************************************************************************************************
 Molpro calculation terminated
