
 Working directory              : /var/folders/2v/xbgp75_9785319ghcgb4zr4r0000gp/T//molpro.sEW4LNDdce/
 Global scratch directory       : /var/folders/2v/xbgp75_9785319ghcgb4zr4r0000gp/T//molpro.sEW4LNDdce/
 Wavefunction directory         : /Users/sacpjk/wfu/
 Main file repository           : /var/folders/2v/xbgp75_9785319ghcgb4zr4r0000gp/T//molpro.sEW4LNDdce/

 id        : peterk

 Nodes                        nprocs
 Cardiff-University-G34YLXT77Y    1
 GA implementation: MPI file
 GA implementation (serial work in mppx): MPI file

 Using customized tuning parameters: mindgm=1; mindgv=20; mindgc=4; mindgr=1; noblas=0; minvec=7
 default implementation of scratch files=df  


 Variables initialized (1032), CPU time= 0.00 sec
 
 symmetry,nosym
 
 
 geometry={
           10
     H          0.00000000     -1.42064151      1.71659501
     C          0.00000000      0.67017024      0.92994073
     C          0.00000000     -0.67017024      0.92994073
     C          0.00000000      0.78631128     -0.58457581
     C          0.00000000     -0.78631128     -0.58457581
     H          0.89010932     -1.24659944     -1.03097997
     H         -0.89010932     -1.24659944     -1.03097997
     H          0.00000000      1.42064151      1.71659501
     H         -0.89010932      1.24659944     -1.03097997
     H          0.89010932      1.24659944     -1.03097997
 }
 basis=cc-pVTZ
 
 
 
 hf; hf; papt; mp4
 
 
 
 {put,xml;noorbitals,nobasis}
 Commands initialized (841), CPU time= 0.01 sec, 704 directives.
 Default parameters read. Elapsed time= 0.88 sec

 Checking input...
 Passed
1


                                         ***  PROGRAM SYSTEM MOLPRO  ***
                                       Copyright, TTI GmbH Stuttgart, 2015
                                    Version 2023.1 linked Tue Jun  6 09:54:11 2023


 **********************************************************************************************************************************
 LABEL *                                                                                                                                                                 
  64 bit serial version                                                                  DATE: 11-Jun-23          TIME: 16:28:50  
 **********************************************************************************************************************************

 SHA1:             8ebb0dd001088a5c915591db1a321413035db0b1
 **********************************************************************************************************************************

 Memory per process:       393 MW
 Total memory per node:    524 MW
 Total GA space:           131 MW

 GA preallocation disabled
 GA check enabled

 Variable memory set to 393.2 MW

 ZSYMEL=NOSYM


 Geometry recognized as XYZ

 SETTING BASIS          =    CC-PVTZ


 Recomputing integrals since basis changed


 Using spherical harmonics

 Library entry H      S cc-pVTZ              selected for orbital group  1
 Library entry H      P cc-pVTZ              selected for orbital group  1
 Library entry H      D cc-pVTZ              selected for orbital group  1
 Library entry C      S cc-pVTZ              selected for orbital group  2
 Library entry C      P cc-pVTZ              selected for orbital group  2
 Library entry C      D cc-pVTZ              selected for orbital group  2
 Library entry C      F cc-pVTZ              selected for orbital group  2


 PROGRAM * SEWARD (Integral evaluation for generally contracted gaussian basis sets)     Author: Roland Lindh, 1990

 Geometry written to block  1 of record 700


 Point group  C1  



 ATOMIC COORDINATES

 NR  ATOM    CHARGE       X              Y              Z

   1  H       1.00    0.000000000   -2.684623375    3.243894436
   2  C       6.00    0.000000000    1.266438210    1.757333292
   3  C       6.00    0.000000000   -1.266438210    1.757333292
   4  C       6.00    0.000000000    1.485912968   -1.104688180
   5  C       6.00    0.000000000   -1.485912968   -1.104688180
   6  H       1.00    1.682062836   -2.355731529   -1.948269783
   7  H       1.00   -1.682062836   -2.355731529   -1.948269783
   8  H       1.00    0.000000000    2.684623375    3.243894436
   9  H       1.00   -1.682062836    2.355731529   -1.948269783
  10  H       1.00    1.682062836    2.355731529   -1.948269783

 Bond lengths in Bohr (Angstrom)

 1-3  2.054534788  2-3  2.532876421  2-4  2.870424372  2-5  3.970718312  2-8  2.054534788
     ( 1.087212989)     ( 1.340340480)     ( 1.518963163)     ( 2.101213642)     ( 1.087212989)

  3- 4  3.970718312   3- 5  2.870424372   4- 5  2.971825936   4- 9  2.073053215   4-10  2.073053215
       ( 2.101213642)       ( 1.518963163)       ( 1.572622560)       ( 1.097012519)       ( 1.097012519)

 5-6  2.073053215  5-7  2.073053215
     ( 1.097012519)     ( 1.097012519)

 Bond angles

  1-3-2  133.65154087   1-3-4  179.77060551   1-3-5  131.96330183   2-3-4   46.11906464

  2-3-5   94.38515730   2-4-3   39.49577806   2-4-5   85.61484270   2-4-9  115.96471444

  2- 4-10  115.96471444   2- 5- 3   39.49577806   2- 5- 4   46.11906464   2- 5- 6  125.74260410

  2-5-7  125.74260410   3-2-4   94.38515730   3-2-5   46.11906464   3-2-8  133.65154087

  3- 4- 5   46.11906464   3- 4- 9  125.74260410   3- 4-10  125.74260410   3- 5- 4   85.61484270

  3-5-6  115.96471444   3-5-7  115.96471444   4-2-5   48.26609266   4-2-8  131.96330183

  4-3-5   48.26609266   4-5-6  114.80828385   4-5-7  114.80828385   5-2-8  179.77060551

  5- 4- 9  114.80828385   5- 4-10  114.80828385   6- 5- 7  108.46469695   9- 4-10  108.46469695

 NUCLEAR CHARGE:                   30
 NUMBER OF PRIMITIVE AOS:         290
 NUMBER OF SYMMETRY AOS:          264
 NUMBER OF CONTRACTIONS:          204   (  204A   )
 NUMBER OF INNER CORE ORBITALS:     0   (    0A   )
 NUMBER OF OUTER CORE ORBITALS:     4   (    4A   )
 NUMBER OF VALENCE ORBITALS:       22   (   22A   )


 NUCLEAR REPULSION ENERGY  112.98875052


 Eigenvalues of metric

         1 0.110E-03 0.825E-03 0.106E-02 0.115E-02 0.133E-02 0.142E-02 0.143E-02 0.151E-02


 Contracted 2-electron integrals neglected if value below      1.0D-11
 AO integral compression algorithm  1   Integral accuracy      1.0D-11

     767.558 MB (compressed) written to integral file ( 40.2%)


 NUMBER OF SORTED TWO-ELECTRON INTEGRALS:  218624505.     BUFFER LENGTH:  32768
 NUMBER OF SEGMENTS:  14  SEGMENT LENGTH:   15999503      RECORD LENGTH: 524288

 Memory used in sort:      16.56 MW

 SORT1 READ   238659226. AND WROTE   178052952. INTEGRALS IN    517 RECORDS. CPU TIME:     1.74 SEC, REAL TIME:     2.46 SEC
 SORT2 READ   178052952. AND WROTE   218624505. INTEGRALS IN   2928 RECORDS. CPU TIME:     1.30 SEC, REAL TIME:     1.71 SEC

 FILE SIZES:   FILE 1:   799.3 MBYTE,  FILE 4:  2168.5 MBYTE,   TOTAL:   2967.8 MBYTE

 OPERATOR DM      FOR CENTER  0  COORDINATES:    0.000000    0.000000    0.000000


 **********************************************************************************************************************************
 DATASETS  * FILE   NREC   LENGTH (MB)   RECORD NAMES
              1      19      705.95       500      610      700      900      950      970     1000      129      960     1100   
                                          VAR    BASINP    GEOM    SYMINP    ZMAT    AOBASIS   BASIS     P2S    ABASIS      S 
                                         1400     1410     1200     1210     1080     1600     1650     1300     1700   
                                           T        V       H0       H01     AOSYM     SMH    MOLCAS    ERIS     OPER   

 PROGRAMS   *        TOTAL       INT
 CPU TIMES  *         8.66      8.55
 REAL TIME  *        16.32 SEC
 DISK USED  *         2.76 GB
 **********************************************************************************************************************************


 Program * Restricted Hartree-Fock

 Orbital guess generated from atomic densities. Full valence occupancy:   26

 Initial occupancy:  15

 NELEC=   30   SYM=1   MS2= 0   THRE=1.0D-08   THRD=3.2D-06   THRG=3.2D-06  HFMA2=F  DIIS_START=2   DIIS_MAX=10   DIIS_INCORE=F

 Level shifts:    0.00 (CLOSED)    0.00 (OPEN)    0.30 (GAP_MIN)

 ITER           ETOT              DE          GRAD        DDIFF     DIIS  NEXP   TIME(IT)  TIME(TOT)  DIAG
   1     -154.90705470    -154.90705470     0.00D+00     0.51D-01     0     0       1.13      2.19    start
   2     -154.94627748      -0.03922278     0.32D-02     0.43D-02     1     0       1.15      3.34    diag
   3     -154.95163636      -0.00535889     0.13D-02     0.15D-02     2     0       1.20      4.54    diag
   4     -154.95258158      -0.00094522     0.45D-03     0.56D-03     3     0       1.19      5.73    diag
   5     -154.95260544      -0.00002385     0.55D-04     0.15D-03     4     0       1.24      6.97    diag
   6     -154.95260664      -0.00000120     0.16D-04     0.28D-04     5     0       1.18      8.15    diag
   7     -154.95260675      -0.00000012     0.44D-05     0.95D-05     6     0       1.21      9.36    diag
   8     -154.95260676      -0.00000000     0.80D-06     0.16D-05     7     0       1.19     10.55    fixocc
   9     -154.95260676      -0.00000000     0.18D-06     0.38D-06     0     0       1.24     11.79    diag

 Final occupancy:  15

 !RHF STATE 1.1 Energy               -154.952606757948
  RHF One-electron energy            -431.644129413057
  RHF Two-electron energy             163.702772130393
  RHF Kinetic energy                  154.665244716812
  RHF Nuclear energy                  112.988750524717
  RHF Virial quotient                  -1.001857961313

 !RHF STATE 1.1 Dipole moment           0.00000000     0.00000000    -0.02630490
 Dipole moment /Debye                   0.00000000     0.00000000    -0.06686040

 Orbital energies:

           1.1          2.1          3.1          4.1          5.1          6.1          7.1          8.1          9.1         10.1
    -11.228166   -11.227468   -11.227267   -11.226221    -1.142205    -0.895362    -0.874743    -0.705627    -0.671769    -0.619700

          11.1         12.1         13.1         14.1         15.1         16.1         17.1
     -0.531498    -0.503828    -0.461442    -0.454236    -0.349758     0.152241     0.165400


 HOMO     15.1    -0.349758 =      -9.5174eV
 LUMO     16.1     0.152241 =       4.1427eV
 LUMO-HOMO         0.501999 =      13.6601eV

 Orbitals saved in record  2100.2


 **********************************************************************************************************************************
 DATASETS  * FILE   NREC   LENGTH (MB)   RECORD NAMES
              1      19      705.95       500      610      700      900      950      970     1000      129      960     1100   
                                          VAR    BASINP    GEOM    SYMINP    ZMAT    AOBASIS   BASIS     P2S    ABASIS      S 
                                         1400     1410     1200     1210     1080     1600     1650     1300     1700   
                                           T        V       H0       H01     AOSYM     SMH    MOLCAS    ERIS     OPER   

              2       4        1.19       700     1000      520     2100   
                                         GEOM     BASIS   MCVARS     RHF  

 PROGRAMS   *        TOTAL    HF-SCF       INT
 CPU TIMES  *        20.45     11.80      8.55
 REAL TIME  *        30.22 SEC
 DISK USED  *         2.76 GB
 **********************************************************************************************************************************


 Program * Restricted Hartree-Fock

 Molecular orbitals read from record     2100.2  Type=RHF/CANONICAL  

 Initial occupancy:  15

 NELEC=   30   SYM=1   MS2= 0   THRE=1.0D-08   THRD=3.2D-06   THRG=3.2D-06  HFMA2=F  DIIS_START=2   DIIS_MAX=10   DIIS_INCORE=F

 Level shifts:    0.00 (CLOSED)    0.00 (OPEN)    0.30 (GAP_MIN)

 ITER           ETOT              DE          GRAD        DDIFF     DIIS  NEXP   TIME(IT)  TIME(TOT)  DIAG
   1     -154.95260676    -154.95260676     0.00D+00     0.52D-01     0     0       1.19      1.19    start
   2     -154.95260676      -0.00000000     0.74D-07     0.13D-06     1     0       1.18      2.37    diag

 Final occupancy:  15

 !RHF STATE 1.1 Energy               -154.952606757988
  RHF One-electron energy            -431.644135140716
  RHF Two-electron energy             163.702777858012
  RHF Kinetic energy                  154.665244752455
  RHF Nuclear energy                  112.988750524717
  RHF Virial quotient                  -1.001857961082

 !RHF STATE 1.1 Dipole moment          -0.00000000    -0.00000000    -0.02631871
 Dipole moment /Debye                  -0.00000000    -0.00000000    -0.06689550

 Orbital energies:

           1.1          2.1          3.1          4.1          5.1          6.1          7.1          8.1          9.1         10.1
    -11.228167   -11.227468   -11.227267   -11.226222    -1.142205    -0.895362    -0.874743    -0.705627    -0.671769    -0.619700

          11.1         12.1         13.1         14.1         15.1         16.1         17.1
     -0.531498    -0.503828    -0.461442    -0.454236    -0.349758     0.152241     0.165400


 HOMO     15.1    -0.349758 =      -9.5174eV
 LUMO     16.1     0.152241 =       4.1427eV
 LUMO-HOMO         0.501999 =      13.6601eV

 Orbitals saved in record  2101.2


 **********************************************************************************************************************************
 DATASETS  * FILE   NREC   LENGTH (MB)   RECORD NAMES
              1      19      705.95       500      610      700      900      950      970     1000      129      960     1100   
                                          VAR    BASINP    GEOM    SYMINP    ZMAT    AOBASIS   BASIS     P2S    ABASIS      S 
                                         1400     1410     1200     1210     1080     1600     1650     1300     1700   
                                           T        V       H0       H01     AOSYM     SMH    MOLCAS    ERIS     OPER   

              2       5        2.41       700     1000      520     2100     2101   
                                         GEOM     BASIS   MCVARS     RHF      RHF  

 PROGRAMS   *        TOTAL    HF-SCF    HF-SCF       INT
 CPU TIMES  *        22.83      2.38     11.80      8.55
 REAL TIME  *        33.57 SEC
 DISK USED  *         2.76 GB
 **********************************************************************************************************************************


 PROGRAM * PAPT (Closed-shell)     Authors: C. Hampel, H.-J. Werner, 1991, P.J. Knowles, 2021


 Convergence thresholds:  THRVAR = 1.00D-08  THRDEN = 1.00D-06

 Number of core orbitals:           4 (   4 )
 Number of closed-shell orbitals:  11 (  11 )
 Number of external orbitals:     189 ( 189 )

 Molecular orbitals read from record     2101.2  Type=RHF/CANONICAL  

 Number of N-1 electron functions:              11
 Number of N-2 electron functions:              66
 Number of singly external CSFs:              2079
 Number of doubly external CSFs:           2162160
 Total number of CSFs:                     2164240

 Length of J-op  integral file:               0.00 MB
 Length of K-op  integral file:               2.92 MB

 Integral transformation finished. Total CPU:   2.51 sec, npass=  1  Memory used:   5.49 MW

 Reference energy:                   -154.95260676

                        CORR.ENERGY   TOTAL ENERGY   ENERGY CHANGE
 MP2:                   -0.66021215  -155.61281891    -0.66021215

 SCS-MP2 correlation energy:           -0.66050987   (PS=  1.200000  PT=  0.333333)
 SCS-MP2 total energy:               -155.61311663
 Iteration:   1     0.2468D+00
 Iteration:   2     0.3566D+00
 Iteration:   3     0.7930D-01
 Iteration:   4     0.8746D-01
 Iteration:   5     0.4286D-01
 Iteration:   6     0.2176D-01
 Iteration:   7     0.6314D-01
 Iteration:   8     0.6870D-02
 Iteration:   9     0.1200D-01
 Iteration:  10     0.3003D-02
 Iteration:  11     0.2073D-02
 Iteration:  12     0.3384D-02
 Iteration:  13     0.7191D-03
 Iteration:  14     0.1339D-02
 Iteration:  15     0.2544D-03
 Iteration:  16     0.1331D-03
 Iteration:  17     0.3894D-03
 Iteration:  18     0.2762D-04
 PAPT operator written to  7000.1
 PAPT orbitals and eigenvalues written to  7000.2

 MP3(D):                -0.69132428  -155.64393104    -0.03111213



 RESULTS
 =======

  Reference energy                   -154.952606757988
  MP3 singlet pair energy              -0.476104755394
  MP3 triplet pair energy              -0.215219526465
  MP3 correlation energy               -0.691324281859

 !MP3 total energy                   -155.643931039847

 Timing summary (sec):

 STEP                 CPU(USER)    SYS     CPU(TOT)    WALL
 Transformation          2.64      0.22      2.86      3.14
 CCSD iterations        35.50      0.40     35.90     16.65

 Program statistics:

 Available memory in ccsd:               393215501
 Min. memory needed in ccsd:               5800879
 Max. memory used in ccsd:                 7702768
 Max. memory used in cckext:               5864010 ( 1 integral passes)



 **********************************************************************************************************************************
 DATASETS  * FILE   NREC   LENGTH (MB)   RECORD NAMES
              1      21      738.23       500      610      700      900      950      970     1000      129      960     1100   
                                          VAR    BASINP    GEOM    SYMINP    ZMAT    AOBASIS   BASIS     P2S    ABASIS      S 
                                         1400     1410     1200     1210     1080     1600     1650     1300     1700     1380   
                                           T        V       H0       H01     AOSYM     SMH    MOLCAS    ERIS     OPER     JKOP   
                                         7000   
                                        PAPT AO    

              2       6        3.46       700     1000      520     2100     2101     7000   
                                         GEOM     BASIS   MCVARS     RHF      RHF     PAPT   

 PROGRAMS   *        TOTAL      PAPT    HF-SCF    HF-SCF       INT
 CPU TIMES  *        38.03     15.19      2.38     11.80      8.55
 REAL TIME  *        53.97 SEC
 DISK USED  *         2.76 GB
 **********************************************************************************************************************************


 PROGRAM * MP4 (Closed-shell)     Authors: C. Hampel, H.-J. Werner, 1991, M. Deegan, P.J. Knowles, 1992


 Convergence thresholds:  THRVAR = 1.00D-08  THRDEN = 1.00D-06

 MP4(T)     terms to be evaluated (factor= 0.000)


 Number of core orbitals:           4 (   4 )
 Number of closed-shell orbitals:  11 (  11 )
 Number of external orbitals:     189 ( 189 )

 Molecular orbitals read from record     7000.2  Type=PAPT/CANONICAL (state 1.1)

 Number of N-1 electron functions:              11
 Number of N-2 electron functions:              66
 Number of singly external CSFs:              2079
 Number of doubly external CSFs:           2162160
 Total number of CSFs:                     2164240

 Length of J-op  integral file:               0.00 MB
 Length of K-op  integral file:               2.92 MB

 Memory could be reduced to 96.95 Mwords without degradation in triples

 Integral transformation finished. Total CPU:   6.42 sec, npass=  1  Memory used:  56.67 MW
 Orbital energies read from record       7000.2  Type=PAPT/CANONICAL (state 1.1)

 Reference energy:                   -154.95260676

                        CORR.ENERGY   TOTAL ENERGY   ENERGY CHANGE
 MP2:                   -0.69876578  -155.65137254    -0.69876578

 SCS-MP2 correlation energy:           -0.70290035   (PS=  1.200000  PT=  0.333333)
 SCS-MP2 total energy:               -155.65550711

 MP3(D):                -0.69910747  -155.65171423    -0.00034169
 MP4(DQ):               -0.68806761  -155.64067437     0.01103986
 MP4(SDQ):              -0.69298891  -155.64559566    -0.00492129

 Norm of t1 vector:      0.05626331      S-energy:    -0.00492129      T1 diagnostic:  0.00848201

 Largest off-diagonal element in interal  block of Fock matrix:  0.16D+00
 Largest off-diagonal element in external block of Fock matrix:  0.27D+00


 Total CPU time for triples:    119.02 sec


 RESULTS
 =======

  Reference energy                   -154.952606757988
  MP4(SDQ) singlet pair energy         -0.476060456644
  MP4(SDQ) triplet pair energy         -0.212007155415
  MP4(SDQ) correlation energy          -0.692988906512

  Triples contribution                 -0.036068777925
  Total correlation energy             -0.729057684437

  MP4(SDQ) total energy              -155.645595664500
 !MP4(SDTQ) total energy             -155.681664442425

 Timing summary (sec):

 STEP                 CPU(USER)    SYS     CPU(TOT)    WALL
 Transformation          7.70      0.55      8.25      9.32
 CCSD iterations        46.60      0.25     46.85     10.24
 Triples               119.02      3.91    122.93    130.35

 Program statistics:

 Available memory in ccsd:               393215501
 Min. memory needed in ccsd:               5800879
 Max. memory used in ccsd:                 7702768
 Max. memory used in cckext:               5864010 ( 1 integral passes)



 **********************************************************************************************************************************
 DATASETS  * FILE   NREC   LENGTH (MB)   RECORD NAMES
              1      22     1023.02       500      610      700      900      950      970     1000      129      960     1100   
                                          VAR    BASINP    GEOM    SYMINP    ZMAT    AOBASIS   BASIS     P2S    ABASIS      S 
                                         1400     1410     1200     1210     1080     1600     1650     1300     1700     1380   
                                           T        V       H0       H01     AOSYM     SMH    MOLCAS    ERIS     OPER     JKOP   
                                         7000     1380(1)
                                        PAPT AO   JKOP   

              2       6        3.46       700     1000      520     2100     2101     7000   
                                         GEOM     BASIS   MCVARS     RHF      RHF     PAPT   

 PROGRAMS   *        TOTAL       MP4      PAPT    HF-SCF    HF-SCF       INT
 CPU TIMES  *       173.21    135.19     15.19      2.38     11.80      8.55
 REAL TIME  *       204.28 SEC
 DISK USED  *         2.76 GB
 **********************************************************************************************************************************

 Dump information in style XML to xml output                                                                      

 Orbitals will not be exported.

 **********************************************************************************************************************************

 MP4/cc-pVTZ energy=   -155.681664442425

             MP4            PAPT          HF-SCF          HF-SCF
   -155.68166444   -155.64393104   -154.95260676   -154.95260676
 **********************************************************************************************************************************
 Molpro calculation terminated
