
 Working directory              : /var/folders/2v/xbgp75_9785319ghcgb4zr4r0000gp/T//molpro.YBJfMZsR3S/
 Global scratch directory       : /var/folders/2v/xbgp75_9785319ghcgb4zr4r0000gp/T//molpro.YBJfMZsR3S/
 Wavefunction directory         : /Users/sacpjk/wfu/
 Main file repository           : /var/folders/2v/xbgp75_9785319ghcgb4zr4r0000gp/T//molpro.YBJfMZsR3S/

 id        : peterk

 Nodes                        nprocs
 Cardiff-University-G34YLXT77Y    1
 GA implementation: MPI file
 GA implementation (serial work in mppx): MPI file

 Using customized tuning parameters: mindgm=1; mindgv=20; mindgc=4; mindgr=1; noblas=0; minvec=7
 default implementation of scratch files=df  


 Variables initialized (1032), CPU time= 0.01 sec
 
 symmetry,nosym
 
 
 geometry={
            6
     C          0.96745826     -0.11636709      0.00000000
     N         -0.30997205     -0.08985970      0.00000000
     C         -1.52110730     -0.22012413      0.00000000
     H          1.50098112     -0.12812485      0.94177700
     H          1.50098112     -0.12812485     -0.94177700
     H         -2.13834115      0.68260062      0.00000000
 }
 basis=cc-pVTZ
 
 
 
 hf; hf; papt; mp4
 
 
 
 {put,xml;noorbitals,nobasis}
 Commands initialized (841), CPU time= 0.00 sec, 704 directives.
 Default parameters read. Elapsed time= 1.54 sec

 Checking input...
 Passed
1


                                         ***  PROGRAM SYSTEM MOLPRO  ***
                                       Copyright, TTI GmbH Stuttgart, 2015
                                    Version 2023.1 linked Tue Jun  6 09:54:11 2023


 **********************************************************************************************************************************
 LABEL *                                                                                                                                                                 
  64 bit serial version                                                                  DATE: 11-Jun-23          TIME: 15:07:56  
 **********************************************************************************************************************************

 SHA1:             8ebb0dd001088a5c915591db1a321413035db0b1
 **********************************************************************************************************************************

 Memory per process:       393 MW
 Total memory per node:    524 MW
 Total GA space:           131 MW

 GA preallocation disabled
 GA check enabled

 Variable memory set to 393.2 MW

 ZSYMEL=NOSYM


 Geometry recognized as XYZ

 SETTING BASIS          =    CC-PVTZ


 Recomputing integrals since basis changed


 Using spherical harmonics

 Library entry C      S cc-pVTZ              selected for orbital group  1
 Library entry C      P cc-pVTZ              selected for orbital group  1
 Library entry C      D cc-pVTZ              selected for orbital group  1
 Library entry C      F cc-pVTZ              selected for orbital group  1
 Library entry N      S cc-pVTZ              selected for orbital group  2
 Library entry N      P cc-pVTZ              selected for orbital group  2
 Library entry N      D cc-pVTZ              selected for orbital group  2
 Library entry N      F cc-pVTZ              selected for orbital group  2
 Library entry H      S cc-pVTZ              selected for orbital group  4
 Library entry H      P cc-pVTZ              selected for orbital group  4
 Library entry H      D cc-pVTZ              selected for orbital group  4


 PROGRAM * SEWARD (Integral evaluation for generally contracted gaussian basis sets)     Author: Roland Lindh, 1990

 Geometry written to block  1 of record 700


 Point group  C1  



 ATOMIC COORDINATES

 NR  ATOM    CHARGE       X              Y              Z

   1  C       6.00    1.828231148   -0.219901930    0.000000000
   2  N       7.00   -0.585762281   -0.169810223    0.000000000
   3  C       6.00   -2.874476203   -0.415974319    0.000000000
   4  H       1.00    2.836443235   -0.242120876    1.779700600
   5  H       1.00    2.836443235   -0.242120876   -1.779700600
   6  H       1.00   -4.040879135    1.289928224    0.000000000

 Bond lengths in Bohr (Angstrom)

 1-2  2.414513089  1-4  2.045560931  1-5  2.045560931  2-3  2.301914026  3-6  2.066542834
     ( 1.277705302)     ( 1.082464228)     ( 1.082464228)     ( 1.218120444)     ( 1.093567373)

 Bond angles

  1-2-3  172.67236630   2-1-4  119.53777769   2-1-5  119.53777769   2-3-6  118.22330183

  4-1-5  120.92439085

 NUCLEAR CHARGE:                   22
 NUMBER OF PRIMITIVE AOS:         192
 NUMBER OF SYMMETRY AOS:          174
 NUMBER OF CONTRACTIONS:          132   (  132A   )
 NUMBER OF INNER CORE ORBITALS:     0   (    0A   )
 NUMBER OF OUTER CORE ORBITALS:     3   (    3A   )
 NUMBER OF VALENCE ORBITALS:       15   (   15A   )


 NUCLEAR REPULSION ENERGY   61.10533246


 Eigenvalues of metric

         1 0.118E-02 0.130E-02 0.163E-02 0.184E-02 0.189E-02 0.263E-02 0.287E-02 0.595E-02


 Contracted 2-electron integrals neglected if value below      1.0D-11
 AO integral compression algorithm  1   Integral accuracy      1.0D-11

     135.528 MB (compressed) written to integral file ( 38.2%)


 NUMBER OF SORTED TWO-ELECTRON INTEGRALS:   38531031.     BUFFER LENGTH:  32768
 NUMBER OF SEGMENTS:   3  SEGMENT LENGTH:   15998004      RECORD LENGTH: 524288

 Memory used in sort:      16.56 MW

 SORT1 READ    44271642. AND WROTE    29399536. INTEGRALS IN     85 RECORDS. CPU TIME:     0.28 SEC, REAL TIME:     0.37 SEC
 SORT2 READ    29399536. AND WROTE    38531031. INTEGRALS IN    517 RECORDS. CPU TIME:     0.30 SEC, REAL TIME:     0.37 SEC

 FILE SIZES:   FILE 1:   166.3 MBYTE,  FILE 4:   356.6 MBYTE,   TOTAL:    522.8 MBYTE

 OPERATOR DM      FOR CENTER  0  COORDINATES:    0.000000    0.000000    0.000000


 **********************************************************************************************************************************
 DATASETS  * FILE   NREC   LENGTH (MB)   RECORD NAMES
              1      19      142.76       500      610      700      900      950      970     1000      129      960     1100   
                                          VAR    BASINP    GEOM    SYMINP    ZMAT    AOBASIS   BASIS     P2S    ABASIS      S 
                                         1400     1410     1200     1210     1080     1600     1650     1300     1700   
                                           T        V       H0       H01     AOSYM     SMH    MOLCAS    ERIS     OPER   

 PROGRAMS   *        TOTAL       INT
 CPU TIMES  *         1.80      1.70
 REAL TIME  *         5.84 SEC
 DISK USED  *       499.05 MB
 **********************************************************************************************************************************


 Program * Restricted Hartree-Fock

 Orbital guess generated from atomic densities. Full valence occupancy:   18

 Initial occupancy:  11

 NELEC=   22   SYM=1   MS2= 0   THRE=1.0D-08   THRD=3.2D-06   THRG=3.2D-06  HFMA2=F  DIIS_START=2   DIIS_MAX=10   DIIS_INCORE=F

 Level shifts:    0.00 (CLOSED)    0.00 (OPEN)    0.30 (GAP_MIN)

 ITER           ETOT              DE          GRAD        DDIFF     DIIS  NEXP   TIME(IT)  TIME(TOT)  DIAG
   1     -131.83239898    -131.83239898     0.00D+00     0.66D-01     0     0       0.20      0.36    start
   2     -131.85804580      -0.02564681     0.36D-02     0.52D-02     1     0       0.19      0.55    diag
   3     -131.86368022      -0.00563443     0.19D-02     0.20D-02     2     0       0.19      0.74    diag
   4     -131.86618000      -0.00249978     0.82D-03     0.12D-02     3     0       0.19      0.93    diag
   5     -131.86682816      -0.00064816     0.32D-03     0.70D-03     4     0       0.20      1.13    diag
   6     -131.86700560      -0.00017744     0.18D-03     0.43D-03     5     0       0.18      1.31    diag
   7     -131.86702276      -0.00001716     0.59D-04     0.15D-03     6     0       0.20      1.51    diag
   8     -131.86702358      -0.00000082     0.17D-04     0.31D-04     7     0       0.19      1.70    fixocc
   9     -131.86702362      -0.00000004     0.35D-05     0.71D-05     8     0       0.20      1.90    diag
  10     -131.86702363      -0.00000000     0.10D-05     0.23D-05     9     0       0.19      2.09    diag/orth
  11     -131.86702363      -0.00000000     0.26D-06     0.37D-06     0     0       0.19      2.28    diag

 Final occupancy:  11

 !RHF STATE 1.1 Energy               -131.867023626365
  RHF One-electron energy            -298.047407041891
  RHF Two-electron energy             105.075050955726
  RHF Kinetic energy                  131.653667635300
  RHF Nuclear energy                   61.105332459801
  RHF Virial quotient                  -1.001620585244

 !RHF STATE 1.1 Dipole moment           0.59288238     0.57509012    -0.00000000
 Dipole moment /Debye                   1.50695670     1.46173327    -0.00000000

 Orbital energies:

           1.1          2.1          3.1          4.1          5.1          6.1          7.1          8.1          9.1         10.1
    -15.648086   -11.282582   -11.263137    -1.294243    -1.025854    -0.756729    -0.677499    -0.665897    -0.553057    -0.469737

          11.1         12.1         13.1
     -0.311842     0.120533     0.139329


 HOMO     11.1    -0.311842 =      -8.4856eV
 LUMO     12.1     0.120533 =       3.2799eV
 LUMO-HOMO         0.432374 =      11.7655eV

 Orbitals saved in record  2100.2


 **********************************************************************************************************************************
 DATASETS  * FILE   NREC   LENGTH (MB)   RECORD NAMES
              1      19      142.76       500      610      700      900      950      970     1000      129      960     1100   
                                          VAR    BASINP    GEOM    SYMINP    ZMAT    AOBASIS   BASIS     P2S    ABASIS      S 
                                         1400     1410     1200     1210     1080     1600     1650     1300     1700   
                                           T        V       H0       H01     AOSYM     SMH    MOLCAS    ERIS     OPER   

              2       4        0.75       700     1000      520     2100   
                                         GEOM     BASIS   MCVARS     RHF  

 PROGRAMS   *        TOTAL    HF-SCF       INT
 CPU TIMES  *         4.08      2.28      1.70
 REAL TIME  *         9.00 SEC
 DISK USED  *       499.05 MB
 **********************************************************************************************************************************


 Program * Restricted Hartree-Fock

 Molecular orbitals read from record     2100.2  Type=RHF/CANONICAL  

 Initial occupancy:  11

 NELEC=   22   SYM=1   MS2= 0   THRE=1.0D-08   THRD=3.2D-06   THRG=3.2D-06  HFMA2=F  DIIS_START=2   DIIS_MAX=10   DIIS_INCORE=F

 Level shifts:    0.00 (CLOSED)    0.00 (OPEN)    0.30 (GAP_MIN)

 ITER           ETOT              DE          GRAD        DDIFF     DIIS  NEXP   TIME(IT)  TIME(TOT)  DIAG
   1     -131.86702363    -131.86702363     0.00D+00     0.68D-01     0     0       0.19      0.19    start
   2     -131.86702363      -0.00000000     0.12D-06     0.18D-06     1     0       0.20      0.39    diag

 Final occupancy:  11

 !RHF STATE 1.1 Energy               -131.867023626426
  RHF One-electron energy            -298.047404886118
  RHF Two-electron energy             105.075048799891
  RHF Kinetic energy                  131.653664973244
  RHF Nuclear energy                   61.105332459801
  RHF Virial quotient                  -1.001620605497

 !RHF STATE 1.1 Dipole moment           0.59290930     0.57509219    -0.00000000
 Dipole moment /Debye                   1.50702511     1.46173855    -0.00000000

 Orbital energies:

           1.1          2.1          3.1          4.1          5.1          6.1          7.1          8.1          9.1         10.1
    -15.648086   -11.282579   -11.263136    -1.294242    -1.025854    -0.756728    -0.677498    -0.665897    -0.553056    -0.469737

          11.1         12.1         13.1
     -0.311841     0.120533     0.139330


 HOMO     11.1    -0.311841 =      -8.4856eV
 LUMO     12.1     0.120533 =       3.2799eV
 LUMO-HOMO         0.432373 =      11.7655eV

 Orbitals saved in record  2101.2


 **********************************************************************************************************************************
 DATASETS  * FILE   NREC   LENGTH (MB)   RECORD NAMES
              1      19      142.76       500      610      700      900      950      970     1000      129      960     1100   
                                          VAR    BASINP    GEOM    SYMINP    ZMAT    AOBASIS   BASIS     P2S    ABASIS      S 
                                         1400     1410     1200     1210     1080     1600     1650     1300     1700   
                                           T        V       H0       H01     AOSYM     SMH    MOLCAS    ERIS     OPER   

              2       5        1.31       700     1000      520     2100     2101   
                                         GEOM     BASIS   MCVARS     RHF      RHF  

 PROGRAMS   *        TOTAL    HF-SCF    HF-SCF       INT
 CPU TIMES  *         4.48      0.40      2.28      1.70
 REAL TIME  *        10.15 SEC
 DISK USED  *       499.05 MB
 **********************************************************************************************************************************


 PROGRAM * PAPT (Closed-shell)     Authors: C. Hampel, H.-J. Werner, 1991, P.J. Knowles, 2021


 Convergence thresholds:  THRVAR = 1.00D-08  THRDEN = 1.00D-06

 Number of core orbitals:           3 (   3 )
 Number of closed-shell orbitals:   8 (   8 )
 Number of external orbitals:     121 ( 121 )

 Molecular orbitals read from record     2101.2  Type=RHF/CANONICAL  

 Number of N-1 electron functions:               8
 Number of N-2 electron functions:              36
 Number of singly external CSFs:               968
 Number of doubly external CSFs:            468996
 Total number of CSFs:                      469965

 Length of J-op  integral file:               0.00 MB
 Length of K-op  integral file:               1.26 MB

 Integral transformation finished. Total CPU:   0.35 sec, npass=  1  Memory used:   1.43 MW

 Reference energy:                   -131.86702363

                        CORR.ENERGY   TOTAL ENERGY   ENERGY CHANGE
 MP2:                   -0.52002482  -132.38704844    -0.52002482

 SCS-MP2 correlation energy:           -0.51547832   (PS=  1.200000  PT=  0.333333)
 SCS-MP2 total energy:               -132.38250194
 Iteration:   1     0.2463D+00
 Iteration:   2     0.3602D+00
 Iteration:   3     0.6924D-01
 Iteration:   4     0.7998D-01
 Iteration:   5     0.3275D-01
 Iteration:   6     0.2061D-01
 Iteration:   7     0.4167D-01
 Iteration:   8     0.5069D-02
 Iteration:   9     0.9173D-02
 Iteration:  10     0.1979D-02
 Iteration:  11     0.1361D-02
 Iteration:  12     0.1444D-02
 Iteration:  13     0.3475D-03
 Iteration:  14     0.6355D-03
 Iteration:  15     0.1446D-03
 Iteration:  16     0.8824D-04
 PAPT operator written to  7000.1
 PAPT orbitals and eigenvalues written to  7000.2

 MP3(D):                -0.53270347  -132.39972709    -0.01267865



 RESULTS
 =======

  Reference energy                   -131.867023626427
  MP3 singlet pair energy              -0.361437146200
  MP3 triplet pair energy              -0.171266319957
  MP3 correlation energy               -0.532703466157

 !MP3 total energy                   -132.399727092584

 Timing summary (sec):

 STEP                 CPU(USER)    SYS     CPU(TOT)    WALL
 Transformation          0.38      0.02      0.40      0.66
 CCSD iterations         6.34      0.11      6.45      3.31

 Program statistics:

 Available memory in ccsd:               393215733
 Min. memory needed in ccsd:               1432040
 Max. memory used in ccsd:                 1820692
 Max. memory used in cckext:               1404463 ( 1 integral passes)



 **********************************************************************************************************************************
 DATASETS  * FILE   NREC   LENGTH (MB)   RECORD NAMES
              1      21      150.29       500      610      700      900      950      970     1000      129      960     1100   
                                          VAR    BASINP    GEOM    SYMINP    ZMAT    AOBASIS   BASIS     P2S    ABASIS      S 
                                         1400     1410     1200     1210     1080     1600     1650     1300     1700     1380   
                                           T        V       H0       H01     AOSYM     SMH    MOLCAS    ERIS     OPER     JKOP   
                                         7000   
                                        PAPT AO    

              2       6        1.81       700     1000      520     2100     2101     7000   
                                         GEOM     BASIS   MCVARS     RHF      RHF     PAPT   

 PROGRAMS   *        TOTAL      PAPT    HF-SCF    HF-SCF       INT
 CPU TIMES  *         6.61      2.13      0.40      2.28      1.70
 REAL TIME  *        14.39 SEC
 DISK USED  *       499.05 MB
 **********************************************************************************************************************************


 PROGRAM * MP4 (Closed-shell)     Authors: C. Hampel, H.-J. Werner, 1991, M. Deegan, P.J. Knowles, 1992


 Convergence thresholds:  THRVAR = 1.00D-08  THRDEN = 1.00D-06

 MP4(T)     terms to be evaluated (factor= 0.000)


 Number of core orbitals:           3 (   3 )
 Number of closed-shell orbitals:   8 (   8 )
 Number of external orbitals:     121 ( 121 )

 Molecular orbitals read from record     7000.2  Type=PAPT/CANONICAL (state 1.1)

 Number of N-1 electron functions:               8
 Number of N-2 electron functions:              36
 Number of singly external CSFs:               968
 Number of doubly external CSFs:            468996
 Total number of CSFs:                      469965

 Length of J-op  integral file:               0.00 MB
 Length of K-op  integral file:               1.26 MB

 Memory could be reduced to 20.02 Mwords without degradation in triples

 Integral transformation finished. Total CPU:   0.88 sec, npass=  1  Memory used:  11.86 MW
 Orbital energies read from record       7000.2  Type=PAPT/CANONICAL (state 1.1)

 Reference energy:                   -131.86702363

                        CORR.ENERGY   TOTAL ENERGY   ENERGY CHANGE
 MP2:                   -0.53834239  -132.40536602    -0.53834239

 SCS-MP2 correlation energy:           -0.53686586   (PS=  1.200000  PT=  0.333333)
 SCS-MP2 total energy:               -132.40388948

 MP3(D):                -0.53880569  -132.40582931    -0.00046329
 MP4(DQ):               -0.53053574  -132.39755937     0.00826995
 MP4(SDQ):              -0.53783957  -132.40486319    -0.00730382

 Norm of t1 vector:      0.09091325      S-energy:    -0.00730382      T1 diagnostic:  0.01607134

 Largest off-diagonal element in interal  block of Fock matrix:  0.12D+00
 Largest off-diagonal element in external block of Fock matrix:  0.28D+00


 Total CPU time for triples:      9.75 sec


 RESULTS
 =======

  Reference energy                   -131.867023626427
  MP4(SDQ) singlet pair energy         -0.360287509854
  MP4(SDQ) triplet pair energy         -0.170248231920
  MP4(SDQ) correlation energy          -0.537839565501

  Triples contribution                 -0.031035925827
  Total correlation energy             -0.568875491329

  MP4(SDQ) total energy              -132.404863191928
 !MP4(SDTQ) total energy             -132.435899117755

 Timing summary (sec):

 STEP                 CPU(USER)    SYS     CPU(TOT)    WALL
 Transformation          1.10      0.10      1.20      1.43
 CCSD iterations         7.80      0.04      7.84      1.63
 Triples                 9.75      0.38     10.13     10.69

 Program statistics:

 Available memory in ccsd:               393215733
 Min. memory needed in ccsd:               1432040
 Max. memory used in ccsd:                 1820692
 Max. memory used in cckext:               1404463 ( 1 integral passes)



 **********************************************************************************************************************************
 DATASETS  * FILE   NREC   LENGTH (MB)   RECORD NAMES
              1      22      204.80       500      610      700      900      950      970     1000      129      960     1100   
                                          VAR    BASINP    GEOM    SYMINP    ZMAT    AOBASIS   BASIS     P2S    ABASIS      S 
                                         1400     1410     1200     1210     1080     1600     1650     1300     1700     1380   
                                           T        V       H0       H01     AOSYM     SMH    MOLCAS    ERIS     OPER     JKOP   
                                         7000     1380(1)
                                        PAPT AO   JKOP   

              2       6        1.81       700     1000      520     2100     2101     7000   
                                         GEOM     BASIS   MCVARS     RHF      RHF     PAPT   

 PROGRAMS   *        TOTAL       MP4      PAPT    HF-SCF    HF-SCF       INT
 CPU TIMES  *        18.54     11.93      2.13      0.40      2.28      1.70
 REAL TIME  *        28.50 SEC
 DISK USED  *       499.05 MB
 **********************************************************************************************************************************

 Dump information in style XML to xml output                                                                      

 Orbitals will not be exported.

 **********************************************************************************************************************************

 MP4/cc-pVTZ energy=   -132.435899117755

             MP4            PAPT          HF-SCF          HF-SCF
   -132.43589912   -132.39972709   -131.86702363   -131.86702363
 **********************************************************************************************************************************
