
 Working directory              : /var/folders/2v/xbgp75_9785319ghcgb4zr4r0000gp/T//molpro.8njpgy2Jif/
 Global scratch directory       : /var/folders/2v/xbgp75_9785319ghcgb4zr4r0000gp/T//molpro.8njpgy2Jif/
 Wavefunction directory         : /Users/sacpjk/wfu/
 Main file repository           : /var/folders/2v/xbgp75_9785319ghcgb4zr4r0000gp/T//molpro.8njpgy2Jif/

 id        : peterk

 Nodes                        nprocs
 Cardiff-University-G34YLXT77Y    1
 GA implementation: MPI file
 GA implementation (serial work in mppx): MPI file

 Using customized tuning parameters: mindgm=1; mindgv=20; mindgc=4; mindgr=1; noblas=0; minvec=7
 default implementation of scratch files=df  


 Variables initialized (1032), CPU time= 0.01 sec
 
 symmetry,nosym
 
 
 geometry={
            6
     C         -0.66347200      0.00000000      0.00000000
     C          0.66347200      0.00000000      0.00000000
     H         -1.23459900     -0.92251800      0.00000000
     H         -1.23459900      0.92251800      0.00000000
     H          1.23459900      0.92251800      0.00000000
     H          1.23459900     -0.92251800      0.00000000
 }
 basis=cc-pVTZ
 
 
 
 hf; mp4
 
 
 
 {put,xml;noorbitals,nobasis}
 Commands initialized (841), CPU time= 0.00 sec, 704 directives.
 Default parameters read. Elapsed time= 0.13 sec

 Checking input...
 Passed
1


                                         ***  PROGRAM SYSTEM MOLPRO  ***
                                       Copyright, TTI GmbH Stuttgart, 2015
                                    Version 2023.1 linked Tue Jun  6 09:54:11 2023


 **********************************************************************************************************************************
 LABEL *                                                                                                                                                                 
  64 bit serial version                                                                  DATE: 10-Jun-23          TIME: 23:36:01  
 **********************************************************************************************************************************

 SHA1:             8ebb0dd001088a5c915591db1a321413035db0b1
 **********************************************************************************************************************************

 Memory per process:       393 MW
 Total memory per node:    524 MW
 Total GA space:           131 MW

 GA preallocation disabled
 GA check enabled

 Variable memory set to 393.2 MW

 ZSYMEL=NOSYM


 Geometry recognized as XYZ

 SETTING BASIS          =    CC-PVTZ


 Recomputing integrals since basis changed


 Using spherical harmonics

 Library entry C      S cc-pVTZ              selected for orbital group  1
 Library entry C      P cc-pVTZ              selected for orbital group  1
 Library entry C      D cc-pVTZ              selected for orbital group  1
 Library entry C      F cc-pVTZ              selected for orbital group  1
 Library entry H      S cc-pVTZ              selected for orbital group  2
 Library entry H      P cc-pVTZ              selected for orbital group  2
 Library entry H      D cc-pVTZ              selected for orbital group  2


 PROGRAM * SEWARD (Integral evaluation for generally contracted gaussian basis sets)     Author: Roland Lindh, 1990

 Geometry written to block  1 of record 700


 Point group  C1  



 ATOMIC COORDINATES

 NR  ATOM    CHARGE       X              Y              Z

   1  C       6.00   -1.253780371    0.000000000    0.000000000
   2  C       6.00    1.253780371    0.000000000    0.000000000
   3  H       1.00   -2.333053984   -1.743306365    0.000000000
   4  H       1.00   -2.333053984    1.743306365    0.000000000
   5  H       1.00    2.333053984    1.743306365    0.000000000
   6  H       1.00    2.333053984   -1.743306365    0.000000000

 Bond lengths in Bohr (Angstrom)

 1-2  2.507560743  1-3  2.050353290  1-4  2.050353290  2-5  2.050353290  2-6  2.050353290
     ( 1.326944000)     ( 1.085000235)     ( 1.085000235)     ( 1.085000235)     ( 1.085000235)

 Bond angles

  1-2-5  121.76147493   1-2-6  121.76147493   2-1-3  121.76147493   2-1-4  121.76147493

  3-1-4  116.47705014   5-2-6  116.47705014

 NUCLEAR CHARGE:                   16
 NUMBER OF PRIMITIVE AOS:         162
 NUMBER OF SYMMETRY AOS:          148
 NUMBER OF CONTRACTIONS:          116   (  116A   )
 NUMBER OF INNER CORE ORBITALS:     0   (    0A   )
 NUMBER OF OUTER CORE ORBITALS:     2   (    2A   )
 NUMBER OF VALENCE ORBITALS:       12   (   12A   )


 NUCLEAR REPULSION ENERGY   33.42546957

 EXTRA SYMMETRY OF AOS IN SYMMETRY 1:   1 1 1 1 1 1 2 1 1 2   1 1 2 1 1 2 1 2 1 1   2 1 2 1 1 2 1 2 1 2   1 1 1 1 1 1 2 1 1 2
                                        1 1 2 1 1 2 1 2 1 1   2 1 2 1 1 2 1 2 1 2   1 1 1 1 1 2 1 1 2 1   1 2 1 2 1 1 1 1 1 2
                                        1 1 2 1 1 2 1 2 1 1   1 1 1 2 1 1 2 1 1 2   1 2 1 1 1 1 1 2 1 1   2 1 1 2 1 2

 Eigenvalues of metric

         1 0.794E-03 0.104E-02 0.141E-02 0.145E-02 0.155E-02 0.214E-02 0.379E-02 0.542E-02


 Contracted 2-electron integrals neglected if value below      1.0D-11
 AO integral compression algorithm  1   Integral accuracy      1.0D-11

     58.982 MB (compressed) written to integral file ( 27.7%)


 NUMBER OF SORTED TWO-ELECTRON INTEGRALS:   23028291.     BUFFER LENGTH:  32768
 NUMBER OF SEGMENTS:   2  SEGMENT LENGTH:   15997996      RECORD LENGTH: 524288

 Memory used in sort:      16.56 MW

 SORT1 READ    26629611. AND WROTE    11140542. INTEGRALS IN     32 RECORDS. CPU TIME:     0.15 SEC, REAL TIME:     0.42 SEC
 SORT2 READ    11140542. AND WROTE    23028291. INTEGRALS IN    225 RECORDS. CPU TIME:     0.19 SEC, REAL TIME:     0.44 SEC

 FILE SIZES:   FILE 1:    89.6 MBYTE,  FILE 4:   134.3 MBYTE,   TOTAL:    223.8 MBYTE

 OPERATOR DM      FOR CENTER  0  COORDINATES:    0.000000    0.000000    0.000000


 **********************************************************************************************************************************
 DATASETS  * FILE   NREC   LENGTH (MB)   RECORD NAMES
              1      19       77.26       500      610      700      900      950      970     1000      129      960     1100   
                                          VAR    BASINP    GEOM    SYMINP    ZMAT    AOBASIS   BASIS     P2S    ABASIS      S 
                                         1400     1410     1200     1210     1080     1600     1650     1300     1700   
                                           T        V       H0       H01     AOSYM     SMH    MOLCAS    ERIS     OPER   

 PROGRAMS   *        TOTAL       INT
 CPU TIMES  *         1.11      1.02
 REAL TIME  *         3.42 SEC
 DISK USED  *       213.90 MB
 **********************************************************************************************************************************


 Program * Restricted Hartree-Fock

 Orbital guess generated from atomic densities. Full valence occupancy:   14

 Initial occupancy:   8

 NELEC=   16   SYM=1   MS2= 0   THRE=1.0D-08   THRD=3.2D-06   THRG=3.2D-06  HFMA2=F  DIIS_START=2   DIIS_MAX=10   DIIS_INCORE=F

 Level shifts:    0.00 (CLOSED)    0.00 (OPEN)    0.30 (GAP_MIN)

 ITER           ETOT              DE          GRAD        DDIFF     DIIS  NEXP   TIME(IT)  TIME(TOT)  DIAG
   1      -78.04046758     -78.04046758     0.00D+00     0.67D-01     0     0       0.11      0.21    start
   2      -78.06131683      -0.02084924     0.43D-02     0.59D-02     1     0       0.11      0.32    diag
   3      -78.06357419      -0.00225737     0.15D-02     0.15D-02     2     0       0.12      0.44    diag
   4      -78.06387322      -0.00029902     0.43D-03     0.58D-03     3     0       0.12      0.56    diag
   5      -78.06387722      -0.00000401     0.47D-04     0.82D-04     4     0       0.11      0.67    diag
   6      -78.06387733      -0.00000010     0.70D-05     0.15D-04     5     0       0.12      0.79    diag
   7      -78.06387733      -0.00000000     0.13D-05     0.30D-05     6     0       0.11      0.90    diag
   8      -78.06387733      -0.00000000     0.17D-06     0.25D-06     0     0       0.12      1.02    fixocc

 Final occupancy:   8

 !RHF STATE 1.1 Energy                -78.063877329654
  RHF One-electron energy            -170.192490141686
  RHF Two-electron energy              58.703143241342
  RHF Kinetic energy                   77.934120206559
  RHF Nuclear energy                   33.425469570689
  RHF Virial quotient                  -1.001664959106

 !RHF STATE 1.1 Dipole moment           0.00000000     0.00000000     0.00000000
 Dipole moment /Debye                   0.00000000     0.00000000     0.00000000

 Orbital energies:

           1.1          2.1          3.1          4.1          5.1          6.1          7.1          8.1          9.1         10.1
    -11.229480   -11.227713    -1.033737    -0.790814    -0.641094    -0.588439    -0.503968    -0.377858     0.153091     0.159126


 HOMO      8.1    -0.377858 =     -10.2821eV
 LUMO      9.1     0.153091 =       4.1658eV
 LUMO-HOMO         0.530949 =      14.4479eV

 Orbitals saved in record  2100.2


 **********************************************************************************************************************************
 DATASETS  * FILE   NREC   LENGTH (MB)   RECORD NAMES
              1      19       77.26       500      610      700      900      950      970     1000      129      960     1100   
                                          VAR    BASINP    GEOM    SYMINP    ZMAT    AOBASIS   BASIS     P2S    ABASIS      S 
                                         1400     1410     1200     1210     1080     1600     1650     1300     1700   
                                           T        V       H0       H01     AOSYM     SMH    MOLCAS    ERIS     OPER   

              2       4        0.68       700     1000      520     2100   
                                         GEOM     BASIS   MCVARS     RHF  

 PROGRAMS   *        TOTAL    HF-SCF       INT
 CPU TIMES  *         2.13      1.02      1.02
 REAL TIME  *         5.67 SEC
 DISK USED  *       213.90 MB
 **********************************************************************************************************************************


 PROGRAM * MP4 (Closed-shell)     Authors: C. Hampel, H.-J. Werner, 1991, M. Deegan, P.J. Knowles, 1992


 Convergence thresholds:  THRVAR = 1.00D-08  THRDEN = 1.00D-06

 MP4(T)     terms to be evaluated (factor= 0.000)


 Number of core orbitals:           2 (   2 )
 Number of closed-shell orbitals:   6 (   6 )
 Number of external orbitals:     108 ( 108 )

 Molecular orbitals read from record     2100.2  Type=RHF/CANONICAL  

 Number of N-1 electron functions:               6
 Number of N-2 electron functions:              21
 Number of singly external CSFs:               648
 Number of doubly external CSFs:            210276
 Total number of CSFs:                      210925

 Length of J-op  integral file:               0.00 MB
 Length of K-op  integral file:               0.99 MB

 Memory could be reduced to 11.43 Mwords without degradation in triples

 Integral transformation finished. Total CPU:   0.48 sec, npass=  1  Memory used:   6.27 MW

 Reference energy:                    -78.06387733

                        CORR.ENERGY   TOTAL ENERGY   ENERGY CHANGE
 MP2:                   -0.33532305   -78.39920038    -0.33532305

 SCS-MP2 correlation energy:           -0.34096794   (PS=  1.200000  PT=  0.333333)
 SCS-MP2 total energy:                -78.40484527

 MP3(D):                -0.35758339   -78.42146072    -0.02226035
 MP4(DQ):               -0.35710417   -78.42098150     0.00047922
 MP4(SDQ):              -0.35973169   -78.42360902    -0.00262752

 Norm of t1 vector:      0.04134201      S-energy:    -0.00262752      T1 diagnostic:  0.00843890


 Total CPU time for triples:      3.40 sec


 RESULTS
 =======

  Reference energy                    -78.063877329654
  MP4(SDQ) singlet pair energy         -0.255847479798
  MP4(SDQ) triplet pair energy         -0.101256694863
  MP4(SDQ) correlation energy          -0.359731690282

  Triples contribution                 -0.014412524390
  Total correlation energy             -0.374144214671

  MP4(SDQ) total energy               -78.423609019936
 !MP4(SDTQ) total energy              -78.438021544326

 Timing summary (sec):

 STEP                 CPU(USER)    SYS     CPU(TOT)    WALL
 Transformation          0.49      0.03      0.52      1.32
 CCSD iterations         2.77      0.03      2.80      1.40
 Triples                 3.40      0.11      3.51      8.04

 Program statistics:

 Available memory in ccsd:               393215848
 Min. memory needed in ccsd:                741753
 Max. memory used in ccsd:                  906609
 Max. memory used in cckext:                673852 ( 1 integral passes)



 **********************************************************************************************************************************
 DATASETS  * FILE   NREC   LENGTH (MB)   RECORD NAMES
              1      20      109.81       500      610      700      900      950      970     1000      129      960     1100   
                                          VAR    BASINP    GEOM    SYMINP    ZMAT    AOBASIS   BASIS     P2S    ABASIS      S 
                                         1400     1410     1200     1210     1080     1600     1650     1300     1700     1380   
                                           T        V       H0       H01     AOSYM     SMH    MOLCAS    ERIS     OPER     JKOP   

              2       4        0.68       700     1000      520     2100   
                                         GEOM     BASIS   MCVARS     RHF  

 PROGRAMS   *        TOTAL       MP4    HF-SCF       INT
 CPU TIMES  *         6.57      4.44      1.02      1.02
 REAL TIME  *        16.50 SEC
 DISK USED  *       213.90 MB
 **********************************************************************************************************************************

 Dump information in style XML to xml output                                                                      

 Orbitals will not be exported.

 **********************************************************************************************************************************

 MP4/cc-pVTZ energy=    -78.438021544326

             MP4          HF-SCF
    -78.43802154    -78.06387733
 **********************************************************************************************************************************
 Molpro calculation terminated
