
 Working directory              : /var/folders/2v/xbgp75_9785319ghcgb4zr4r0000gp/T//molpro.cOnKLNSDlF/
 Global scratch directory       : /var/folders/2v/xbgp75_9785319ghcgb4zr4r0000gp/T//molpro.cOnKLNSDlF/
 Wavefunction directory         : /Users/sacpjk/wfu/
 Main file repository           : /var/folders/2v/xbgp75_9785319ghcgb4zr4r0000gp/T//molpro.cOnKLNSDlF/

 id        : peterk

 Nodes                        nprocs
 Cardiff-University-G34YLXT77Y    1
 GA implementation: MPI file
 GA implementation (serial work in mppx): MPI file

 Using customized tuning parameters: mindgm=1; mindgv=20; mindgc=4; mindgr=1; noblas=0; minvec=7
 default implementation of scratch files=df  


 Variables initialized (1032), CPU time= 0.00 sec
 
 symmetry,nosym
 
 
 geometry={
            6
     C         -0.66347200      0.00000000      0.00000000
     C          0.66347200      0.00000000      0.00000000
     H         -1.23459900     -0.92251800      0.00000000
     H         -1.23459900      0.92251800      0.00000000
     H          1.23459900      0.92251800      0.00000000
     H          1.23459900     -0.92251800      0.00000000
 }
 basis=cc-pVDZ
 
 
 
 hf; mp4
 
 
 
 {put,xml;noorbitals,nobasis}
 Commands initialized (841), CPU time= 0.01 sec, 704 directives.
 Default parameters read. Elapsed time= 1.40 sec

 Checking input...
 Passed
1


                                         ***  PROGRAM SYSTEM MOLPRO  ***
                                       Copyright, TTI GmbH Stuttgart, 2015
                                    Version 2023.1 linked Tue Jun  6 09:54:11 2023


 **********************************************************************************************************************************
 LABEL *                                                                                                                                                                 
  64 bit serial version                                                                  DATE: 10-Jun-23          TIME: 18:51:31  
 **********************************************************************************************************************************

 SHA1:             8ebb0dd001088a5c915591db1a321413035db0b1
 **********************************************************************************************************************************

 Memory per process:       805 MW
 Total memory per node:   1074 MW
 Total GA space:           268 MW

 GA preallocation disabled
 GA check enabled

 Variable memory set to 805.3 MW

 ZSYMEL=NOSYM


 Geometry recognized as XYZ

 SETTING BASIS          =    CC-PVDZ


 Recomputing integrals since basis changed


 Using spherical harmonics

 Library entry C      S cc-pVDZ              selected for orbital group  1
 Library entry C      P cc-pVDZ              selected for orbital group  1
 Library entry C      D cc-pVDZ              selected for orbital group  1
 Library entry H      S cc-pVDZ              selected for orbital group  2
 Library entry H      P cc-pVDZ              selected for orbital group  2


 PROGRAM * SEWARD (Integral evaluation for generally contracted gaussian basis sets)     Author: Roland Lindh, 1990

 Geometry written to block  1 of record 700


 Point group  C1  



 ATOMIC COORDINATES

 NR  ATOM    CHARGE       X              Y              Z

   1  C       6.00   -1.253780371    0.000000000    0.000000000
   2  C       6.00    1.253780371    0.000000000    0.000000000
   3  H       1.00   -2.333053984   -1.743306365    0.000000000
   4  H       1.00   -2.333053984    1.743306365    0.000000000
   5  H       1.00    2.333053984    1.743306365    0.000000000
   6  H       1.00    2.333053984   -1.743306365    0.000000000

 Bond lengths in Bohr (Angstrom)

 1-2  2.507560743  1-3  2.050353290  1-4  2.050353290  2-5  2.050353290  2-6  2.050353290
     ( 1.326944000)     ( 1.085000235)     ( 1.085000235)     ( 1.085000235)     ( 1.085000235)

 Bond angles

  1-2-5  121.76147493   1-2-6  121.76147493   2-1-3  121.76147493   2-1-4  121.76147493

  3-1-4  116.47705014   5-2-6  116.47705014

 NUCLEAR CHARGE:                   16
 NUMBER OF PRIMITIVE AOS:          82
 NUMBER OF SYMMETRY AOS:           80
 NUMBER OF CONTRACTIONS:           48   (   48A   )
 NUMBER OF INNER CORE ORBITALS:     0   (    0A   )
 NUMBER OF OUTER CORE ORBITALS:     2   (    2A   )
 NUMBER OF VALENCE ORBITALS:       12   (   12A   )


 NUCLEAR REPULSION ENERGY   33.42546957

 EXTRA SYMMETRY OF AOS IN SYMMETRY 1:   1 1 1 1 1 2 1 1 2 1   1 2 1 2 1 1 1 1 1 2   1 1 2 1 1 2 1 2 1 1   1 1 2 1 1 1 1 2 1 1
                                        1 1 2 1 1 1 1 2

 Eigenvalues of metric

         1 0.376E-02 0.159E-01 0.163E-01 0.264E-01 0.278E-01 0.399E-01 0.435E-01 0.475E-01


 Contracted 2-electron integrals neglected if value below      1.0D-11
 AO integral compression algorithm  1   Integral accuracy      1.0D-11

     2.359 MB (compressed) written to integral file ( 34.6%)


 NUMBER OF SORTED TWO-ELECTRON INTEGRALS:     692076.     BUFFER LENGTH:  32768
 NUMBER OF SEGMENTS:   1  SEGMENT LENGTH:     692076      RECORD LENGTH: 524288

 Memory used in sort:       1.25 MW

 SORT1 READ      832256. AND WROTE      344774. INTEGRALS IN      1 RECORDS. CPU TIME:     0.01 SEC, REAL TIME:     0.00 SEC
 SORT2 READ      344774. AND WROTE      692076. INTEGRALS IN      9 RECORDS. CPU TIME:     0.02 SEC, REAL TIME:     0.03 SEC

 FILE SIZES:   FILE 1:    32.5 MBYTE,  FILE 4:     4.3 MBYTE,   TOTAL:     36.8 MBYTE

 OPERATOR DM      FOR CENTER  0  COORDINATES:    0.000000    0.000000    0.000000


 **********************************************************************************************************************************
 DATASETS  * FILE   NREC   LENGTH (MB)   RECORD NAMES
              1      19       30.46       500      610      700      900      950      970     1000      129      960     1100   
                                          VAR    BASINP    GEOM    SYMINP    ZMAT    AOBASIS   BASIS     P2S    ABASIS      S 
                                         1400     1410     1200     1210     1080     1600     1650     1300     1700   
                                           T        V       H0       H01     AOSYM     SMH    MOLCAS    ERIS     OPER   

 PROGRAMS   *        TOTAL       INT
 CPU TIMES  *         0.25      0.15
 REAL TIME  *         7.35 SEC
 DISK USED  *        35.47 MB
 **********************************************************************************************************************************


 Program * Restricted Hartree-Fock

 Orbital guess generated from atomic densities. Full valence occupancy:   14

 Initial occupancy:   8

 NELEC=   16   SYM=1   MS2= 0   THRE=1.0D-08   THRD=3.2D-06   THRG=3.2D-06  HFMA2=F  DIIS_START=2   DIIS_MAX=10   DIIS_INCORE=F

 Level shifts:    0.00 (CLOSED)    0.00 (OPEN)    0.30 (GAP_MIN)

 ITER           ETOT              DE          GRAD        DDIFF     DIIS  NEXP   TIME(IT)  TIME(TOT)  DIAG
   1      -78.01805730     -78.01805730     0.00D+00     0.15D+00     0     0       0.00      0.01    start
   2      -78.03799865      -0.01994135     0.65D-02     0.14D-01     1     0       0.00      0.01    diag
   3      -78.03987887      -0.00188022     0.22D-02     0.43D-02     2     0       0.01      0.02    diag
   4      -78.04010587      -0.00022700     0.63D-03     0.15D-02     3     0       0.00      0.02    diag
   5      -78.04010812      -0.00000225     0.60D-04     0.17D-03     4     0       0.01      0.03    diag
   6      -78.04010818      -0.00000006     0.87D-05     0.28D-04     5     0       0.00      0.03    diag
   7      -78.04010818      -0.00000000     0.13D-05     0.36D-05     6     0       0.00      0.03    diag
   8      -78.04010818      -0.00000000     0.14D-06     0.46D-06     7     0       0.01      0.04    fixocc
   9      -78.04010818      -0.00000000     0.15D-07     0.31D-07     0     0       0.00      0.04    diag

 Final occupancy:   8

 !RHF STATE 1.1 Energy                -78.040108179107
  RHF One-electron energy            -170.148178108664
  RHF Two-electron energy              58.682600358868
  RHF Kinetic energy                   77.901004613827
  RHF Nuclear energy                   33.425469570689
  RHF Virial quotient                  -1.001785645332

 !RHF STATE 1.1 Dipole moment           0.00000000    -0.00000000     0.00000000
 Dipole moment /Debye                   0.00000000    -0.00000000     0.00000000

 Orbital energies:

           1.1          2.1          3.1          4.1          5.1          6.1          7.1          8.1          9.1         10.1
    -11.235551   -11.233843    -1.033065    -0.788987    -0.638328    -0.585041    -0.501046    -0.375627     0.169489     0.203777


 HOMO      8.1    -0.375627 =     -10.2213eV
 LUMO      9.1     0.169489 =       4.6120eV
 LUMO-HOMO         0.545116 =      14.8334eV

 Orbitals saved in record  2100.2


 **********************************************************************************************************************************
 DATASETS  * FILE   NREC   LENGTH (MB)   RECORD NAMES
              1      19       30.46       500      610      700      900      950      970     1000      129      960     1100   
                                          VAR    BASINP    GEOM    SYMINP    ZMAT    AOBASIS   BASIS     P2S    ABASIS      S 
                                         1400     1410     1200     1210     1080     1600     1650     1300     1700   
                                           T        V       H0       H01     AOSYM     SMH    MOLCAS    ERIS     OPER   

              2       4        0.50       700     1000      520     2100   
                                         GEOM     BASIS   MCVARS     RHF  

 PROGRAMS   *        TOTAL    HF-SCF       INT
 CPU TIMES  *         0.29      0.04      0.15
 REAL TIME  *         8.34 SEC
 DISK USED  *        35.47 MB
 **********************************************************************************************************************************


 PROGRAM * MP4 (Closed-shell)     Authors: C. Hampel, H.-J. Werner, 1991, M. Deegan, P.J. Knowles, 1992


 Convergence thresholds:  THRVAR = 1.00D-08  THRDEN = 1.00D-06

 MP4(T)     terms to be evaluated (factor= 0.000)


 Number of core orbitals:           2 (   2 )
 Number of closed-shell orbitals:   6 (   6 )
 Number of external orbitals:      40 (  40 )

 Molecular orbitals read from record     2100.2  Type=RHF/CANONICAL  

 Number of N-1 electron functions:               6
 Number of N-2 electron functions:              21
 Number of singly external CSFs:               240
 Number of doubly external CSFs:             28920
 Total number of CSFs:                       29161

 Length of J-op  integral file:               0.00 MB
 Length of K-op  integral file:               0.22 MB

 Memory could be reduced to 0.70 Mwords without degradation in triples

 Integral transformation finished. Total CPU:   0.01 sec, npass=  1  Memory used:   0.58 MW

 Reference energy:                    -78.04010818

                        CORR.ENERGY   TOTAL ENERGY   ENERGY CHANGE
 MP2:                   -0.27451405   -78.31462223    -0.27451405

 SCS-MP2 correlation energy:           -0.27719655   (PS=  1.200000  PT=  0.333333)
 SCS-MP2 total energy:                -78.31730473

 MP3(D):                -0.29983944   -78.33994762    -0.02532539
 MP4(DQ):               -0.30183972   -78.34194790    -0.00200029
 MP4(SDQ):              -0.30370433   -78.34381251    -0.00186460

 Norm of t1 vector:      0.03560169      S-energy:    -0.00186460      T1 diagnostic:  0.00726716


 Total CPU time for triples:      0.07 sec


 RESULTS
 =======

  Reference energy                    -78.040108179107
  MP4(SDQ) singlet pair energy         -0.214649402929
  MP4(SDQ) triplet pair energy         -0.087190321576
  MP4(SDQ) correlation energy          -0.303704328407

  Triples contribution                 -0.008662097394
  Total correlation energy             -0.312366425802

  MP4(SDQ) total energy               -78.343812507514
 !MP4(SDTQ) total energy              -78.352474604908

 Timing summary (sec):

 STEP                 CPU(USER)    SYS     CPU(TOT)    WALL
 Transformation          0.02      0.01      0.03      0.32
 CCSD iterations         0.44      0.00      0.44      0.82
 Triples                 0.07      0.01      0.08      0.09

 Program statistics:

 Available memory in ccsd:               805306216
 Min. memory needed in ccsd:                112753
 Max. memory used in ccsd:                  132769
 Max. memory used in cckext:                144410 ( 1 integral passes)



 **********************************************************************************************************************************
 DATASETS  * FILE   NREC   LENGTH (MB)   RECORD NAMES
              1      20       32.56       500      610      700      900      950      970     1000      129      960     1100   
                                          VAR    BASINP    GEOM    SYMINP    ZMAT    AOBASIS   BASIS     P2S    ABASIS      S 
                                         1400     1410     1200     1210     1080     1600     1650     1300     1700     1380   
                                           T        V       H0       H01     AOSYM     SMH    MOLCAS    ERIS     OPER     JKOP   

              2       4        0.50       700     1000      520     2100   
                                         GEOM     BASIS   MCVARS     RHF  

 PROGRAMS   *        TOTAL       MP4    HF-SCF       INT
 CPU TIMES  *         0.43      0.14      0.04      0.15
 REAL TIME  *         9.69 SEC
 DISK USED  *        36.88 MB
 **********************************************************************************************************************************

 Dump information in style XML to xml output                                                                      

 Orbitals will not be exported.

 **********************************************************************************************************************************

 MP4/cc-pVDZ energy=    -78.352474604908

             MP4          HF-SCF
    -78.35247460    -78.04010818
 **********************************************************************************************************************************
 Molpro calculation terminated
