
 Working directory              : /var/folders/2v/xbgp75_9785319ghcgb4zr4r0000gp/T//molpro.IwdkE8XtIY/
 Global scratch directory       : /var/folders/2v/xbgp75_9785319ghcgb4zr4r0000gp/T//molpro.IwdkE8XtIY/
 Wavefunction directory         : /Users/sacpjk/wfu/
 Main file repository           : /var/folders/2v/xbgp75_9785319ghcgb4zr4r0000gp/T//molpro.IwdkE8XtIY/

 id        : peterk

 Nodes                        nprocs
 Cardiff-University-G34YLXT77Y    1
 GA implementation: MPI file
 GA implementation (serial work in mppx): MPI file

 Using customized tuning parameters: mindgm=1; mindgv=20; mindgc=4; mindgr=1; noblas=0; minvec=7
 default implementation of scratch files=df  


 Variables initialized (1032), CPU time= 0.00 sec
 
 symmetry,nosym
 
 
 geometry={
 7
  n         -0.422152864772    0.814215618551   -0.022027612580
  h         -0.051533312762    1.321992124167    0.771104778348
  h         -0.051410025047    1.278554185326   -0.841286446839
  c          0.055599070940   -0.571817828704    0.015433592038
  h         -0.336285765616   -1.105843105439   -0.846758136943
  h          1.142310227153   -0.678552996670    0.018468087001
  h         -0.336527329738   -1.058547997337    0.905065738975
 }
 basis=aug-cc-pVDZ
 
 
 
 hf; mp4
 
 
 
 {put,xml;noorbitals,nobasis}
 Commands initialized (841), CPU time= 0.00 sec, 704 directives.
 Default parameters read. Elapsed time= 0.07 sec

 Checking input...
 Passed
1


                                         ***  PROGRAM SYSTEM MOLPRO  ***
                                       Copyright, TTI GmbH Stuttgart, 2015
                                    Version 2023.1 linked Tue Jun  6 09:54:11 2023


 **********************************************************************************************************************************
 LABEL *                                                                                                                                                                 
  64 bit serial version                                                                  DATE: 08-Jun-23          TIME: 21:50:35  
 **********************************************************************************************************************************

 SHA1:             8ebb0dd001088a5c915591db1a321413035db0b1
 **********************************************************************************************************************************

 Memory per process:       805 MW
 Total memory per node:   1074 MW
 Total GA space:           268 MW

 GA preallocation disabled
 GA check enabled

 Variable memory set to 805.3 MW

 ZSYMEL=NOSYM


 Geometry recognized as XYZ

 SETTING BASIS          =    AUG-CC-PVDZ


 Recomputing integrals since basis changed


 Using spherical harmonics

 Library entry N      S aug-cc-pVDZ          selected for orbital group  1
 Library entry N      P aug-cc-pVDZ          selected for orbital group  1
 Library entry N      D aug-cc-pVDZ          selected for orbital group  1
 Library entry H      S aug-cc-pVDZ          selected for orbital group  2
 Library entry H      P aug-cc-pVDZ          selected for orbital group  2
 Library entry C      S aug-cc-pVDZ          selected for orbital group  3
 Library entry C      P aug-cc-pVDZ          selected for orbital group  3
 Library entry C      D aug-cc-pVDZ          selected for orbital group  3


 PROGRAM * SEWARD (Integral evaluation for generally contracted gaussian basis sets)     Author: Roland Lindh, 1990

 Geometry written to block  1 of record 700


 Point group  C1  



 ATOMIC COORDINATES

 NR  ATOM    CHARGE       X              Y              Z

   1  N       7.00   -0.797753297    1.538644525   -0.041626155
   2  H       1.00   -0.097383847    2.498203054    1.457176844
   3  H       1.00   -0.097150867    2.416117246   -1.589800977
   4  C       6.00    0.105067017   -1.080579089    0.029165262
   5  H       1.00   -0.635487997   -2.089740606   -1.600140973
   6  H       1.00    2.158653479   -1.282279325    0.034899626
   7  H       1.00   -0.635944487   -2.000365805    1.710326371

 Bond lengths in Bohr (Angstrom)

 1-2  1.912506305  1-3  1.912497691  1-4  2.771358564  4-5  2.054621012  4-6  2.063476005
     ( 1.012054752)     ( 1.012050194)     ( 1.466539795)     ( 1.087258616)     ( 1.091944477)

 4-7  2.054606611
     ( 1.087250996)

 Bond angles

  1-4-5  109.05828429   1-4-6  114.62388021   1-4-7  109.05680438   2-1-3  105.66707886

  2-1-4  109.56459379   3-1-4  109.57028934   5-4-6  108.23406658   5-4-7  107.39674284

  6-4-7  108.23392760

 NUCLEAR CHARGE:                   18
 NUMBER OF PRIMITIVE AOS:         129
 NUMBER OF SYMMETRY AOS:          125
 NUMBER OF CONTRACTIONS:           91   (   91A   )
 NUMBER OF INNER CORE ORBITALS:     0   (    0A   )
 NUMBER OF OUTER CORE ORBITALS:     2   (    2A   )
 NUMBER OF VALENCE ORBITALS:       13   (   13A   )


 NUCLEAR REPULSION ENERGY   42.05202863

 Eigenvalues of metric

         1 0.509E-03 0.631E-03 0.710E-03 0.847E-03 0.124E-02 0.130E-02 0.296E-02 0.449E-02


 Contracted 2-electron integrals neglected if value below      1.0D-11
 AO integral compression algorithm  1   Integral accuracy      1.0D-11

     48.234 MB (compressed) written to integral file ( 56.4%)


 NUMBER OF SORTED TWO-ELECTRON INTEGRALS:    8763391.     BUFFER LENGTH:  32768
 NUMBER OF SEGMENTS:   1  SEGMENT LENGTH:    8763391      RECORD LENGTH: 524288

 Memory used in sort:       9.32 MW

 SORT1 READ    10676406. AND WROTE     8692301. INTEGRALS IN     25 RECORDS. CPU TIME:     0.06 SEC, REAL TIME:     0.10 SEC
 SORT2 READ     8692301. AND WROTE     8763391. INTEGRALS IN    184 RECORDS. CPU TIME:     0.10 SEC, REAL TIME:     0.12 SEC

 FILE SIZES:   FILE 1:    78.6 MBYTE,  FILE 4:   104.9 MBYTE,   TOTAL:    183.6 MBYTE

 OPERATOR DM      FOR CENTER  0  COORDINATES:    0.000000    0.000000    0.000000


 **********************************************************************************************************************************
 DATASETS  * FILE   NREC   LENGTH (MB)   RECORD NAMES
              1      19       67.52       500      610      700      900      950      970     1000      129      960     1100   
                                          VAR    BASINP    GEOM    SYMINP    ZMAT    AOBASIS   BASIS     P2S    ABASIS      S 
                                         1400     1410     1200     1210     1080     1600     1650     1300     1700   
                                           T        V       H0       H01     AOSYM     SMH    MOLCAS    ERIS     OPER   

 PROGRAMS   *        TOTAL       INT
 CPU TIMES  *         0.58      0.49
 REAL TIME  *         1.24 SEC
 DISK USED  *       175.49 MB
 **********************************************************************************************************************************


 Program * Restricted Hartree-Fock

 Orbital guess generated from atomic densities. Full valence occupancy:   15

 Initial occupancy:   9

 NELEC=   18   SYM=1   MS2= 0   THRE=1.0D-08   THRD=3.2D-06   THRG=3.2D-06  HFMA2=F  DIIS_START=2   DIIS_MAX=10   DIIS_INCORE=F

 Level shifts:    0.00 (CLOSED)    0.00 (OPEN)    0.30 (GAP_MIN)

 ITER           ETOT              DE          GRAD        DDIFF     DIIS  NEXP   TIME(IT)  TIME(TOT)  DIAG
   1      -95.20184607     -95.20184607     0.00D+00     0.86D-01     0     0       0.03      0.07    start
   2      -95.22671095      -0.02486488     0.55D-02     0.93D-02     1     0       0.04      0.11    diag
   3      -95.23015469      -0.00344374     0.22D-02     0.28D-02     2     0       0.04      0.15    diag
   4      -95.23065661      -0.00050192     0.68D-03     0.11D-02     3     0       0.03      0.18    diag
   5      -95.23067938      -0.00002277     0.13D-03     0.22D-03     4     0       0.04      0.22    diag
   6      -95.23068084      -0.00000147     0.29D-04     0.58D-04     5     0       0.04      0.26    diag
   7      -95.23068095      -0.00000010     0.82D-05     0.15D-04     6     0       0.04      0.30    diag
   8      -95.23068096      -0.00000001     0.22D-05     0.64D-05     7     0       0.04      0.34    fixocc
   9      -95.23068096      -0.00000000     0.56D-06     0.15D-05     8     0       0.04      0.38    diag
  10      -95.23068096      -0.00000000     0.11D-06     0.23D-06     0     0       0.04      0.42    diag/orth

 Final occupancy:   9

 !RHF STATE 1.1 Energy                -95.230680960644
  RHF One-electron energy            -211.373876592440
  RHF Two-electron energy              74.091166997085
  RHF Kinetic energy                   95.082709297423
  RHF Nuclear energy                   42.052028634711
  RHF Virial quotient                  -1.001556241553

 !RHF STATE 1.1 Dipole moment           0.57208290     0.00312864    -0.00002334
 Dipole moment /Debye                   1.45408969     0.00795221    -0.00005933

 Orbital energies:

           1.1          2.1          3.1          4.1          5.1          6.1          7.1          8.1          9.1         10.1
    -15.548541   -11.247709    -1.172034    -0.897657    -0.661537    -0.603649    -0.555299    -0.516918    -0.392425     0.035742

          11.1
      0.051457


 HOMO      9.1    -0.392425 =     -10.6784eV
 LUMO     10.1     0.035742 =       0.9726eV
 LUMO-HOMO         0.428167 =      11.6510eV

 Orbitals saved in record  2100.2


 **********************************************************************************************************************************
 DATASETS  * FILE   NREC   LENGTH (MB)   RECORD NAMES
              1      19       67.52       500      610      700      900      950      970     1000      129      960     1100   
                                          VAR    BASINP    GEOM    SYMINP    ZMAT    AOBASIS   BASIS     P2S    ABASIS      S 
                                         1400     1410     1200     1210     1080     1600     1650     1300     1700   
                                           T        V       H0       H01     AOSYM     SMH    MOLCAS    ERIS     OPER   

              2       4        0.61       700     1000      520     2100   
                                         GEOM     BASIS   MCVARS     RHF  

 PROGRAMS   *        TOTAL    HF-SCF       INT
 CPU TIMES  *         1.00      0.42      0.49
 REAL TIME  *         1.84 SEC
 DISK USED  *       175.49 MB
 **********************************************************************************************************************************


 PROGRAM * MP4 (Closed-shell)     Authors: C. Hampel, H.-J. Werner, 1991, M. Deegan, P.J. Knowles, 1992


 Convergence thresholds:  THRVAR = 1.00D-08  THRDEN = 1.00D-06

 MP4(T)     terms to be evaluated (factor= 0.000)


 Number of core orbitals:           2 (   2 )
 Number of closed-shell orbitals:   7 (   7 )
 Number of external orbitals:      82 (  82 )

 Molecular orbitals read from record     2100.2  Type=RHF/CANONICAL  

 Number of N-1 electron functions:               7
 Number of N-2 electron functions:              28
 Number of singly external CSFs:               574
 Number of doubly external CSFs:            165025
 Total number of CSFs:                      165600

 Length of J-op  integral file:               0.00 MB
 Length of K-op  integral file:               0.63 MB

 Memory could be reduced to 5.79 Mwords without degradation in triples

 Integral transformation finished. Total CPU:   0.18 sec, npass=  1  Memory used:   3.63 MW

 Reference energy:                    -95.23068096

                        CORR.ENERGY   TOTAL ENERGY   ENERGY CHANGE
 MP2:                   -0.34247061   -95.57315157    -0.34247061

 SCS-MP2 correlation energy:           -0.34336320   (PS=  1.200000  PT=  0.333333)
 SCS-MP2 total energy:                -95.57404416

 MP3(D):                -0.36753152   -95.59821248    -0.02506091
 MP4(DQ):               -0.36960662   -95.60028758    -0.00207510
 MP4(SDQ):              -0.37154773   -95.60222869    -0.00194110

 Norm of t1 vector:      0.03766882      S-energy:    -0.00194110      T1 diagnostic:  0.00711874


 Total CPU time for triples:      1.10 sec


 RESULTS
 =======

  Reference energy                    -95.230680960644
  MP4(SDQ) singlet pair energy         -0.257445548558
  MP4(SDQ) triplet pair energy         -0.112161072355
  MP4(SDQ) correlation energy          -0.371547725681

  Triples contribution                 -0.010214167963
  Total correlation energy             -0.381761893644

  MP4(SDQ) total energy               -95.602228686325
 !MP4(SDTQ) total energy              -95.612442854288

 Timing summary (sec):

 STEP                 CPU(USER)    SYS     CPU(TOT)    WALL
 Transformation          0.18      0.02      0.20      0.27
 CCSD iterations         1.42      0.02      1.44      0.41
 Triples                 1.10      0.05      1.15      1.16

 Program statistics:

 Available memory in ccsd:               805306163
 Min. memory needed in ccsd:                547472
 Max. memory used in ccsd:                  678351
 Max. memory used in cckext:                543688 ( 1 integral passes)



 **********************************************************************************************************************************
 DATASETS  * FILE   NREC   LENGTH (MB)   RECORD NAMES
              1      20       85.21       500      610      700      900      950      970     1000      129      960     1100   
                                          VAR    BASINP    GEOM    SYMINP    ZMAT    AOBASIS   BASIS     P2S    ABASIS      S 
                                         1400     1410     1200     1210     1080     1600     1650     1300     1700     1380   
                                           T        V       H0       H01     AOSYM     SMH    MOLCAS    ERIS     OPER     JKOP   

              2       4        0.61       700     1000      520     2100   
                                         GEOM     BASIS   MCVARS     RHF  

 PROGRAMS   *        TOTAL       MP4    HF-SCF       INT
 CPU TIMES  *         2.62      1.61      0.42      0.49
 REAL TIME  *         3.79 SEC
 DISK USED  *       175.49 MB
 **********************************************************************************************************************************

 Dump information in style XML to xml output                                                                      

 Orbitals will not be exported.

 **********************************************************************************************************************************

 MP4/aug-cc-pVDZ energy=    -95.612442854288

             MP4          HF-SCF
    -95.61244285    -95.23068096
 **********************************************************************************************************************************
 Molpro calculation terminated
