
 Working directory              : /var/folders/2v/xbgp75_9785319ghcgb4zr4r0000gp/T//molpro.YldozIR32y/
 Global scratch directory       : /var/folders/2v/xbgp75_9785319ghcgb4zr4r0000gp/T//molpro.YldozIR32y/
 Wavefunction directory         : /Users/sacpjk/wfu/
 Main file repository           : /var/folders/2v/xbgp75_9785319ghcgb4zr4r0000gp/T//molpro.YldozIR32y/

 id        : peterk

 Nodes                        nprocs
 Cardiff-University-G34YLXT77Y    1
 GA implementation: MPI file
 GA implementation (serial work in mppx): MPI file

 Using customized tuning parameters: mindgm=1; mindgv=20; mindgc=4; mindgr=1; noblas=0; minvec=7
 default implementation of scratch files=df  


 Variables initialized (1032), CPU time= 0.00 sec
 
 symmetry,nosym
 
 
 geometry={
            9
     C         -0.71731126      0.00000000      0.73536428
     C         -1.09398697      0.00000000     -0.56903173
     O          0.00000000      0.00000000     -1.38121434
     C          1.09398697      0.00000000     -0.56903173
     C          0.71731126      0.00000000      0.73536428
     H         -1.37199245      0.00000000      1.59213938
     H         -2.04808591      0.00000000     -1.06786475
     H          2.04808591      0.00000000     -1.06786475
     H          1.37199245      0.00000000      1.59213938
 }
 basis=cc-pVDZ
 
 
 
 hf; ccsd(t)
 
 
 
 {put,xml;noorbitals,nobasis}
 Commands initialized (841), CPU time= 0.01 sec, 704 directives.
 Default parameters read. Elapsed time= 2.44 sec

 Checking input...
 Passed
1


                                         ***  PROGRAM SYSTEM MOLPRO  ***
                                       Copyright, TTI GmbH Stuttgart, 2015
                                    Version 2023.1 linked Tue Jun  6 09:54:11 2023


 **********************************************************************************************************************************
 LABEL *                                                                                                                                                                 
  64 bit serial version                                                                  DATE: 11-Jun-23          TIME: 23:14:26  
 **********************************************************************************************************************************

 SHA1:             8ebb0dd001088a5c915591db1a321413035db0b1
 **********************************************************************************************************************************

 Memory per process:       393 MW
 Total memory per node:    524 MW
 Total GA space:           131 MW

 GA preallocation disabled
 GA check enabled

 Variable memory set to 393.2 MW

 ZSYMEL=NOSYM


 Geometry recognized as XYZ

 SETTING BASIS          =    CC-PVDZ


 Recomputing integrals since basis changed


 Using spherical harmonics

 Library entry C      S cc-pVDZ              selected for orbital group  1
 Library entry C      P cc-pVDZ              selected for orbital group  1
 Library entry C      D cc-pVDZ              selected for orbital group  1
 Library entry O      S cc-pVDZ              selected for orbital group  2
 Library entry O      P cc-pVDZ              selected for orbital group  2
 Library entry O      D cc-pVDZ              selected for orbital group  2
 Library entry H      S cc-pVDZ              selected for orbital group  4
 Library entry H      P cc-pVDZ              selected for orbital group  4


 PROGRAM * SEWARD (Integral evaluation for generally contracted gaussian basis sets)     Author: Roland Lindh, 1990

 Geometry written to block  1 of record 700


 Point group  C1  



 ATOMIC COORDINATES

 NR  ATOM    CHARGE       X              Y              Z

   1  C       6.00   -1.355521828    0.000000000    1.389637091
   2  C       6.00   -2.067335757    0.000000000   -1.075314126
   3  O       8.00    0.000000000    0.000000000   -2.610116822
   4  C       6.00    2.067335757    0.000000000   -1.075314126
   5  C       6.00    1.355521828    0.000000000    1.389637091
   6  H       1.00   -2.592689976    0.000000000    3.008707380
   7  H       1.00   -3.870321450    0.000000000   -2.017971916
   8  H       1.00    3.870321450    0.000000000   -2.017971916
   9  H       1.00    2.592689976    0.000000000    3.008707380

 Bond lengths in Bohr (Angstrom)

 1-2  2.565670199  1-5  2.711043655  1-6  2.037639229  2-3  2.574780855  2-7  2.034541992
     ( 1.357694200)     ( 1.434622520)     ( 1.078272244)     ( 1.362515351)     ( 1.076633257)

 3-4  2.574780855  4-5  2.565670199  4-8  2.034541992  5-9  2.037639229
     ( 1.362515351)     ( 1.357694200)     ( 1.076633257)     ( 1.078272244)

 Bond angles

  1-2-3  110.48307374   1-2-7  133.70933251   1-5-4  106.10734474   1-5-9  127.38426163

  2-1-5  106.10734474   2-1-6  126.50839363   2-3-4  106.81916303   3-2-7  115.80759375

  3-4-5  110.48307374   3-4-8  115.80759375   4-5-9  126.50839363   5-1-6  127.38426163

  5-4-8  133.70933251

 NUCLEAR CHARGE:                   36
 NUMBER OF PRIMITIVE AOS:         163
 NUMBER OF SYMMETRY AOS:          158
 NUMBER OF CONTRACTIONS:           90   (   90A   )
 NUMBER OF INNER CORE ORBITALS:     0   (    0A   )
 NUMBER OF OUTER CORE ORBITALS:     5   (    5A   )
 NUMBER OF VALENCE ORBITALS:       24   (   24A   )


 NUCLEAR REPULSION ENERGY  160.96170046

 EXTRA SYMMETRY OF AOS IN SYMMETRY 1:   1 1 1 1 2 1 1 2 1 1   2 1 1 2 1 1 1 1 2 1   1 2 1 1 2 1 1 2 1 1   1 1 2 1 1 2 1 1 2 1
                                        1 2 1 1 1 1 2 1 1 2   1 1 2 1 1 2 1 1 1 1   2 1 1 2 1 1 2 1 1 2   1 1 1 2 1 1 1 1 2 1
                                        1 1 1 2 1 1 1 1 2 1

 Eigenvalues of metric

         1 0.740E-03 0.338E-02 0.584E-02 0.114E-01 0.150E-01 0.182E-01 0.185E-01 0.205E-01


 Contracted 2-electron integrals neglected if value below      1.0D-11
 AO integral compression algorithm  1   Integral accuracy      1.0D-11

     23.069 MB (compressed) written to integral file ( 30.7%)


 NUMBER OF SORTED TWO-ELECTRON INTEGRALS:    8386560.     BUFFER LENGTH:  32768
 NUMBER OF SEGMENTS:   1  SEGMENT LENGTH:    8386560      RECORD LENGTH: 524288

 Memory used in sort:       8.94 MW

 SORT1 READ     9488277. AND WROTE     4318007. INTEGRALS IN     13 RECORDS. CPU TIME:     0.06 SEC, REAL TIME:     0.08 SEC
 SORT2 READ     4318007. AND WROTE     8386560. INTEGRALS IN     88 RECORDS. CPU TIME:     0.09 SEC, REAL TIME:     0.10 SEC

 FILE SIZES:   FILE 1:    53.5 MBYTE,  FILE 4:    54.6 MBYTE,   TOTAL:    108.1 MBYTE

 OPERATOR DM      FOR CENTER  0  COORDINATES:    0.000000    0.000000    0.000000


 **********************************************************************************************************************************
 DATASETS  * FILE   NREC   LENGTH (MB)   RECORD NAMES
              1      19       47.80       500      610      700      900      950      970     1000      129      960     1100   
                                          VAR    BASINP    GEOM    SYMINP    ZMAT    AOBASIS   BASIS     P2S    ABASIS      S 
                                         1400     1410     1200     1210     1080     1600     1650     1300     1700   
                                           T        V       H0       H01     AOSYM     SMH    MOLCAS    ERIS     OPER   

 PROGRAMS   *        TOTAL       INT
 CPU TIMES  *         0.72      0.63
 REAL TIME  *         9.48 SEC
 DISK USED  *       103.56 MB
 **********************************************************************************************************************************


 Program * Restricted Hartree-Fock

 Orbital guess generated from atomic densities. Full valence occupancy:   29

 Initial occupancy:  18

 NELEC=   36   SYM=1   MS2= 0   THRE=1.0D-08   THRD=3.2D-06   THRG=3.2D-06  HFMA2=F  DIIS_START=2   DIIS_MAX=10   DIIS_INCORE=F

 Level shifts:    0.00 (CLOSED)    0.00 (OPEN)    0.30 (GAP_MIN)

 ITER           ETOT              DE          GRAD        DDIFF     DIIS  NEXP   TIME(IT)  TIME(TOT)  DIAG
   1     -228.59447839    -228.59447839     0.00D+00     0.12D+00     0     0       0.04      0.07    start
   2     -228.63439677      -0.03991838     0.53D-02     0.11D-01     1     0       0.03      0.10    diag
   3     -228.64183684      -0.00744008     0.24D-02     0.45D-02     2     0       0.03      0.13    diag
   4     -228.64317554      -0.00133870     0.88D-03     0.17D-02     3     0       0.04      0.17    diag
   5     -228.64325379      -0.00007825     0.23D-03     0.39D-03     4     0       0.03      0.20    diag
   6     -228.64326887      -0.00001508     0.68D-04     0.15D-03     5     0       0.04      0.24    diag
   7     -228.64327316      -0.00000429     0.30D-04     0.94D-04     6     0       0.03      0.27    diag
   8     -228.64327346      -0.00000029     0.75D-05     0.26D-04     7     0       0.04      0.31    fixocc
   9     -228.64327347      -0.00000002     0.22D-05     0.61D-05     8     0       0.03      0.34    diag
  10     -228.64327347      -0.00000000     0.42D-06     0.12D-05     9     0       0.03      0.37    diag/orth
  11     -228.64327347      -0.00000000     0.11D-06     0.26D-06     0     0       0.04      0.41    diag

 Final occupancy:  18

 !RHF STATE 1.1 Energy               -228.643273474548
  RHF One-electron energy            -628.918661665855
  RHF Two-electron energy             239.313687730324
  RHF Kinetic energy                  228.431799043469
  RHF Nuclear energy                  160.961700460983
  RHF Virial quotient                  -1.000925766167

 !RHF STATE 1.1 Dipole moment          -0.00000000    -0.00000000     0.29585319
 Dipole moment /Debye                  -0.00000000    -0.00000000     0.75198380

 Orbital energies:

           1.1          2.1          3.1          4.1          5.1          6.1          7.1          8.1          9.1         10.1
    -20.621778   -11.289847   -11.289802   -11.233561   -11.232627    -1.457072    -1.082400    -1.003408    -0.804221    -0.778523

          11.1         12.1         13.1         14.1         15.1         16.1         17.1         18.1         19.1         20.1
     -0.736142    -0.628106    -0.606158    -0.573758    -0.560885    -0.535999    -0.393891    -0.317467     0.161513     0.202474


 HOMO     18.1    -0.317467 =      -8.6387eV
 LUMO     19.1     0.161513 =       4.3950eV
 LUMO-HOMO         0.478980 =      13.0337eV

 Orbitals saved in record  2100.2


 **********************************************************************************************************************************
 DATASETS  * FILE   NREC   LENGTH (MB)   RECORD NAMES
              1      19       47.80       500      610      700      900      950      970     1000      129      960     1100   
                                          VAR    BASINP    GEOM    SYMINP    ZMAT    AOBASIS   BASIS     P2S    ABASIS      S 
                                         1400     1410     1200     1210     1080     1600     1650     1300     1700   
                                           T        V       H0       H01     AOSYM     SMH    MOLCAS    ERIS     OPER   

              2       4        0.64       700     1000      520     2100   
                                         GEOM     BASIS   MCVARS     RHF  

 PROGRAMS   *        TOTAL    HF-SCF       INT
 CPU TIMES  *         1.13      0.41      0.63
 REAL TIME  *        13.70 SEC
 DISK USED  *       103.56 MB
 **********************************************************************************************************************************


 PROGRAM * CCSD (Closed-shell coupled cluster)     Authors: C. Hampel, H.-J. Werner, 1991, M. Deegan, P.J. Knowles, 1992


 Convergence thresholds:  THRVAR = 1.00D-08  THRDEN = 1.00D-06

 CCSD(T)     terms to be evaluated (factor= 1.000)


 Number of core orbitals:           5 (   5 )
 Number of closed-shell orbitals:  13 (  13 )
 Number of external orbitals:      72 (  72 )

 Molecular orbitals read from record     2100.2  Type=RHF/CANONICAL  

 Number of N-1 electron functions:              13
 Number of N-2 electron functions:              91
 Number of singly external CSFs:               936
 Number of doubly external CSFs:            438516
 Total number of CSFs:                      439453

 Length of J-op  integral file:               0.00 MB
 Length of K-op  integral file:               0.62 MB
 Length of 3-ext integral record:             0.00 MB

 Memory could be reduced to 7.02 Mwords without degradation in triples

 Integral transformation finished. Total CPU:   0.26 sec, npass=  1  Memory used:   6.57 MW

 Reference energy:                   -228.64327347

 MP2 singlet pair energy:              -0.42669156
 MP2 triplet pair energy:              -0.28111511
 MP2 correlation energy:               -0.70780667
 MP2 total energy:                   -229.35108014

 SCS-MP2 correlation energy:           -0.68694594   (PS=  1.200000  PT=  0.333333)
 SCS-MP2 total energy:               -229.33021941

 ITER.      SQ.NORM     CORR.ENERGY   TOTAL ENERGY   ENERGY CHANGE        DEN1      VAR(S)    VAR(P)  DIIS     TIME  TIME/IT
   1      1.24980233    -0.73209275  -229.37536623    -0.02428609    -0.00328677  0.48D-02  0.50D-02  1  1     2.24     1.08
   2      1.26977558    -0.73509621  -229.37836969    -0.00300346    -0.01915673  0.95D-04  0.77D-03  2  2     2.90     0.97
   3      1.27779485    -0.73540587  -229.37867935    -0.00030966    -0.00381666  0.82D-04  0.54D-04  3  3     3.56     0.92
   4      1.28076771    -0.73534920  -229.37862268     0.00005667    -0.00100759  0.53D-05  0.82D-05  4  4     4.22     0.91
   5      1.28190634    -0.73537311  -229.37864659    -0.00002391    -0.00024858  0.15D-05  0.74D-06  5  5     4.85     0.90
   6      1.28218295    -0.73536037  -229.37863384     0.00001275    -0.00003310  0.30D-06  0.11D-06  6  6     5.38     0.85
   7      1.28225306    -0.73535772  -229.37863119     0.00000265    -0.00000190  0.57D-07  0.33D-07  6  2     5.99     0.83
   8      1.28227965    -0.73535716  -229.37863063     0.00000056    -0.00000069  0.11D-07  0.47D-08  6  1     6.68     0.83
   9      1.28229057    -0.73535645  -229.37862992     0.00000071     0.00000002  0.55D-09  0.67D-09  6  3     7.24     0.81

 Norm of t1 vector:      0.09706464      S-energy:     0.00000004      T1 diagnostic:  0.01346044
                                                                       D1 diagnostic:  0.04634773
                                                                       D2 diagnostic:  0.18933126 (internal)

 Doubles amplitudes (print threshold =  0.500E-01):

         I         J         SYM. A    SYM. B    A         B      T(IJ, AB)

        12        12         1         1         5         5     -0.05032518
        13        12         1         1         5         1      0.05219976
        13        13         1         1         1         1     -0.08682584
        13        13         1         1         5         5     -0.05310789


 Total CPU time for triples:      3.61 sec


 RESULTS
 =======

  Reference energy                   -228.643273474548
  CCSD singlet pair energy             -0.486160984400
  CCSD triplet pair energy             -0.249195501760
  CCSD correlation energy              -0.735356449809

  Triples (T) contribution             -0.029123902744
  Total correlation energy             -0.764480352554

  CCSD total energy                  -229.378629924357
  CCSD[T] energy                     -229.409021879878
  CCSD-T energy                      -229.407305840227
 !CCSD(T) total energy               -229.407753827102

 Timing summary (sec):

 STEP                 CPU(USER)    SYS     CPU(TOT)    WALL
 Transformation          0.28      0.05      0.33      0.67
 CCSD iterations         6.99      0.36      7.35      8.56
 Triples                 3.61      0.23      3.84      4.07

 Program statistics:

 Available memory in ccsd:               393215306
 Min. memory needed in ccsd:               1238737
 Max. memory used in ccsd:                 1606117
 Max. memory used in cckext:               1587965 ( 9 integral passes)



 **********************************************************************************************************************************
 DATASETS  * FILE   NREC   LENGTH (MB)   RECORD NAMES
              1      20       75.16       500      610      700      900      950      970     1000      129      960     1100   
                                          VAR    BASINP    GEOM    SYMINP    ZMAT    AOBASIS   BASIS     P2S    ABASIS      S 
                                         1400     1410     1200     1210     1080     1600     1650     1300     1700     1380   
                                           T        V       H0       H01     AOSYM     SMH    MOLCAS    ERIS     OPER     JKOP   

              2       4        0.64       700     1000      520     2100   
                                         GEOM     BASIS   MCVARS     RHF  

 PROGRAMS   *        TOTAL   CCSD(T)    HF-SCF       INT
 CPU TIMES  *        10.80      9.67      0.41      0.63
 REAL TIME  *        28.58 SEC
 DISK USED  *       149.32 MB
 **********************************************************************************************************************************

 Dump information in style XML to xml output                                                                      

 Orbitals will not be exported.

 **********************************************************************************************************************************

 CCSD(T)/cc-pVDZ energy=   -229.407753827102

         CCSD(T)          HF-SCF
   -229.40775383   -228.64327347
 **********************************************************************************************************************************
 Molpro calculation terminated
