
 Working directory              : /var/folders/2v/xbgp75_9785319ghcgb4zr4r0000gp/T//molpro.TqUFTkulTe/
 Global scratch directory       : /var/folders/2v/xbgp75_9785319ghcgb4zr4r0000gp/T//molpro.TqUFTkulTe/
 Wavefunction directory         : /Users/sacpjk/wfu/
 Main file repository           : /var/folders/2v/xbgp75_9785319ghcgb4zr4r0000gp/T//molpro.TqUFTkulTe/

 id        : peterk

 Nodes                        nprocs
 Cardiff-University-G34YLXT77Y    1
 GA implementation: MPI file
 GA implementation (serial work in mppx): MPI file

 Using customized tuning parameters: mindgm=1; mindgv=20; mindgc=4; mindgr=1; noblas=0; minvec=7
 default implementation of scratch files=df  


 Variables initialized (1032), CPU time= 0.00 sec
 
 symmetry,nosym
 
 
 geometry={
            3
     H          0.00000000      0.00000000      0.00000000
     H          0.00000000      0.00000000      0.92947338
     H          0.00000000      0.00000000     -0.92947338
 }
 basis=cc-pVDZ
 
 
 spin=1
 uhf
 
 
 
 {put,xml;noorbitals,nobasis}
 Commands initialized (841), CPU time= 0.00 sec, 704 directives.
 Default parameters read. Elapsed time= 0.28 sec

 Checking input...
 Passed
1


                                         ***  PROGRAM SYSTEM MOLPRO  ***
                                       Copyright, TTI GmbH Stuttgart, 2015
                                    Version 2023.1 linked Tue Jun  6 09:54:11 2023


 **********************************************************************************************************************************
 LABEL *                                                                                                                                                                 
  64 bit serial version                                                                  DATE: 09-Jun-23          TIME: 09:26:45  
 **********************************************************************************************************************************

 SHA1:             8ebb0dd001088a5c915591db1a321413035db0b1
 **********************************************************************************************************************************

 Memory per process:       805 MW
 Total memory per node:   1074 MW
 Total GA space:           268 MW

 GA preallocation disabled
 GA check enabled

 Variable memory set to 805.3 MW

 ZSYMEL=NOSYM


 Geometry recognized as XYZ

 SETTING BASIS          =    CC-PVDZ
 SETTING SPIN           =         1.00000000                                  


 Recomputing integrals since basis changed


 Using spherical harmonics

 Library entry H      S cc-pVDZ              selected for orbital group  1
 Library entry H      P cc-pVDZ              selected for orbital group  1


 PROGRAM * SEWARD (Integral evaluation for generally contracted gaussian basis sets)     Author: Roland Lindh, 1990

 Geometry written to block  1 of record 700


 Point group  C1  



 ATOMIC COORDINATES

 NR  ATOM    CHARGE       X              Y              Z

   1  H       1.00    0.000000000    0.000000000    0.000000000
   2  H       1.00    0.000000000    0.000000000    1.756450128
   3  H       1.00    0.000000000    0.000000000   -1.756450128

 NUCLEAR CHARGE:                    3
 NUMBER OF PRIMITIVE AOS:          21
 NUMBER OF SYMMETRY AOS:           21
 NUMBER OF CONTRACTIONS:           15   (   15A   )
 NUMBER OF INNER CORE ORBITALS:     0   (    0A   )
 NUMBER OF OUTER CORE ORBITALS:     0   (    0A   )
 NUMBER OF VALENCE ORBITALS:        3   (    3A   )


 NUCLEAR REPULSION ENERGY    1.42332535

 EXTRA SYMMETRY OF AOS IN SYMMETRY 1:   1 1 2 3 1 1 1 2 3 1   1 1 2 3 1

 Eigenvalues of metric

         1 0.203E-01 0.303E-01 0.859E-01 0.122E+00 0.165E+00 0.545E+00 0.545E+00 0.989E+00


 Contracted 2-electron integrals neglected if value below      1.0D-11
 AO integral compression algorithm  1   Integral accuracy      1.0D-11

     0.262 MB (compressed) written to integral file ( 73.8%)


 NUMBER OF SORTED TWO-ELECTRON INTEGRALS:       7260.     BUFFER LENGTH:  32768
 NUMBER OF SEGMENTS:   1  SEGMENT LENGTH:       7260      RECORD LENGTH: 524288

 Memory used in sort:       0.56 MW

 SORT1 READ       10285. AND WROTE        2396. INTEGRALS IN      1 RECORDS. CPU TIME:     0.00 SEC, REAL TIME:     0.00 SEC
 SORT2 READ        2396. AND WROTE        7260. INTEGRALS IN      1 RECORDS. CPU TIME:     0.00 SEC, REAL TIME:     0.01 SEC

 FILE SIZES:   FILE 1:    30.3 MBYTE,  FILE 4:     4.3 MBYTE,   TOTAL:     34.5 MBYTE

 OPERATOR DM      FOR CENTER  0  COORDINATES:    0.000000    0.000000    0.000000


 **********************************************************************************************************************************
 DATASETS  * FILE   NREC   LENGTH (MB)   RECORD NAMES
              1      19       28.64       500      610      700      900      950      970     1000      129      960     1100   
                                          VAR    BASINP    GEOM    SYMINP    ZMAT    AOBASIS   BASIS     P2S    ABASIS      S 
                                         1400     1410     1200     1210     1080     1600     1650     1300     1700   
                                           T        V       H0       H01     AOSYM     SMH    MOLCAS    ERIS     OPER   

 PROGRAMS   *        TOTAL       INT
 CPU TIMES  *         0.16      0.08
 REAL TIME  *         0.83 SEC
 DISK USED  *        33.27 MB
 **********************************************************************************************************************************


 Program * Unrestricted Hartree-Fock

 Orbital guess generated from atomic densities. Full valence occupancy:    3

 Initial alpha occupancy:   2
 Initial beta  occupancy:   1

 Elapsed time for starting guess:      0.00 sec

 NELEC=    3   SYM=1   MS2=1   THRE=1.0D-08   THRD=3.2D-06   THRG=3.2D-06  HFMA2=F  DIIS_START=2   DIIS_MAX=10   DIIS_INCORE=F

 Initial level shifts:    0.20 (ALPHA)    0.20 (BETA)

 ITER         ETOT            DE          GRAD         DDIFF    DIIS  NEXP   TIME(IT)  TIME(TOT)  DIAG
   1     -1.58582621    -1.58582621     0.00D+00     0.00D+00     0     0       0.00      0.00    start
   2     -1.59645324    -0.01062704     0.16D-01     0.15D+00     1     0       0.00      0.00    diag
   3     -1.60044847    -0.00399523     0.85D-02     0.20D-01     2     0       0.00      0.00    diag
   4     -1.60097913    -0.00053065     0.31D-02     0.13D-01     3     0       0.00      0.00    diag
   5     -1.60102096    -0.00004183     0.88D-03     0.45D-02     4     0       0.00      0.00    diag
   6     -1.60102413    -0.00000317     0.26D-03     0.79D-03     5     0       0.00      0.00    diag
   7     -1.60102426    -0.00000013     0.54D-04     0.19D-03     5     0       0.00      0.00    diag
   8     -1.60102427    -0.00000001     0.13D-04     0.53D-04     5     0       0.00      0.00    diag
   9     -1.60102427    -0.00000000     0.28D-05     0.14D-04     5     0       0.00      0.00    diag
  10     -1.60102427    -0.00000000     0.56D-06     0.29D-05     5     0       0.00      0.00    diag/ort

 Final alpha occupancy:   2
 Final beta  occupancy:   1

 !UHF STATE 1.1 Energy                 -1.601024270223
  UHF One-electron energy              -4.354652266475
  UHF Two-electron energy               1.330302642644
  UHF Kinetic energy                    1.588696396382
  UHF Nuclear energy                    1.423325353608
  UHF Virial quotient                  -1.007759741804

 !UHF STATE 1.1 Dipole moment           0.00000000     0.00000000     0.00000000
 Dipole moment /Debye                   0.00000000     0.00000000     0.00000000

 EXPECTATION VALUE OF S**2:             0.78601163

 Orbital energies for positive spin:

           1.1          2.1          3.1          4.1
     -0.695712    -0.406750     0.230160     0.562486

 Orbital energies for negative spin:

           1.1          2.1          3.1
     -0.591584     0.066840     0.268963


 HOMO      2.1    -0.406750 =     -11.0682eV
 LUMO     -2.1     0.066840 =       1.8188eV
 LUMO-HOMO         0.473591 =      12.8871eV

 Orbitals saved in record  2200.2

 Occupation number threshold for pseudo-canonical orbitals: 1.9990 (occupied), 0.0010 (virtual)

 Number of pseudo-canonical occupied orbitals per symmetry:    0
 Number of active natural orbitals per symmetry:               3

 Natural orbitals saved to record    2200.2 (Orbital set 3)

 Orbital spaces for UNO-CAS (Min. occupation: 0.020  Max. occupation: 1.980):

 Closed:        1
 Active:        1


 **********************************************************************************************************************************
 DATASETS  * FILE   NREC   LENGTH (MB)   RECORD NAMES
              1      19       28.64       500      610      700      900      950      970     1000      129      960     1100   
                                          VAR    BASINP    GEOM    SYMINP    ZMAT    AOBASIS   BASIS     P2S    ABASIS      S 
                                         1400     1410     1200     1210     1080     1600     1650     1300     1700   
                                           T        V       H0       H01     AOSYM     SMH    MOLCAS    ERIS     OPER   

              2       4        0.42       700     1000      520     2200   
                                         GEOM     BASIS   MCVARS     UHF  

              4       3        0.10      2900     3000     3100   

 PROGRAMS   *        TOTAL   UHF-SCF       INT
 CPU TIMES  *         0.17      0.01      0.08
 REAL TIME  *         0.92 SEC
 DISK USED  *        33.27 MB
 **********************************************************************************************************************************

 Dump information in style XML to xml output                                                                      

 Orbitals will not be exported.

 **********************************************************************************************************************************

 UHF/cc-pVDZ energy=     -1.601024270223

         UHF-SCF
     -1.60102427
 **********************************************************************************************************************************
 Molpro calculation terminated
