
 Working directory              : /tmp/peterk/molpro.WgNI71ZH3a/
 Global scratch directory       : /tmp/peterk/molpro.WgNI71ZH3a/
 Wavefunction directory         : /home/peterk/wfu/
 Main file repository           : /tmp/peterk/molpro.WgNI71ZH3a/

 id        : peterk

 Nodes     nprocs
 marat        1
 GA implementation: MPI file
 GA implementation (serial work in mppx): MPI file

 Using customized tuning parameters: mindgm=1; mindgv=20; mindgc=4; mindgr=1; noblas=0; minvec=7
 default implementation of scratch files=df  


 Variables initialized (1032), CPU time= 0.00 sec
 
 symmetry,nosym
 
 
 geometry={
           17
     SI         0.63139882      1.11515946     -2.08532509
     SI         0.70367211      3.03950585     -0.74426822
     SI         0.72098415     -0.80137417     -0.73468811
     SI        -0.98629872     -0.76030614      0.87495890
     SI        -0.97816786     -2.70740752      2.18359262
     H         -0.64069283      1.10177051     -2.85748331
     H          1.75799151      1.13021999     -3.05821548
     H          2.03398885     -0.84830542     -0.03537272
     H          0.59965934     -2.03650052     -1.55645950
     H         -2.30080281     -0.61638052      0.19167503
     H         -0.79668872      0.43302196      1.74382641
     H         -2.04896456     -2.68052224      3.21359881
     H         -1.18525729     -3.89507069      1.31545383
     H          0.33354792     -2.84638300      2.86709877
     H          0.72729741      4.27621811     -1.56737460
     H         -0.49036840      3.07975610      0.13832947
     H          1.91870108      3.01659825      0.11065319
 }
 basis=cc-pVTZ
 
 
 
 hf; ccsd(t)
 
 
 
 {put,xml;noorbitals,nobasis}
 Commands initialized (841), CPU time= 0.01 sec, 708 directives.
 Default parameters read. Elapsed time= 0.05 sec

 Checking input...
 Passed
1


                                         ***  PROGRAM SYSTEM MOLPRO  ***
                                       Copyright, TTI GmbH Stuttgart, 2015
                                    Version 2023.1 linked Sat Jun 10 08:01:27 2023


 **********************************************************************************************************************************
 LABEL *                                                                                                                                                                 
  (16 PROC) 64 bit serial version                                                        DATE: 13-Jun-23          TIME: 11:55:32  
 **********************************************************************************************************************************

 SHA1:             8376d659ba1296ca7ee514c57770fe2c96af278c
 **********************************************************************************************************************************

 Memory per process:      1074 MW
 Total memory per node:   1074 MW

 GA preallocation disabled
 GA check disabled

 Variable memory set to 1073.7 MW

 ZSYMEL=NOSYM


 Geometry recognized as XYZ

 SETTING BASIS          =    CC-PVTZ


 Recomputing integrals since basis changed


 Using spherical harmonics

 Library entry SI     S cc-pVTZ              selected for orbital group  1
 Library entry SI     P cc-pVTZ              selected for orbital group  1
 Library entry SI     D cc-pVTZ              selected for orbital group  1
 Library entry SI     F cc-pVTZ              selected for orbital group  1
 Library entry H      S cc-pVTZ              selected for orbital group  2
 Library entry H      P cc-pVTZ              selected for orbital group  2
 Library entry H      D cc-pVTZ              selected for orbital group  2


 PROGRAM * SEWARD (Integral evaluation for generally contracted gaussian basis sets)     Author: Roland Lindh, 1990

 Geometry written to block  1 of record 700


 Point group  C1  



 ATOMIC COORDINATES

 NR  ATOM    CHARGE       X              Y              Z

   1  SI     14.00    1.193170845    2.107345965   -3.940693301
   2  SI     14.00    1.329747569    5.743833611   -1.406463099
   3  SI     14.00    1.362462584   -1.514377705   -1.388359315
   4  SI     14.00   -1.863834458   -1.436770375    1.653432691
   5  SI     14.00   -1.848469359   -5.116258721    4.126392020
   6  H       1.00   -1.210733979    2.082044516   -5.399860862
   7  H       1.00    3.322122483    2.135806242   -5.779189687
   8  H       1.00    3.843681867   -1.603064914   -0.066844753
   9  H       1.00    1.133191921   -3.848428235   -2.941282179
  10  H       1.00   -4.347887178   -1.164790371    0.362213312
  11  H       1.00   -1.505523487    0.818292910    3.295354324
  12  H       1.00   -3.871981857   -5.065452905    6.072821625
  13  H       1.00   -2.239811665   -7.360616840    2.485847468
  14  H       1.00    0.630314218   -5.378884316    5.418031448
  15  H       1.00    1.374392916    8.080881077   -2.961908729
  16  H       1.00   -0.926661976    5.819895560    0.261404813
  17  H       1.00    3.625819556    5.700544521    0.209104224

 Bond lengths in Bohr (Angstrom)

  1- 2  4.434525715   1- 3  4.433954308   1- 6  2.812217726   1- 7  2.813061327   2-15  2.807702829
       ( 2.346649950)       ( 2.346347574)       ( 1.488161532)       ( 1.488607947)       ( 1.485772352)

  2-16  2.806947244   2-17  2.807824476   3- 4  4.434807110   3- 8  2.812599383   3- 9  2.812814665
       ( 1.485372514)       ( 1.485836725)       ( 2.346798858)       ( 1.488363497)       ( 1.488477419)

  4- 5  4.433328141   4-10  2.812781279   4-11  2.812401789   5-12  2.808161725   5-13  2.807432741
       ( 2.346016221)       ( 1.488459752)       ( 1.488258935)       ( 1.486015189)       ( 1.485629428)

  5-14  2.807431680
       ( 1.485628866)

 Bond angles

  1- 2-15  111.49821874   1- 2-16  109.69608946   1- 2-17  109.95970358   1- 3- 4  110.65570300

  1-3-8  109.26287564   1-3-9  110.90834495   2-1-3  109.85761925   2-1-6  109.28245849

  2-1-7  109.99193719   3-1-6  108.90293215   3-1-7  110.82886764   3-4-5  111.44155391

  3- 4-10  109.22650642   3- 4-11  108.77054728   4- 3- 8  108.66677137   4- 3- 9  109.50540280

  4- 5-12  111.66160348   4- 5-13  109.69754436   4- 5-14  109.71471425   5- 4-10  109.83903329

  5- 4-11  109.83947867   6- 1- 7  107.93320894   8- 3- 9  107.76673981  10- 4-11  107.63695919

 12- 5-13  108.60580754  12- 5-14  108.60399246  13- 5-14  108.49023923  15- 2-16  108.62695565

 15- 2-17  108.57745233  16- 2-17  108.41423085

 NUCLEAR CHARGE:                   82
 NUMBER OF PRIMITIVE AOS:         524
 NUMBER OF SYMMETRY AOS:          487
 NUMBER OF CONTRACTIONS:          338   (  338A   )
 NUMBER OF INNER CORE ORBITALS:     5   (    5A   )
 NUMBER OF OUTER CORE ORBITALS:    20   (   20A   )
 NUMBER OF VALENCE ORBITALS:       32   (   32A   )


 NUCLEAR REPULSION ENERGY  467.29869563


 Eigenvalues of metric

         1 0.801E-03 0.100E-02 0.110E-02 0.119E-02 0.132E-02 0.181E-02 0.195E-02 0.198E-02


 Contracted 2-electron integrals neglected if value below      1.0D-11
 AO integral compression algorithm  1   Integral accuracy      1.0D-11

     3400.008 MB (compressed) written to integral file ( 29.4%)


 NUMBER OF SORTED TWO-ELECTRON INTEGRALS: 1641157986.     BUFFER LENGTH:  32768
 NUMBER OF SEGMENTS:  52  SEGMENT LENGTH:   31998710      RECORD LENGTH: 524288

 Memory used in sort:      32.56 MW

 SORT1 READ  1443765902. AND WROTE   959356556. INTEGRALS IN   2772 RECORDS. CPU TIME:    47.53 SEC, REAL TIME:   459.66 SEC
 SORT2 READ   959356556. AND WROTE  1641157986. INTEGRALS IN  12970 RECORDS. CPU TIME:    25.61 SEC, REAL TIME:   150.46 SEC

 FILE SIZES:   FILE 1:  3434.5 MBYTE,  FILE 4: 11626.7 MBYTE,   TOTAL:  15061.2 MBYTE

 OPERATOR DM      FOR CENTER  0  COORDINATES:    0.000000    0.000000    0.000000


 **********************************************************************************************************************************
 DATASETS  * FILE   NREC   LENGTH (MB)   RECORD NAMES
              1      19     2933.34       500      610      700      900      950      970     1000      129      960     1100   
                                          VAR    BASINP    GEOM    SYMINP    ZMAT    AOBASIS   BASIS     P2S    ABASIS      S 
                                         1400     1410     1200     1210     1080     1600     1650     1300     1700   
                                           T        V       H0       H01     AOSYM     SMH    MOLCAS    ERIS     OPER   

 PROGRAMS   *        TOTAL       INT
 CPU TIMES  *       126.80    126.70
 REAL TIME  *       694.93 SEC
 DISK USED  *        14.03 GB
 **********************************************************************************************************************************


 Program * Restricted Hartree-Fock

 Orbital guess generated from atomic densities. Full valence occupancy:   57

 Initial occupancy:  41

 NELEC=   82   SYM=1   MS2= 0   THRE=1.0D-08   THRD=3.2D-06   THRG=3.2D-06  HFMA2=F  DIIS_START=2   DIIS_MAX=10   DIIS_INCORE=F

 Level shifts:    0.00 (CLOSED)    0.00 (OPEN)    0.30 (GAP_MIN)

 ITER           ETOT              DE          GRAD        DDIFF     DIIS  NEXP   TIME(IT)  TIME(TOT)  DIAG
   1    -1451.63469781   -1451.63469781     0.00D+00     0.51D-01     0     0       8.91     17.02    start
   2    -1451.69584280      -0.06114499     0.13D-02     0.23D-02     1     0       8.83     25.85    diag
   3    -1451.70441225      -0.00856945     0.44D-03     0.83D-03     2     0       8.80     34.65    diag
   4    -1451.70465673      -0.00024447     0.82D-04     0.19D-03     3     0       8.83     43.48    diag
   5    -1451.70467562      -0.00001889     0.23D-04     0.64D-04     4     0       8.82     52.30    diag
   6    -1451.70467665      -0.00000102     0.47D-05     0.20D-04     5     0       8.76     61.06    diag
   7    -1451.70467668      -0.00000004     0.10D-05     0.36D-05     6     0       8.62     69.68    diag
   8    -1451.70467669      -0.00000000     0.25D-06     0.85D-06     7     0       8.82     78.50    fixocc
   9    -1451.70467669      -0.00000000     0.59D-07     0.15D-06     0     0       9.07     87.57    diag

 Final occupancy:  41

 !RHF STATE 1.1 Energy              -1451.704676686701
  RHF One-electron energy           -2944.915491162396
  RHF Two-electron energy            1025.912118847032
  RHF Kinetic energy                 1451.801170449125
  RHF Nuclear energy                  467.298695628663
  RHF Virial quotient                  -0.999933535139

 !RHF STATE 1.1 Dipole moment          -0.00447873    -0.00291203    -0.04483162
 Dipole moment /Debye                  -0.01138379    -0.00740164    -0.11395062

 Orbital energies:

           1.1          2.1          3.1          4.1          5.1          6.1          7.1          8.1          9.1         10.1
    -68.775808   -68.775488   -68.774083   -68.773357   -68.773125    -6.125415    -6.125170    -6.124287    -6.123595    -6.123470

          11.1         12.1         13.1         14.1         15.1         16.1         17.1         18.1         19.1         20.1
     -4.231345    -4.231296    -4.231269    -4.231104    -4.231051    -4.231030    -4.230214    -4.230108    -4.230032    -4.229368

          21.1         22.1         23.1         24.1         25.1         26.1         27.1         28.1         29.1         30.1
     -4.229285    -4.229252    -4.229238    -4.229149    -4.229092    -0.782219    -0.752069    -0.711622    -0.670288    -0.637268

          31.1         32.1         33.1         34.1         35.1         36.1         37.1         38.1         39.1         40.1
     -0.511691    -0.502607    -0.491682    -0.489133    -0.483812    -0.473908    -0.470013    -0.436794    -0.423163    -0.396169

          41.1         42.1         43.1
     -0.366544     0.097983     0.105683


 HOMO     41.1    -0.366544 =      -9.9742eV
 LUMO     42.1     0.097983 =       2.6663eV
 LUMO-HOMO         0.464527 =      12.6404eV

 Orbitals saved in record  2100.2


 **********************************************************************************************************************************
 DATASETS  * FILE   NREC   LENGTH (MB)   RECORD NAMES
              1      19     2933.34       500      610      700      900      950      970     1000      129      960     1100   
                                          VAR    BASINP    GEOM    SYMINP    ZMAT    AOBASIS   BASIS     P2S    ABASIS      S 
                                         1400     1410     1200     1210     1080     1600     1650     1300     1700   
                                           T        V       H0       H01     AOSYM     SMH    MOLCAS    ERIS     OPER   

              2       4        2.44       700     1000      520     2100   
                                         GEOM     BASIS   MCVARS     RHF  

 PROGRAMS   *        TOTAL    HF-SCF       INT
 CPU TIMES  *       214.38     87.58    126.70
 REAL TIME  *       786.56 SEC
 DISK USED  *        14.03 GB
 **********************************************************************************************************************************


 PROGRAM * CCSD (Closed-shell coupled cluster)     Authors: C. Hampel, H.-J. Werner, 1991, M. Deegan, P.J. Knowles, 1992


 Convergence thresholds:  THRVAR = 1.00D-08  THRDEN = 1.00D-06

 CCSD(T)     terms to be evaluated (factor= 1.000)


 Number of core orbitals:          25 (  25 )
 Number of closed-shell orbitals:  16 (  16 )
 Number of external orbitals:     297 ( 297 )

 Molecular orbitals read from record     2100.2  Type=RHF/CANONICAL  

 Number of N-1 electron functions:              16
 Number of N-2 electron functions:             136
 Number of singly external CSFs:              4752
 Number of doubly external CSFs:          11293128
 Total number of CSFs:                    11297881

 Length of J-op  integral file:               0.00 MB
 Length of K-op  integral file:               7.91 MB
 Length of 3-ext integral record:             0.00 MB

 Memory could be reduced to 512.64 Mwords without degradation in triples

 Integral transformation finished. Total CPU:  66.10 sec, npass=  1  Memory used: 357.10 MW

 Reference energy:                  -1451.70467669

 MP2 singlet pair energy:              -0.49052575
 MP2 triplet pair energy:              -0.14549715
 MP2 correlation energy:               -0.63602290
 MP2 total energy:                  -1452.34069958

 SCS-MP2 correlation energy:           -0.67916246   (PS=  1.200000  PT=  0.333333)
 SCS-MP2 total energy:              -1452.38383915

 ITER.      SQ.NORM     CORR.ENERGY   TOTAL ENERGY   ENERGY CHANGE        DEN1      VAR(S)    VAR(P)  DIIS     TIME  TIME/IT
   1      1.36746217    -0.73576522 -1452.44044191    -0.09974232    -0.07103709  0.31D-02  0.75D-02  1  1   397.32   116.95
   2      1.41695318    -0.74404524 -1452.44872193    -0.00828002    -0.03266501  0.13D-03  0.45D-03  2  2   516.28   120.62
   3      1.42626196    -0.74405704 -1452.44873373    -0.00001180    -0.00332386  0.73D-04  0.33D-04  3  3   639.48   121.88
   4      1.42994533    -0.74409294 -1452.44876962    -0.00003589    -0.00071376  0.11D-04  0.35D-05  4  4   760.74   122.02
   5      1.43135930    -0.74408134 -1452.44875802     0.00001160    -0.00024622  0.70D-06  0.57D-06  5  5   880.07   121.74
   6      1.43168974    -0.74405879 -1452.44873548     0.00002254    -0.00004541  0.60D-07  0.51D-07  6  6  1001.25   121.87
   7      1.43174850    -0.74405551 -1452.44873220     0.00000328    -0.00000358  0.50D-08  0.67D-08  6  1  1122.47   121.97
   8      1.43175886    -0.74405555 -1452.44873224    -0.00000003     0.00000036  0.67D-09  0.59D-09  6  2  1242.63   121.92
   9      1.43175769    -0.74405577 -1452.44873246    -0.00000022     0.00000157  0.12D-09  0.87D-10  6  4  1364.12   122.02

 Norm of t1 vector:      0.11077407      S-energy:    -0.00000007      T1 diagnostic:  0.01384676
                                                                       D1 diagnostic:  0.03097526
                                                                       D2 diagnostic:  0.17450889 (internal)

   CPU time for triples:   2135.19 sec for i =  1 - 15 / 16 (~  83.1 % done)
   CPU time for triples:    443.52 sec for i = 16 - 16 / 16 (  100.0 % done)

 Total CPU time for triples:   2578.71 sec


 RESULTS
 =======

  Reference energy                  -1451.704676686702
  CCSD singlet pair energy             -0.590066776897
  CCSD triplet pair energy             -0.153988927920
  CCSD correlation energy              -0.744055772643

  Triples (T) contribution             -0.027229262795
  Total correlation energy             -0.771285035438

  CCSD total energy                 -1452.448732459345
  CCSD[T] energy                    -1452.476576766051
  CCSD-T energy                     -1452.475719943738
 !CCSD(T) total energy              -1452.475961722140

 Timing summary (sec):

 STEP                 CPU(USER)    SYS     CPU(TOT)    WALL
 Transformation         66.98      4.25     71.23     99.09
 CCSD iterations      1298.27     10.09   1308.36   1099.49
 Triples              2578.71     38.55   2617.26   2617.35

 Program statistics:

 Available memory in ccsd:              1073740759
 Min. memory needed in ccsd:              27758494
 Max. memory used in ccsd:                37931766
 Max. memory used in cckext:              32151774 ( 9 integral passes)



 **********************************************************************************************************************************
 DATASETS  * FILE   NREC   LENGTH (MB)   RECORD NAMES
              1      20     4717.46       500      610      700      900      950      970     1000      129      960     1100   
                                          VAR    BASINP    GEOM    SYMINP    ZMAT    AOBASIS   BASIS     P2S    ABASIS      S 
                                         1400     1410     1200     1210     1080     1600     1650     1300     1700     1380   
                                           T        V       H0       H01     AOSYM     SMH    MOLCAS    ERIS     OPER     JKOP   

              2       4        2.44       700     1000      520     2100   
                                         GEOM     BASIS   MCVARS     RHF  

 PROGRAMS   *        TOTAL   CCSD(T)    HF-SCF       INT
 CPU TIMES  *      3943.63   3729.25     87.58    126.70
 REAL TIME  *      4602.86 SEC
 DISK USED  *        14.03 GB
 **********************************************************************************************************************************

 Dump information in style XML to xml output                                                                      

 Orbitals will not be exported.

 **********************************************************************************************************************************

 CCSD(T)/cc-pVTZ energy=  -1452.475961722140

         CCSD(T)          HF-SCF
  -1452.47596172  -1451.70467669
 **********************************************************************************************************************************
 Molpro calculation terminated
