
 Working directory              : /tmp/peterk/molpro.1wX6ALg6uN/
 Global scratch directory       : /tmp/peterk/molpro.1wX6ALg6uN/
 Wavefunction directory         : /home/peterk/wfu/
 Main file repository           : /tmp/peterk/molpro.1wX6ALg6uN/

 id        : peterk

 Nodes     nprocs
 marat        1
 GA implementation: MPI file
 GA implementation (serial work in mppx): MPI file

 Using customized tuning parameters: mindgm=1; mindgv=20; mindgc=4; mindgr=1; noblas=0; minvec=7
 default implementation of scratch files=df  


 Variables initialized (1032), CPU time= 0.01 sec
 
 symmetry,nosym
 
 
 geometry={
            3
     C          0.00000000      0.00000000     -1.11118191
     N          0.00000000      0.00000000      0.05815587
     H          0.00000000      0.00000000      1.05302603
 }
 basis=cc-pVQZ
 
 
 
 hf; mp2
 
 
 
 {put,xml;noorbitals,nobasis}
 Commands initialized (841), CPU time= 0.00 sec, 708 directives.
 Default parameters read. Elapsed time= 0.06 sec

 Checking input...
 Passed
1


                                         ***  PROGRAM SYSTEM MOLPRO  ***
                                       Copyright, TTI GmbH Stuttgart, 2015
                                    Version 2023.1 linked Sat Jun 10 08:01:27 2023


 **********************************************************************************************************************************
 LABEL *                                                                                                                                                                 
  (16 PROC) 64 bit serial version                                                        DATE: 10-Jun-23          TIME: 14:35:52  
 **********************************************************************************************************************************

 SHA1:             8376d659ba1296ca7ee514c57770fe2c96af278c
 **********************************************************************************************************************************

 Memory per process:      1074 MW
 Total memory per node:   1074 MW

 GA preallocation disabled
 GA check disabled

 Variable memory set to 1073.7 MW

 ZSYMEL=NOSYM


 Geometry recognized as XYZ

 SETTING BASIS          =    CC-PVQZ


 Recomputing integrals since basis changed


 Using spherical harmonics

 Library entry C      S cc-pVQZ              selected for orbital group  1
 Library entry C      P cc-pVQZ              selected for orbital group  1
 Library entry C      D cc-pVQZ              selected for orbital group  1
 Library entry C      F cc-pVQZ              selected for orbital group  1
 Library entry C      G cc-pVQZ              selected for orbital group  1
 Library entry N      S cc-pVQZ              selected for orbital group  2
 Library entry N      P cc-pVQZ              selected for orbital group  2
 Library entry N      D cc-pVQZ              selected for orbital group  2
 Library entry N      F cc-pVQZ              selected for orbital group  2
 Library entry N      G cc-pVQZ              selected for orbital group  2
 Library entry H      S cc-pVQZ              selected for orbital group  3
 Library entry H      P cc-pVQZ              selected for orbital group  3
 Library entry H      D cc-pVQZ              selected for orbital group  3
 Library entry H      F cc-pVQZ              selected for orbital group  3


 PROGRAM * SEWARD (Integral evaluation for generally contracted gaussian basis sets)     Author: Roland Lindh, 1990

 Geometry written to block  1 of record 700


 Point group  C1  



 ATOMIC COORDINATES

 NR  ATOM    CHARGE       X              Y              Z

   1  C       6.00    0.000000000    0.000000000   -2.099829485
   2  N       7.00    0.000000000    0.000000000    0.109898667
   3  H       1.00    0.000000000    0.000000000    1.989930799

 Bond lengths in Bohr (Angstrom)

 1-2  2.209728151  2-3  1.880032132
     ( 1.169337780)     ( 0.994870160)

 Bond angles

  1-2-3  180.00000000

 NUCLEAR CHARGE:                   14
 NUMBER OF PRIMITIVE AOS:         203
 NUMBER OF SYMMETRY AOS:          168
 NUMBER OF CONTRACTIONS:          140   (  140A   )
 NUMBER OF INNER CORE ORBITALS:     0   (    0A   )
 NUMBER OF OUTER CORE ORBITALS:     2   (    2A   )
 NUMBER OF VALENCE ORBITALS:        9   (    9A   )


 NUCLEAR REPULSION ENERGY   24.19728216

 EXTRA SYMMETRY OF AOS IN SYMMETRY 1:   1 1 1 1 1 2 3 1 2 3   1 2 3 1 2 3 1 1 4 2   5 3 1 4 2 5 3 1 4 2   5 3 2 3 1 6 4 7 5 2
                                        3 1 6 4 7 5 1 4 2 8   3 5 9 6 7 1 1 1 1 1   2 3 1 2 3 1 2 3 1 2   3 1 1 4 2 5 3 1 4 2
                                        5 3 1 4 2 5 3 2 3 1   6 4 7 5 2 3 1 6 4 7   5 1 4 2 8 3 5 9 6 7   1 1 1 1 2 3 1 2 3 1
                                        2 3 1 1 4 2 5 3 1 4   2 5 3 2 3 1 6 4 7 5

 Eigenvalues of metric

         1 0.153E-03 0.216E-03 0.415E-03 0.551E-03 0.133E-02 0.170E-02 0.242E-02 0.265E-02


 Contracted 2-electron integrals neglected if value below      1.0D-11
 AO integral compression algorithm  1   Integral accuracy      1.0D-11

     64.487 MB (compressed) written to integral file ( 13.6%)


 NUMBER OF SORTED TWO-ELECTRON INTEGRALS:   48713385.     BUFFER LENGTH:  32768
 NUMBER OF SEGMENTS:   4  SEGMENT LENGTH:   15999503      RECORD LENGTH: 524288

 Memory used in sort:      16.56 MW

 SORT1 READ    59152906. AND WROTE     9429329. INTEGRALS IN     29 RECORDS. CPU TIME:     0.20 SEC, REAL TIME:     0.27 SEC
 SORT2 READ     9429329. AND WROTE    48713385. INTEGRALS IN    246 RECORDS. CPU TIME:     0.41 SEC, REAL TIME:     0.46 SEC

 FILE SIZES:   FILE 1:    95.3 MBYTE,  FILE 4:   121.7 MBYTE,   TOTAL:    217.0 MBYTE

 OPERATOR DM      FOR CENTER  0  COORDINATES:    0.000000    0.000000    0.000000


 **********************************************************************************************************************************
 DATASETS  * FILE   NREC   LENGTH (MB)   RECORD NAMES
              1      19       75.40       500      610      700      900      950      970     1000      129      960     1100   
                                          VAR    BASINP    GEOM    SYMINP    ZMAT    AOBASIS   BASIS     P2S    ABASIS      S 
                                         1400     1410     1200     1210     1080     1600     1650     1300     1700   
                                           T        V       H0       H01     AOSYM     SMH    MOLCAS    ERIS     OPER   

 PROGRAMS   *        TOTAL       INT
 CPU TIMES  *         2.49      2.38
 REAL TIME  *         3.35 SEC
 DISK USED  *       207.29 MB
 **********************************************************************************************************************************


 Program * Restricted Hartree-Fock

 Orbital guess generated from atomic densities. Full valence occupancy:   11

 Initial occupancy:   7

 NELEC=   14   SYM=1   MS2= 0   THRE=1.0D-08   THRD=3.2D-06   THRG=3.2D-06  HFMA2=F  DIIS_START=2   DIIS_MAX=10   DIIS_INCORE=F

 Level shifts:    0.00 (CLOSED)    0.00 (OPEN)    0.30 (GAP_MIN)

 ITER           ETOT              DE          GRAD        DDIFF     DIIS  NEXP   TIME(IT)  TIME(TOT)  DIAG
   1      -92.88050535     -92.88050535     0.00D+00     0.51D-01     0     0       0.22      0.44    start
   2      -92.89555367      -0.01504832     0.38D-02     0.36D-02     1     0       0.22      0.66    diag
   3      -92.89819421      -0.00264054     0.20D-02     0.17D-02     2     0       0.21      0.87    diag
   4      -92.89871001      -0.00051581     0.70D-03     0.54D-03     3     0       0.22      1.09    diag
   5      -92.89874149      -0.00003148     0.13D-03     0.18D-03     4     0       0.22      1.31    diag
   6      -92.89874401      -0.00000252     0.37D-04     0.63D-04     5     0       0.23      1.54    diag
   7      -92.89874414      -0.00000013     0.97D-05     0.15D-04     6     0       0.22      1.76    diag
   8      -92.89874414      -0.00000000     0.18D-05     0.25D-05     7     0       0.22      1.98    fixocc
   9      -92.89874414      -0.00000000     0.25D-06     0.26D-06     0     0       0.23      2.21    diag

 Final occupancy:   7

 !RHF STATE 1.1 Energy                -92.898744141883
  RHF One-electron energy            -173.048442820891
  RHF Two-electron energy              55.952416518733
  RHF Kinetic energy                   92.743869566506
  RHF Nuclear energy                   24.197282160275
  RHF Virial quotient                  -1.001669917118

 !RHF STATE 1.1 Dipole moment          -0.00000000    -0.00000000     1.13000554
 Dipole moment /Debye                  -0.00000000    -0.00000000     2.87218759

 Orbital energies:

           1.1          2.1          3.1          4.1          5.1          6.1          7.1          8.1          9.1
    -15.603061   -11.295668    -1.264763    -0.875864    -0.520516    -0.520516    -0.491407     0.105665     0.161811


 HOMO      7.1    -0.491407 =     -13.3719eV
 LUMO      8.1     0.105665 =       2.8753eV
 LUMO-HOMO         0.597072 =      16.2471eV

 Orbitals saved in record  2100.2


 **********************************************************************************************************************************
 DATASETS  * FILE   NREC   LENGTH (MB)   RECORD NAMES
              1      19       75.40       500      610      700      900      950      970     1000      129      960     1100   
                                          VAR    BASINP    GEOM    SYMINP    ZMAT    AOBASIS   BASIS     P2S    ABASIS      S 
                                         1400     1410     1200     1210     1080     1600     1650     1300     1700   
                                           T        V       H0       H01     AOSYM     SMH    MOLCAS    ERIS     OPER   

              2       4        0.73       700     1000      520     2100   
                                         GEOM     BASIS   MCVARS     RHF  

 PROGRAMS   *        TOTAL    HF-SCF       INT
 CPU TIMES  *         4.70      2.21      2.38
 REAL TIME  *         5.63 SEC
 DISK USED  *       207.29 MB
 **********************************************************************************************************************************


 PROGRAM * MP2 (Closed-shell)     Authors: C. Hampel, H.-J. Werner, 1991, M. Deegan, P.J. Knowles, 1992


 Convergence thresholds:  THRVAR = 1.00D-08  THRDEN = 1.00D-06

 Number of core orbitals:           2 (   2 )
 Number of closed-shell orbitals:   5 (   5 )
 Number of external orbitals:     133 ( 133 )

 Molecular orbitals read from record     2100.2  Type=RHF/CANONICAL  

 Number of N-1 electron functions:               5
 Number of N-2 electron functions:              15
 Number of singly external CSFs:               665
 Number of doubly external CSFs:            221445
 Total number of CSFs:                      222111

 Length of J-op  integral file:               0.00 MB
 Length of K-op  integral file:               1.41 MB

 Integral transformation finished. Total CPU:   0.32 sec, npass=  1  Memory used:   0.91 MW

 Memory needed for MP2:                      0.10 MW

 SCS-MP2 correlation energy:           -0.353226471180   (PS=  1.200000  PT=  0.333333)
 SCS-MP2 total energy:                -93.251970613063


  Reference energy                    -92.898744141883
  MP2 singlet pair energy              -0.229171131791
  MP2 triplet pair energy              -0.125712503087
  MP2 correlation energy               -0.354883634877

 !MP2 total energy                    -93.253627776760


 **********************************************************************************************************************************
 DATASETS  * FILE   NREC   LENGTH (MB)   RECORD NAMES
              1      20       79.08       500      610      700      900      950      970     1000      129      960     1100   
                                          VAR    BASINP    GEOM    SYMINP    ZMAT    AOBASIS   BASIS     P2S    ABASIS      S 
                                         1400     1410     1200     1210     1080     1600     1650     1300     1700     1380   
                                           T        V       H0       H01     AOSYM     SMH    MOLCAS    ERIS     OPER     JKOP   

              2       4        0.73       700     1000      520     2100   
                                         GEOM     BASIS   MCVARS     RHF  

 PROGRAMS   *        TOTAL       MP2    HF-SCF       INT
 CPU TIMES  *         5.07      0.37      2.21      2.38
 REAL TIME  *         6.02 SEC
 DISK USED  *       207.29 MB
 **********************************************************************************************************************************

 Dump information in style XML to xml output                                                                      

 Orbitals will not be exported.

 **********************************************************************************************************************************

 MP2/cc-pVQZ energy=    -93.253627776760

             MP2          HF-SCF
    -93.25362778    -92.89874414
 **********************************************************************************************************************************
 Molpro calculation terminated
