
 Working directory              : /var/folders/2v/xbgp75_9785319ghcgb4zr4r0000gp/T//molpro.moMc1kCBrb/
 Global scratch directory       : /var/folders/2v/xbgp75_9785319ghcgb4zr4r0000gp/T//molpro.moMc1kCBrb/
 Wavefunction directory         : /Users/sacpjk/wfu/
 Main file repository           : /var/folders/2v/xbgp75_9785319ghcgb4zr4r0000gp/T//molpro.moMc1kCBrb/

 id        : peterk

 Nodes                        nprocs
 Cardiff-University-G34YLXT77Y    1
 GA implementation: MPI file
 GA implementation (serial work in mppx): MPI file

 Using customized tuning parameters: mindgm=1; mindgv=20; mindgc=4; mindgr=1; noblas=0; minvec=7
 default implementation of scratch files=df  


 Variables initialized (1032), CPU time= 0.00 sec
 
 symmetry,nosym
 
 
 geometry={
           10
     C          0.93577667      0.39537143      0.00000000
     C          0.85196601     -0.96841085      0.00000000
     O         -1.50506259     -1.24340628      0.00000000
     N         -1.72883338     -0.04590722      0.00000000
     C         -1.16713640      1.02284528      0.00000000
     H          1.15273844      0.92694986      0.92000024
     H          1.15273844      0.92694986     -0.92000024
     H          0.87762775     -1.53660420      0.92009471
     H          0.87762775     -1.53660420     -0.92009471
     H         -1.44744268      2.05881632      0.00000000
 }
 basis=cc-pVDZ
 
 
 
 hf; hf; papt; mp4
 
 
 
 {put,xml;noorbitals,nobasis}
 Commands initialized (841), CPU time= 0.01 sec, 704 directives.
 Default parameters read. Elapsed time= 1.17 sec

 Checking input...
 Passed
1


                                         ***  PROGRAM SYSTEM MOLPRO  ***
                                       Copyright, TTI GmbH Stuttgart, 2015
                                    Version 2023.1 linked Tue Jun  6 09:54:11 2023


 **********************************************************************************************************************************
 LABEL *                                                                                                                                                                 
  64 bit serial version                                                                  DATE: 11-Jun-23          TIME: 13:59:14  
 **********************************************************************************************************************************

 SHA1:             8ebb0dd001088a5c915591db1a321413035db0b1
 **********************************************************************************************************************************

 Memory per process:       393 MW
 Total memory per node:    524 MW
 Total GA space:           131 MW

 GA preallocation disabled
 GA check enabled

 Variable memory set to 393.2 MW

 ZSYMEL=NOSYM


 Geometry recognized as XYZ

 SETTING BASIS          =    CC-PVDZ


 Recomputing integrals since basis changed


 Using spherical harmonics

 Library entry C      S cc-pVDZ              selected for orbital group  1
 Library entry C      P cc-pVDZ              selected for orbital group  1
 Library entry C      D cc-pVDZ              selected for orbital group  1
 Library entry O      S cc-pVDZ              selected for orbital group  2
 Library entry O      P cc-pVDZ              selected for orbital group  2
 Library entry O      D cc-pVDZ              selected for orbital group  2
 Library entry N      S cc-pVDZ              selected for orbital group  3
 Library entry N      P cc-pVDZ              selected for orbital group  3
 Library entry N      D cc-pVDZ              selected for orbital group  3
 Library entry H      S cc-pVDZ              selected for orbital group  5
 Library entry H      P cc-pVDZ              selected for orbital group  5


 PROGRAM * SEWARD (Integral evaluation for generally contracted gaussian basis sets)     Author: Roland Lindh, 1990

 Geometry written to block  1 of record 700


 Point group  C1  



 ATOMIC COORDINATES

 NR  ATOM    CHARGE       X              Y              Z

   1  C       6.00    1.768361620    0.747143720    0.000000000
   2  C       6.00    1.609982426   -1.830031283    0.000000000
   3  O       8.00   -2.844156096   -2.349697331    0.000000000
   4  N       7.00   -3.267021603   -0.086752073    0.000000000
   5  C       6.00   -2.205568146    1.932897447    0.000000000
   6  H       1.00    2.178359945    1.751681367    1.738548488
   7  H       1.00    2.178359945    1.751681367   -1.738548488
   8  H       1.00    1.658476087   -2.903761100    1.738727011
   9  H       1.00    1.658476087   -2.903761100   -1.738727011
  10  H       1.00   -2.735270246    3.890598986    0.000000000

 Bond lengths in Bohr (Angstrom)

 1-2  2.582036980  1-6  2.049328025  1-7  2.049328025  2-8  2.044118141  2-9  2.044118141
     ( 1.366355127)     ( 1.084457689)     ( 1.084457689)     ( 1.081700736)     ( 1.081700736)

  3- 4  2.302115653   4- 5  2.281593221   5-10  2.028097539
       ( 1.218227140)       ( 1.207367137)       ( 1.073222999)

 Bond angles

  1-2-8  121.52250959   1-2-9  121.52250959   2-1-6  120.10112852   2-1-7  120.10112852

  3- 4- 5  141.69072663   4- 5-10  137.13504101   6- 1- 7  116.06542625   8- 2- 9  116.55399035

 NUCLEAR CHARGE:                   38
 NUMBER OF PRIMITIVE AOS:         170
 NUMBER OF SYMMETRY AOS:          165
 NUMBER OF CONTRACTIONS:           95   (   95A   )
 NUMBER OF INNER CORE ORBITALS:     0   (    0A   )
 NUMBER OF OUTER CORE ORBITALS:     5   (    5A   )
 NUMBER OF VALENCE ORBITALS:       25   (   25A   )


 NUCLEAR REPULSION ENERGY  161.14848520


 Eigenvalues of metric

         1 0.291E-02 0.507E-02 0.851E-02 0.129E-01 0.162E-01 0.179E-01 0.271E-01 0.274E-01


 Contracted 2-electron integrals neglected if value below      1.0D-11
 AO integral compression algorithm  1   Integral accuracy      1.0D-11

     38.797 MB (compressed) written to integral file ( 41.8%)


 NUMBER OF SORTED TWO-ELECTRON INTEGRALS:   10399080.     BUFFER LENGTH:  32768
 NUMBER OF SEGMENTS:   1  SEGMENT LENGTH:   10399080      RECORD LENGTH: 524288

 Memory used in sort:      10.96 MW

 SORT1 READ    11627443. AND WROTE     8292795. INTEGRALS IN     24 RECORDS. CPU TIME:     0.07 SEC, REAL TIME:     0.10 SEC
 SORT2 READ     8292795. AND WROTE    10399080. INTEGRALS IN    148 RECORDS. CPU TIME:     0.12 SEC, REAL TIME:     0.14 SEC

 FILE SIZES:   FILE 1:    69.3 MBYTE,  FILE 4:   100.7 MBYTE,   TOTAL:    170.0 MBYTE

 OPERATOR DM      FOR CENTER  0  COORDINATES:    0.000000    0.000000    0.000000


 **********************************************************************************************************************************
 DATASETS  * FILE   NREC   LENGTH (MB)   RECORD NAMES
              1      19       61.87       500      610      700      900      950      970     1000      129      960     1100   
                                          VAR    BASINP    GEOM    SYMINP    ZMAT    AOBASIS   BASIS     P2S    ABASIS      S 
                                         1400     1410     1200     1210     1080     1600     1650     1300     1700   
                                           T        V       H0       H01     AOSYM     SMH    MOLCAS    ERIS     OPER   

 PROGRAMS   *        TOTAL       INT
 CPU TIMES  *         0.88      0.78
 REAL TIME  *         4.20 SEC
 DISK USED  *       162.63 MB
 **********************************************************************************************************************************


 Program * Restricted Hartree-Fock

 Orbital guess generated from atomic densities. Full valence occupancy:   30

 Initial occupancy:  19

 NELEC=   38   SYM=1   MS2= 0   THRE=1.0D-08   THRD=3.2D-06   THRG=3.2D-06  HFMA2=F  DIIS_START=2   DIIS_MAX=10   DIIS_INCORE=F

 Level shifts:    0.00 (CLOSED)    0.00 (OPEN)    0.30 (GAP_MIN)

 ITER           ETOT              DE          GRAD        DDIFF     DIIS  NEXP   TIME(IT)  TIME(TOT)  DIAG
   1     -245.54510296    -245.54510296     0.00D+00     0.12D+00     0     0       0.05      0.09    start
   2     -245.59501572      -0.04991276     0.73D-02     0.16D-01     1     0       0.05      0.14    diag
   3     -245.62887304      -0.03385732     0.53D-02     0.70D-02     2     0       0.05      0.19    diag
   4     -245.63062082      -0.00174778     0.91D-03     0.18D-02     3     0       0.05      0.24    diag
   5     -245.63087103      -0.00025020     0.28D-03     0.67D-03     4     0       0.05      0.29    diag
   6     -245.63095768      -0.00008665     0.19D-03     0.33D-03     5     0       0.04      0.33    diag
   7     -245.63100033      -0.00004265     0.81D-04     0.25D-03     6     0       0.05      0.38    diag
   8     -245.63102830      -0.00002797     0.54D-04     0.24D-03     7     0       0.05      0.43    fixocc
   9     -245.63104111      -0.00001281     0.28D-04     0.22D-03     8     0       0.05      0.48    diag
  10     -245.63104316      -0.00000205     0.13D-04     0.82D-04     9     0       0.04      0.52    diag/orth
  11     -245.63104351      -0.00000035     0.51D-05     0.44D-04     9     0       0.05      0.57    diag
  12     -245.63104353      -0.00000001     0.16D-05     0.68D-05     9     0       0.05      0.62    diag
  13     -245.63104353      -0.00000000     0.46D-06     0.13D-05     9     0       0.04      0.66    diag
  14     -245.63104353      -0.00000000     0.25D-06     0.56D-06     0     0       0.05      0.71    diag

 Final occupancy:  19

 !RHF STATE 1.1 Energy               -245.631043526212
  RHF One-electron energy            -653.035587016995
  RHF Two-electron energy             246.256058294555
  RHF Kinetic energy                  245.294610599848
  RHF Nuclear energy                  161.148485196228
  RHF Virial quotient                  -1.001371546344

 !RHF STATE 1.1 Dipole moment           0.42694293     1.17391432     0.00000000
 Dipole moment /Debye                   1.08518068     2.98379258     0.00000000

 Orbital energies:

           1.1          2.1          3.1          4.1          5.1          6.1          7.1          8.1          9.1         10.1
    -20.580756   -15.707032   -11.317957   -11.258249   -11.240995    -1.485851    -1.173457    -1.036998    -0.809410    -0.788273

          11.1         12.1         13.1         14.1         15.1         16.1         17.1         18.1         19.1         20.1
     -0.704034    -0.655044    -0.647424    -0.625904    -0.586016    -0.514698    -0.406767    -0.381618    -0.341270     0.085353

          21.1
      0.175755


 HOMO     19.1    -0.341270 =      -9.2864eV
 LUMO     20.1     0.085353 =       2.3226eV
 LUMO-HOMO         0.426623 =      11.6090eV

 Orbitals saved in record  2100.2


 **********************************************************************************************************************************
 DATASETS  * FILE   NREC   LENGTH (MB)   RECORD NAMES
              1      19       61.87       500      610      700      900      950      970     1000      129      960     1100   
                                          VAR    BASINP    GEOM    SYMINP    ZMAT    AOBASIS   BASIS     P2S    ABASIS      S 
                                         1400     1410     1200     1210     1080     1600     1650     1300     1700   
                                           T        V       H0       H01     AOSYM     SMH    MOLCAS    ERIS     OPER   

              2       4        0.67       700     1000      520     2100   
                                         GEOM     BASIS   MCVARS     RHF  

 PROGRAMS   *        TOTAL    HF-SCF       INT
 CPU TIMES  *         1.59      0.71      0.78
 REAL TIME  *         5.70 SEC
 DISK USED  *       162.63 MB
 **********************************************************************************************************************************


 Program * Restricted Hartree-Fock

 Molecular orbitals read from record     2100.2  Type=RHF/CANONICAL  

 Initial occupancy:  19

 NELEC=   38   SYM=1   MS2= 0   THRE=1.0D-08   THRD=3.2D-06   THRG=3.2D-06  HFMA2=F  DIIS_START=2   DIIS_MAX=10   DIIS_INCORE=F

 Level shifts:    0.00 (CLOSED)    0.00 (OPEN)    0.30 (GAP_MIN)

 ITER           ETOT              DE          GRAD        DDIFF     DIIS  NEXP   TIME(IT)  TIME(TOT)  DIAG
   1     -245.63104353    -245.63104353     0.00D+00     0.12D+00     0     0       0.05      0.05    start
   2     -245.63104353      -0.00000000     0.13D-06     0.31D-06     1     0       0.05      0.10    diag

 Final occupancy:  19

 !RHF STATE 1.1 Energy               -245.631043526255
  RHF One-electron energy            -653.035559308474
  RHF Two-electron energy             246.256030585991
  RHF Kinetic energy                  245.294600471166
  RHF Nuclear energy                  161.148485196228
  RHF Virial quotient                  -1.001371587693

 !RHF STATE 1.1 Dipole moment           0.42691389     1.17392431    -0.00000000
 Dipole moment /Debye                   1.08510688     2.98381798    -0.00000000

 Orbital energies:

           1.1          2.1          3.1          4.1          5.1          6.1          7.1          8.1          9.1         10.1
    -20.580758   -15.707020   -11.317955   -11.258253   -11.240994    -1.485848    -1.173454    -1.036998    -0.809410    -0.788273

          11.1         12.1         13.1         14.1         15.1         16.1         17.1         18.1         19.1         20.1
     -0.704033    -0.655044    -0.647423    -0.625903    -0.586017    -0.514699    -0.406766    -0.381617    -0.341270     0.085354

          21.1
      0.175757


 HOMO     19.1    -0.341270 =      -9.2864eV
 LUMO     20.1     0.085354 =       2.3226eV
 LUMO-HOMO         0.426624 =      11.6090eV

 Orbitals saved in record  2101.2


 **********************************************************************************************************************************
 DATASETS  * FILE   NREC   LENGTH (MB)   RECORD NAMES
              1      19       61.87       500      610      700      900      950      970     1000      129      960     1100   
                                          VAR    BASINP    GEOM    SYMINP    ZMAT    AOBASIS   BASIS     P2S    ABASIS      S 
                                         1400     1410     1200     1210     1080     1600     1650     1300     1700   
                                           T        V       H0       H01     AOSYM     SMH    MOLCAS    ERIS     OPER   

              2       5        1.02       700     1000      520     2100     2101   
                                         GEOM     BASIS   MCVARS     RHF      RHF  

 PROGRAMS   *        TOTAL    HF-SCF    HF-SCF       INT
 CPU TIMES  *         1.70      0.10      0.71      0.78
 REAL TIME  *         6.11 SEC
 DISK USED  *       162.63 MB
 **********************************************************************************************************************************


 PROGRAM * PAPT (Closed-shell)     Authors: C. Hampel, H.-J. Werner, 1991, P.J. Knowles, 2021


 Convergence thresholds:  THRVAR = 1.00D-08  THRDEN = 1.00D-06

 Number of core orbitals:           5 (   5 )
 Number of closed-shell orbitals:  14 (  14 )
 Number of external orbitals:      76 (  76 )

 Molecular orbitals read from record     2101.2  Type=RHF/CANONICAL  

 Number of N-1 electron functions:              14
 Number of N-2 electron functions:             105
 Number of singly external CSFs:              1064
 Number of doubly external CSFs:            566580
 Total number of CSFs:                      567645

 Length of J-op  integral file:               0.00 MB
 Length of K-op  integral file:               0.68 MB

 Integral transformation finished. Total CPU:   0.18 sec, npass=  1  Memory used:   1.77 MW

 Reference energy:                   -245.63104353

                        CORR.ENERGY   TOTAL ENERGY   ENERGY CHANGE
 MP2:                   -0.80908231  -246.44012584    -0.80908231

 SCS-MP2 correlation energy:           -0.78544836   (PS=  1.200000  PT=  0.333333)
 SCS-MP2 total energy:               -246.41649189
 Iteration:   1     0.6093D+00
 Iteration:   2     0.6333D+00
 Iteration:   3     0.2392D+00
 Iteration:   4     0.1655D+00
 Iteration:   5     0.1504D+00
 Iteration:   6     0.7440D-01
 Iteration:   7     0.2782D+00
 Iteration:   8     0.4723D-01
 Iteration:   9     0.7419D-01
 Iteration:  10     0.2715D-01
 Iteration:  11     0.1877D-01
 Iteration:  12     0.1801D-01
 Iteration:  13     0.6126D-02
 Iteration:  14     0.3713D-01
 Iteration:  15     0.3199D-02
 Iteration:  16     0.3083D-02
 Iteration:  17     0.1659D-02
 Iteration:  18     0.1038D-02
 Iteration:  19     0.9947D-03
 Iteration:  20     0.3599D-03
 Iteration:  21     0.2231D-02
 Iteration:  22     0.1815D-03
 Iteration:  23     0.1109D-02
 Iteration:  24     0.6114D-04
 PAPT operator written to  7000.1
 PAPT orbitals and eigenvalues written to  7000.2

 MP3(D):                -0.80532607  -246.43636959     0.00375624



 RESULTS
 =======

  Reference energy                   -245.631043526256
  MP3 singlet pair energy              -0.527623848773
  MP3 triplet pair energy              -0.277702216713
  MP3 correlation energy               -0.805326065486

 !MP3 total energy                   -246.436369591742

 Timing summary (sec):

 STEP                 CPU(USER)    SYS     CPU(TOT)    WALL
 Transformation          0.20      0.02      0.22      0.45
 CCSD iterations         4.66      0.11      4.77      5.02

 Program statistics:

 Available memory in ccsd:               393215197
 Min. memory needed in ccsd:               1571457
 Max. memory used in ccsd:                 2052651
 Max. memory used in cckext:               2022034 ( 1 integral passes)



 **********************************************************************************************************************************
 DATASETS  * FILE   NREC   LENGTH (MB)   RECORD NAMES
              1      21       72.93       500      610      700      900      950      970     1000      129      960     1100   
                                          VAR    BASINP    GEOM    SYMINP    ZMAT    AOBASIS   BASIS     P2S    ABASIS      S 
                                         1400     1410     1200     1210     1080     1600     1650     1300     1700     1380   
                                           T        V       H0       H01     AOSYM     SMH    MOLCAS    ERIS     OPER     JKOP   
                                         7000   
                                        PAPT AO    

              2       6        1.32       700     1000      520     2100     2101     7000   
                                         GEOM     BASIS   MCVARS     RHF      RHF     PAPT   

 PROGRAMS   *        TOTAL      PAPT    HF-SCF    HF-SCF       INT
 CPU TIMES  *         4.76      3.06      0.10      0.71      0.78
 REAL TIME  *        11.85 SEC
 DISK USED  *       162.63 MB
 **********************************************************************************************************************************


 PROGRAM * MP4 (Closed-shell)     Authors: C. Hampel, H.-J. Werner, 1991, M. Deegan, P.J. Knowles, 1992


 Convergence thresholds:  THRVAR = 1.00D-08  THRDEN = 1.00D-06

 MP4(T)     terms to be evaluated (factor= 0.000)


 Number of core orbitals:           5 (   5 )
 Number of closed-shell orbitals:  14 (  14 )
 Number of external orbitals:      76 (  76 )

 Molecular orbitals read from record     7000.2  Type=PAPT/CANONICAL (state 1.1)

 Number of N-1 electron functions:              14
 Number of N-2 electron functions:             105
 Number of singly external CSFs:              1064
 Number of doubly external CSFs:            566580
 Total number of CSFs:                      567645

 Length of J-op  integral file:               0.00 MB
 Length of K-op  integral file:               0.68 MB

 Memory could be reduced to 8.81 Mwords without degradation in triples

 Integral transformation finished. Total CPU:   0.34 sec, npass=  1  Memory used:   8.27 MW
 Orbital energies read from record       7000.2  Type=PAPT/CANONICAL (state 1.1)

 Reference energy:                   -245.63104353

                        CORR.ENERGY   TOTAL ENERGY   ENERGY CHANGE
 MP2:                   -0.81726240  -246.44830592    -0.81726240

 SCS-MP2 correlation energy:           -0.79937791   (PS=  1.200000  PT=  0.333333)
 SCS-MP2 total energy:               -246.43042144

 MP3(D):                -0.81761068  -246.44865420    -0.00034828
 MP4(DQ):               -0.81036259  -246.44140611     0.00724809
 MP4(SDQ):              -0.82164388  -246.45268741    -0.01128129

 Norm of t1 vector:      0.10841008      S-energy:    -0.01128129      T1 diagnostic:  0.01448691

 Largest off-diagonal element in interal  block of Fock matrix:  0.15D+00
 Largest off-diagonal element in external block of Fock matrix:  0.14D+00


 Total CPU time for triples:      6.77 sec


 RESULTS
 =======

  Reference energy                   -245.631043526255
  MP4(SDQ) singlet pair energy         -0.527370385285
  MP4(SDQ) triplet pair energy         -0.282992201846
  MP4(SDQ) correlation energy          -0.821643882115

  Triples contribution                 -0.042382113582
  Total correlation energy             -0.864025995697

  MP4(SDQ) total energy              -246.452687408371
 !MP4(SDTQ) total energy             -246.495069521953

 Timing summary (sec):

 STEP                 CPU(USER)    SYS     CPU(TOT)    WALL
 Transformation          0.41      0.05      0.46      1.02
 CCSD iterations         6.01      0.07      6.08      1.60
 Triples                 6.77      0.56      7.33      8.06

 Program statistics:

 Available memory in ccsd:               393215197
 Min. memory needed in ccsd:               1571457
 Max. memory used in ccsd:                 2052651
 Max. memory used in cckext:               2022034 ( 1 integral passes)



 **********************************************************************************************************************************
 DATASETS  * FILE   NREC   LENGTH (MB)   RECORD NAMES
              1      22       96.68       500      610      700      900      950      970     1000      129      960     1100   
                                          VAR    BASINP    GEOM    SYMINP    ZMAT    AOBASIS   BASIS     P2S    ABASIS      S 
                                         1400     1410     1200     1210     1080     1600     1650     1300     1700     1380   
                                           T        V       H0       H01     AOSYM     SMH    MOLCAS    ERIS     OPER     JKOP   
                                         7000     1380(1)
                                        PAPT AO   JKOP   

              2       6        1.32       700     1000      520     2100     2101     7000   
                                         GEOM     BASIS   MCVARS     RHF      RHF     PAPT   

 PROGRAMS   *        TOTAL       MP4      PAPT    HF-SCF    HF-SCF       INT
 CPU TIMES  *        13.09      8.33      3.06      0.10      0.71      0.78
 REAL TIME  *        22.78 SEC
 DISK USED  *       162.63 MB
 **********************************************************************************************************************************

 Dump information in style XML to xml output                                                                      

 Orbitals will not be exported.

 **********************************************************************************************************************************

 MP4/cc-pVDZ energy=   -246.495069521953

             MP4            PAPT          HF-SCF          HF-SCF
   -246.49506952   -246.43636959   -245.63104353   -245.63104353
 **********************************************************************************************************************************
 Molpro calculation terminated
