
 Working directory              : /var/folders/2v/xbgp75_9785319ghcgb4zr4r0000gp/T//molpro.hfigXPVbop/
 Global scratch directory       : /var/folders/2v/xbgp75_9785319ghcgb4zr4r0000gp/T//molpro.hfigXPVbop/
 Wavefunction directory         : /Users/sacpjk/wfu/
 Main file repository           : /var/folders/2v/xbgp75_9785319ghcgb4zr4r0000gp/T//molpro.hfigXPVbop/

 id        : peterk

 Nodes                        nprocs
 Cardiff-University-G34YLXT77Y    1
 GA implementation: MPI file
 GA implementation (serial work in mppx): MPI file

 Using customized tuning parameters: mindgm=1; mindgv=20; mindgc=4; mindgr=1; noblas=0; minvec=7
 default implementation of scratch files=df  


 Variables initialized (1032), CPU time= 0.00 sec
 
 symmetry,nosym
 
 
 geometry={
 7
  n         -0.229345409277   -0.708649435882   -0.535982633208
  h          0.066923260748   -0.434111700981   -1.463967876502
  h          0.394204257637   -1.456339751910   -0.260787770234
  c         -0.069115433328    0.426561156949    0.377692670847
  h         -0.339305737415    0.111865376710    1.383345779611
  h          0.938294877758    0.848337716107    0.414664404502
  h         -0.761655816229    1.212336638955    0.085035424878
 }
 basis=aug-cc-pVTZ
 
 
 
 hf; hf; papt; mp4
 
 
 
 {put,xml;noorbitals,nobasis}
 Commands initialized (841), CPU time= 0.01 sec, 704 directives.
 Default parameters read. Elapsed time= 5.38 sec

 Checking input...
 Passed
1


                                         ***  PROGRAM SYSTEM MOLPRO  ***
                                       Copyright, TTI GmbH Stuttgart, 2015
                                    Version 2023.1 linked Tue Jun  6 09:54:11 2023


 **********************************************************************************************************************************
 LABEL *                                                                                                                                                                 
  64 bit serial version                                                                  DATE: 09-Jun-23          TIME: 01:28:32  
 **********************************************************************************************************************************

 SHA1:             8ebb0dd001088a5c915591db1a321413035db0b1
 **********************************************************************************************************************************

 Memory per process:       805 MW
 Total memory per node:   1074 MW
 Total GA space:           268 MW

 GA preallocation disabled
 GA check enabled

 Variable memory set to 805.3 MW

 ZSYMEL=NOSYM


 Geometry recognized as XYZ

 SETTING BASIS          =    AUG-CC-PVTZ


 Recomputing integrals since basis changed


 Using spherical harmonics

 Library entry N      S aug-cc-pVTZ          selected for orbital group  1
 Library entry N      P aug-cc-pVTZ          selected for orbital group  1
 Library entry N      D aug-cc-pVTZ          selected for orbital group  1
 Library entry N      F aug-cc-pVTZ          selected for orbital group  1
 Library entry H      S aug-cc-pVTZ          selected for orbital group  2
 Library entry H      P aug-cc-pVTZ          selected for orbital group  2
 Library entry H      D aug-cc-pVTZ          selected for orbital group  2
 Library entry C      S aug-cc-pVTZ          selected for orbital group  3
 Library entry C      P aug-cc-pVTZ          selected for orbital group  3
 Library entry C      D aug-cc-pVTZ          selected for orbital group  3
 Library entry C      F aug-cc-pVTZ          selected for orbital group  3


 PROGRAM * SEWARD (Integral evaluation for generally contracted gaussian basis sets)     Author: Roland Lindh, 1990

 Geometry written to block  1 of record 700


 Point group  C1  



 ATOMIC COORDINATES

 NR  ATOM    CHARGE       X              Y              Z

   1  N       7.00   -0.433400011   -1.339153352   -1.012860384
   2  H       1.00    0.126466634   -0.820352222   -2.766498342
   3  H       1.00    0.744938084   -2.752083276   -0.492817462
   4  C       6.00   -0.130609240    0.806083762    0.713735707
   5  H       1.00   -0.641194916    0.211394925    2.614144659
   6  H       1.00    1.773120343    1.603125945    0.783602158
   7  H       1.00   -1.439320894    2.290984218    0.160693664

 Bond lengths in Bohr (Angstrom)

 1-2  1.912551008  1-3  1.911882914  1-4  2.770353514  4-5  2.055701031  4-6  2.065028786
     ( 1.012078408)     ( 1.011724868)     ( 1.466007946)     ( 1.087830138)     ( 1.092766173)

 4-7  2.055118259
     ( 1.087521749)

 Bond angles

  1-4-5  108.96566473   1-4-6  114.88035324   1-4-7  108.79498984   2-1-3  105.63187802

  2-1-4  109.23286160   3-1-4  109.59570301   5-4-6  108.02032202   5-4-7  107.43539387

  6-4-7  108.49916730

 NUCLEAR CHARGE:                   18
 NUMBER OF PRIMITIVE AOS:         269
 NUMBER OF SYMMETRY AOS:          241
 NUMBER OF CONTRACTIONS:          207   (  207A   )
 NUMBER OF INNER CORE ORBITALS:     0   (    0A   )
 NUMBER OF OUTER CORE ORBITALS:     2   (    2A   )
 NUMBER OF VALENCE ORBITALS:       13   (   13A   )


 NUCLEAR REPULSION ENERGY   42.05982948

 Eigenvalues of metric

         1 0.389E-04 0.625E-04 0.645E-04 0.137E-03 0.160E-03 0.250E-03 0.392E-03 0.658E-03


 Contracted 2-electron integrals neglected if value below      1.0D-12
 AO integral compression algorithm  1   Integral accuracy      1.0D-12

     1347.158 MB (compressed) written to integral file ( 63.0%)


 NUMBER OF SORTED TWO-ELECTRON INTEGRALS:  231738156.     BUFFER LENGTH:  32768
 NUMBER OF SEGMENTS:  15  SEGMENT LENGTH:   15999503      RECORD LENGTH: 524288

 Memory used in sort:      16.56 MW

 SORT1 READ   267401021. AND WROTE   230454553. INTEGRALS IN    665 RECORDS. CPU TIME:     1.74 SEC, REAL TIME:     2.41 SEC
 SORT2 READ   230454553. AND WROTE   231738156. INTEGRALS IN   5139 RECORDS. CPU TIME:     1.42 SEC, REAL TIME:     2.02 SEC

 FILE SIZES:   FILE 1:  1378.8 MBYTE,  FILE 4:  2789.3 MBYTE,   TOTAL:   4168.1 MBYTE

 OPERATOR DM      FOR CENTER  0  COORDINATES:    0.000000    0.000000    0.000000


 **********************************************************************************************************************************
 DATASETS  * FILE   NREC   LENGTH (MB)   RECORD NAMES
              1      19     1170.14       500      610      700      900      950      970     1000      129      960     1100   
                                          VAR    BASINP    GEOM    SYMINP    ZMAT    AOBASIS   BASIS     P2S    ABASIS      S 
                                         1400     1410     1200     1210     1080     1600     1650     1300     1700   
                                           T        V       H0       H01     AOSYM     SMH    MOLCAS    ERIS     OPER   

 PROGRAMS   *        TOTAL       INT
 CPU TIMES  *         7.67      7.57
 REAL TIME  *        18.07 SEC
 DISK USED  *         3.88 GB
 **********************************************************************************************************************************


 Program * Restricted Hartree-Fock

 Orbital guess generated from atomic densities. Full valence occupancy:   15

 Initial occupancy:   9

 NELEC=   18   SYM=1   MS2= 0   THRE=1.0D-08   THRD=3.2D-06   THRG=3.2D-06  HFMA2=F  DIIS_START=2   DIIS_MAX=10   DIIS_INCORE=F

 Level shifts:    0.00 (CLOSED)    0.00 (OPEN)    0.30 (GAP_MIN)

 ITER           ETOT              DE          GRAD        DDIFF     DIIS  NEXP   TIME(IT)  TIME(TOT)  DIAG
   1      -95.22543176     -95.22543176     0.00D+00     0.41D-01     0     0       0.98      1.90    start
   2      -95.25109657      -0.02566481     0.37D-02     0.43D-02     1     0       0.99      2.89    diag
   3      -95.25486930      -0.00377273     0.16D-02     0.12D-02     2     0       0.98      3.87    diag
   4      -95.25539048      -0.00052119     0.46D-03     0.42D-03     3     0       0.99      4.86    diag
   5      -95.25541697      -0.00002648     0.90D-04     0.79D-04     4     0       0.97      5.83    diag
   6      -95.25541869      -0.00000173     0.21D-04     0.24D-04     5     0       0.95      6.78    diag
   7      -95.25541882      -0.00000013     0.60D-05     0.64D-05     6     0       0.97      7.75    diag
   8      -95.25541883      -0.00000002     0.16D-05     0.27D-05     7     0       1.01      8.76    fixocc
   9      -95.25541883      -0.00000000     0.41D-06     0.77D-06     8     0       1.00      9.76    diag
  10      -95.25541883      -0.00000000     0.89D-07     0.90D-07     0     0       1.01     10.77    diag/orth

 Final occupancy:   9

 !RHF STATE 1.1 Energy                -95.255418833827
  RHF One-electron energy            -211.471687098510
  RHF Two-electron energy              74.156438780137
  RHF Kinetic energy                   95.124991749254
  RHF Nuclear energy                   42.059829484546
  RHF Virial quotient                  -1.001371112703

 !RHF STATE 1.1 Dipole moment           0.54684284     0.16552858    -0.00767291
 Dipole moment /Debye                   1.38993587     0.42073168    -0.01950260

 Orbital energies:

           1.1          2.1          3.1          4.1          5.1          6.1          7.1          8.1          9.1         10.1
    -15.540067   -11.240419    -1.170509    -0.896362    -0.661681    -0.604299    -0.554945    -0.517162    -0.393960     0.029449

          11.1
      0.042849


 HOMO      9.1    -0.393960 =     -10.7202eV
 LUMO     10.1     0.029449 =       0.8013eV
 LUMO-HOMO         0.423409 =      11.5215eV

 Orbitals saved in record  2100.2


 **********************************************************************************************************************************
 DATASETS  * FILE   NREC   LENGTH (MB)   RECORD NAMES
              1      19     1170.14       500      610      700      900      950      970     1000      129      960     1100   
                                          VAR    BASINP    GEOM    SYMINP    ZMAT    AOBASIS   BASIS     P2S    ABASIS      S 
                                         1400     1410     1200     1210     1080     1600     1650     1300     1700   
                                           T        V       H0       H01     AOSYM     SMH    MOLCAS    ERIS     OPER   

              2       4        1.16       700     1000      520     2100   
                                         GEOM     BASIS   MCVARS     RHF  

 PROGRAMS   *        TOTAL    HF-SCF       INT
 CPU TIMES  *        18.45     10.78      7.57
 REAL TIME  *        32.40 SEC
 DISK USED  *         3.88 GB
 **********************************************************************************************************************************


 Program * Restricted Hartree-Fock

 Molecular orbitals read from record     2100.2  Type=RHF/CANONICAL  

 Initial occupancy:   9

 NELEC=   18   SYM=1   MS2= 0   THRE=1.0D-08   THRD=3.2D-06   THRG=3.2D-06  HFMA2=F  DIIS_START=2   DIIS_MAX=10   DIIS_INCORE=F

 Level shifts:    0.00 (CLOSED)    0.00 (OPEN)    0.30 (GAP_MIN)

 ITER           ETOT              DE          GRAD        DDIFF     DIIS  NEXP   TIME(IT)  TIME(TOT)  DIAG
   1      -95.25541883     -95.25541883     0.00D+00     0.42D-01     0     0       1.06      1.06    start
   2      -95.25541883      -0.00000000     0.42D-07     0.44D-07     1     0       1.02      2.08    diag

 Final occupancy:   9

 !RHF STATE 1.1 Energy                -95.255418833836
  RHF One-electron energy            -211.471689860506
  RHF Two-electron energy              74.156441542123
  RHF Kinetic energy                   95.124992137476
  RHF Nuclear energy                   42.059829484546
  RHF Virial quotient                  -1.001371108616

 !RHF STATE 1.1 Dipole moment           0.54684438     0.16552946    -0.00767259
 Dipole moment /Debye                   1.38993977     0.42073392    -0.01950178

 Orbital energies:

           1.1          2.1          3.1          4.1          5.1          6.1          7.1          8.1          9.1         10.1
    -15.540068   -11.240418    -1.170509    -0.896362    -0.661681    -0.604299    -0.554945    -0.517162    -0.393961     0.029449

          11.1
      0.042849


 HOMO      9.1    -0.393961 =     -10.7202eV
 LUMO     10.1     0.029449 =       0.8013eV
 LUMO-HOMO         0.423409 =      11.5216eV

 Orbitals saved in record  2101.2


 **********************************************************************************************************************************
 DATASETS  * FILE   NREC   LENGTH (MB)   RECORD NAMES
              1      19     1170.14       500      610      700      900      950      970     1000      129      960     1100   
                                          VAR    BASINP    GEOM    SYMINP    ZMAT    AOBASIS   BASIS     P2S    ABASIS      S 
                                         1400     1410     1200     1210     1080     1600     1650     1300     1700   
                                           T        V       H0       H01     AOSYM     SMH    MOLCAS    ERIS     OPER   

              2       5        2.41       700     1000      520     2100     2101   
                                         GEOM     BASIS   MCVARS     RHF      RHF  

 PROGRAMS   *        TOTAL    HF-SCF    HF-SCF       INT
 CPU TIMES  *        20.55      2.10     10.78      7.57
 REAL TIME  *        36.02 SEC
 DISK USED  *         3.88 GB
 **********************************************************************************************************************************


 PROGRAM * PAPT (Closed-shell)     Authors: C. Hampel, H.-J. Werner, 1991, P.J. Knowles, 2021


 Convergence thresholds:  THRVAR = 1.00D-08  THRDEN = 1.00D-06

 Number of core orbitals:           2 (   2 )
 Number of closed-shell orbitals:   7 (   7 )
 Number of external orbitals:     198 ( 198 )

 Molecular orbitals read from record     2101.2  Type=RHF/CANONICAL  

 Number of N-1 electron functions:               7
 Number of N-2 electron functions:              28
 Number of singly external CSFs:              1386
 Number of doubly external CSFs:            961191
 Total number of CSFs:                      962578

 Length of J-op  integral file:               0.00 MB
 Length of K-op  integral file:               3.00 MB

 Integral transformation finished. Total CPU:   1.55 sec, npass=  1  Memory used:   2.95 MW

 Reference energy:                    -95.25541883

                        CORR.ENERGY   TOTAL ENERGY   ENERGY CHANGE
 MP2:                   -0.41171417   -95.66713300    -0.41171417

 SCS-MP2 correlation energy:           -0.41616554   (PS=  1.200000  PT=  0.333333)
 SCS-MP2 total energy:                -95.67158438
 Iteration:   1     0.1816D+00
 Iteration:   2     0.2230D+00
 Iteration:   3     0.3912D-01
 Iteration:   4     0.3332D-01
 Iteration:   5     0.2482D-01
 Iteration:   6     0.7816D-02
 Iteration:   7     0.6011D+01
 Iteration:   8     0.2750D-02
 Iteration:   9     0.2726D-02
 Iteration:  10     0.2540D-02
 Iteration:  11     0.1084D-02
 Iteration:  12     0.1741D+00
 Iteration:  13     0.3865D-03
 Iteration:  14     0.3775D-03
 Iteration:  15     0.4082D-03
 Iteration:  16     0.9964D-04
 PAPT operator written to  7000.1
 PAPT orbitals and eigenvalues written to  7000.2

 MP3(D):                -0.43295072   -95.68836956    -0.02123656



 RESULTS
 =======

  Reference energy                    -95.255418833836
  MP3 singlet pair energy              -0.304355370901
  MP3 triplet pair energy              -0.128595353165
  MP3 correlation energy               -0.432950724067

 !MP3 total energy                    -95.688369557903

 Timing summary (sec):

 STEP                 CPU(USER)    SYS     CPU(TOT)    WALL
 Transformation          1.58      0.20      1.78      2.29
 CCSD iterations        24.26      0.37     24.63      7.72

 Program statistics:

 Available memory in ccsd:               805306163
 Min. memory needed in ccsd:               3040312
 Max. memory used in ccsd:                 3839467
 Max. memory used in cckext:               2734686 ( 1 integral passes)



 **********************************************************************************************************************************
 DATASETS  * FILE   NREC   LENGTH (MB)   RECORD NAMES
              1      21     1184.71       500      610      700      900      950      970     1000      129      960     1100   
                                          VAR    BASINP    GEOM    SYMINP    ZMAT    AOBASIS   BASIS     P2S    ABASIS      S 
                                         1400     1410     1200     1210     1080     1600     1650     1300     1700     1380   
                                           T        V       H0       H01     AOSYM     SMH    MOLCAS    ERIS     OPER     JKOP   
                                         7000   
                                        PAPT AO    

              2       6        3.49       700     1000      520     2100     2101     7000   
                                         GEOM     BASIS   MCVARS     RHF      RHF     PAPT   

 PROGRAMS   *        TOTAL      PAPT    HF-SCF    HF-SCF       INT
 CPU TIMES  *        25.76      5.20      2.10     10.78      7.57
 REAL TIME  *        47.15 SEC
 DISK USED  *         3.88 GB
 **********************************************************************************************************************************


 PROGRAM * MP4 (Closed-shell)     Authors: C. Hampel, H.-J. Werner, 1991, M. Deegan, P.J. Knowles, 1992


 Convergence thresholds:  THRVAR = 1.00D-08  THRDEN = 1.00D-06

 MP4(T)     terms to be evaluated (factor= 0.000)


 Number of core orbitals:           2 (   2 )
 Number of closed-shell orbitals:   7 (   7 )
 Number of external orbitals:     198 ( 198 )

 Molecular orbitals read from record     7000.2  Type=PAPT/CANONICAL (state 1.1)

 Number of N-1 electron functions:               7
 Number of N-2 electron functions:              28
 Number of singly external CSFs:              1386
 Number of doubly external CSFs:            961191
 Total number of CSFs:                      962578

 Length of J-op  integral file:               0.00 MB
 Length of K-op  integral file:               3.00 MB

 Memory could be reduced to 76.69 Mwords without degradation in triples

 Integral transformation finished. Total CPU:   3.72 sec, npass=  1  Memory used:  38.60 MW
 Orbital energies read from record       7000.2  Type=PAPT/CANONICAL (state 1.1)

 Reference energy:                    -95.25541883

                        CORR.ENERGY   TOTAL ENERGY   ENERGY CHANGE
 MP2:                   -0.43771881   -95.69313764    -0.43771881

 SCS-MP2 correlation energy:           -0.44424103   (PS=  1.200000  PT=  0.333333)
 SCS-MP2 total energy:                -95.69965987

 MP3(D):                -0.43792124   -95.69334008    -0.00020243
 MP4(DQ):               -0.43264329   -95.68806212     0.00527796
 MP4(SDQ):              -0.43500893   -95.69042776    -0.00236564

 Norm of t1 vector:      0.03781338      S-energy:    -0.00236564      T1 diagnostic:  0.00714606

 Largest off-diagonal element in interal  block of Fock matrix:  0.86D-01
 Largest off-diagonal element in external block of Fock matrix:  0.24D+00


 Total CPU time for triples:     25.92 sec


 RESULTS
 =======

  Reference energy                    -95.255418833836
  MP4(SDQ) singlet pair energy         -0.305336997821
  MP4(SDQ) triplet pair energy         -0.127306289545
  MP4(SDQ) correlation energy          -0.435008928866

  Triples contribution                 -0.017865216532
  Total correlation energy             -0.452874145398

  MP4(SDQ) total energy               -95.690427762703
 !MP4(SDTQ) total energy              -95.708292979234

 Timing summary (sec):

 STEP                 CPU(USER)    SYS     CPU(TOT)    WALL
 Transformation          4.91      0.62      5.53      6.18
 CCSD iterations        28.58      0.19     28.77      3.69
 Triples                25.92      1.19     27.11     28.83

 Program statistics:

 Available memory in ccsd:               805306163
 Min. memory needed in ccsd:               3040312
 Max. memory used in ccsd:                 3839467
 Max. memory used in cckext:               2734686 ( 1 integral passes)



 **********************************************************************************************************************************
 DATASETS  * FILE   NREC   LENGTH (MB)   RECORD NAMES
              1      22     1393.03       500      610      700      900      950      970     1000      129      960     1100   
                                          VAR    BASINP    GEOM    SYMINP    ZMAT    AOBASIS   BASIS     P2S    ABASIS      S 
                                         1400     1410     1200     1210     1080     1600     1650     1300     1700     1380   
                                           T        V       H0       H01     AOSYM     SMH    MOLCAS    ERIS     OPER     JKOP   
                                         7000     1380(1)
                                        PAPT AO   JKOP   

              2       6        3.49       700     1000      520     2100     2101     7000   
                                         GEOM     BASIS   MCVARS     RHF      RHF     PAPT   

 PROGRAMS   *        TOTAL       MP4      PAPT    HF-SCF    HF-SCF       INT
 CPU TIMES  *        59.33     33.56      5.20      2.10     10.78      7.57
 REAL TIME  *        86.49 SEC
 DISK USED  *         3.88 GB
 **********************************************************************************************************************************

 Dump information in style XML to xml output                                                                      

 Orbitals will not be exported.

 **********************************************************************************************************************************

 MP4/aug-cc-pVTZ energy=    -95.708292979234

             MP4            PAPT          HF-SCF          HF-SCF
    -95.70829298    -95.68836956    -95.25541883    -95.25541883
 **********************************************************************************************************************************
 Molpro calculation terminated
