
 Working directory              : /var/folders/2v/xbgp75_9785319ghcgb4zr4r0000gp/T//molpro.4bLnvFGZwg/
 Global scratch directory       : /var/folders/2v/xbgp75_9785319ghcgb4zr4r0000gp/T//molpro.4bLnvFGZwg/
 Wavefunction directory         : /Users/sacpjk/wfu/
 Main file repository           : /var/folders/2v/xbgp75_9785319ghcgb4zr4r0000gp/T//molpro.4bLnvFGZwg/

 id        : peterk

 Nodes                        nprocs
 Cardiff-University-G34YLXT77Y    1
 GA implementation: MPI file
 GA implementation (serial work in mppx): MPI file

 Using customized tuning parameters: mindgm=1; mindgv=20; mindgc=4; mindgr=1; noblas=0; minvec=7
 default implementation of scratch files=df  


 Variables initialized (1032), CPU time= 0.00 sec
 
 symmetry,nosym
 
 
 geometry={
            6
     C          0.66552424      0.00000000      0.00000000
     C         -0.66552424      0.00000000      0.00000000
     H          1.23945344     -0.92355833      0.00000000
     H          1.23945344      0.92355833      0.00000000
     H         -1.23945344     -0.92355833      0.00000000
     H         -1.23945344      0.92355833      0.00000000
 }
 basis=cc-pVDZ
 
 
 
 hf
 
 
 
 {put,xml;noorbitals,nobasis}
 Commands initialized (841), CPU time= 0.01 sec, 704 directives.
 Default parameters read. Elapsed time= 0.58 sec

 Checking input...
 Passed
1


                                         ***  PROGRAM SYSTEM MOLPRO  ***
                                       Copyright, TTI GmbH Stuttgart, 2015
                                    Version 2023.1 linked Tue Jun  6 09:54:11 2023


 **********************************************************************************************************************************
 LABEL *                                                                                                                                                                 
  64 bit serial version                                                                  DATE: 10-Jun-23          TIME: 14:41:06  
 **********************************************************************************************************************************

 SHA1:             8ebb0dd001088a5c915591db1a321413035db0b1
 **********************************************************************************************************************************

 Memory per process:       805 MW
 Total memory per node:   1074 MW
 Total GA space:           268 MW

 GA preallocation disabled
 GA check enabled

 Variable memory set to 805.3 MW

 ZSYMEL=NOSYM


 Geometry recognized as XYZ

 SETTING BASIS          =    CC-PVDZ


 Recomputing integrals since basis changed


 Using spherical harmonics

 Library entry C      S cc-pVDZ              selected for orbital group  1
 Library entry C      P cc-pVDZ              selected for orbital group  1
 Library entry C      D cc-pVDZ              selected for orbital group  1
 Library entry H      S cc-pVDZ              selected for orbital group  2
 Library entry H      P cc-pVDZ              selected for orbital group  2


 PROGRAM * SEWARD (Integral evaluation for generally contracted gaussian basis sets)     Author: Roland Lindh, 1990

 Geometry written to block  1 of record 700


 Point group  C1  



 ATOMIC COORDINATES

 NR  ATOM    CHARGE       X              Y              Z

   1  C       6.00    1.257658543    0.000000000    0.000000000
   2  C       6.00   -1.257658543    0.000000000    0.000000000
   3  H       1.00    2.342227546   -1.745272304    0.000000000
   4  H       1.00    2.342227546    1.745272304    0.000000000
   5  H       1.00   -2.342227546   -1.745272304    0.000000000
   6  H       1.00   -2.342227546    1.745272304    0.000000000

 Bond lengths in Bohr (Angstrom)

 1-2  2.515317086  1-3  2.054815159  1-4  2.054815159  2-5  2.054815159  2-6  2.054815159
     ( 1.331048480)     ( 1.087361355)     ( 1.087361355)     ( 1.087361355)     ( 1.087361355)

 Bond angles

  1-2-5  121.85816298   1-2-6  121.85816298   2-1-3  121.85816298   2-1-4  121.85816298

  3-1-4  116.28367404   5-2-6  116.28367404

 NUCLEAR CHARGE:                   16
 NUMBER OF PRIMITIVE AOS:          82
 NUMBER OF SYMMETRY AOS:           80
 NUMBER OF CONTRACTIONS:           48   (   48A   )
 NUMBER OF INNER CORE ORBITALS:     0   (    0A   )
 NUMBER OF OUTER CORE ORBITALS:     2   (    2A   )
 NUMBER OF VALENCE ORBITALS:       12   (   12A   )


 NUCLEAR REPULSION ENERGY   33.33350088

 EXTRA SYMMETRY OF AOS IN SYMMETRY 1:   1 1 1 1 1 2 1 1 2 1   1 2 1 2 1 1 1 1 1 2   1 1 2 1 1 2 1 2 1 1   1 1 2 1 1 1 1 2 1 1
                                        1 1 2 1 1 1 1 2

 Eigenvalues of metric

         1 0.380E-02 0.161E-01 0.163E-01 0.267E-01 0.280E-01 0.401E-01 0.439E-01 0.480E-01


 Contracted 2-electron integrals neglected if value below      1.0D-11
 AO integral compression algorithm  1   Integral accuracy      1.0D-11

     2.359 MB (compressed) written to integral file ( 34.6%)


 NUMBER OF SORTED TWO-ELECTRON INTEGRALS:     692076.     BUFFER LENGTH:  32768
 NUMBER OF SEGMENTS:   1  SEGMENT LENGTH:     692076      RECORD LENGTH: 524288

 Memory used in sort:       1.25 MW

 SORT1 READ      832256. AND WROTE      344774. INTEGRALS IN      1 RECORDS. CPU TIME:     0.00 SEC, REAL TIME:     0.01 SEC
 SORT2 READ      344774. AND WROTE      692076. INTEGRALS IN      9 RECORDS. CPU TIME:     0.02 SEC, REAL TIME:     0.02 SEC

 FILE SIZES:   FILE 1:    32.5 MBYTE,  FILE 4:     4.3 MBYTE,   TOTAL:     36.8 MBYTE

 OPERATOR DM      FOR CENTER  0  COORDINATES:    0.000000    0.000000    0.000000


 **********************************************************************************************************************************
 DATASETS  * FILE   NREC   LENGTH (MB)   RECORD NAMES
              1      19       30.46       500      610      700      900      950      970     1000      129      960     1100   
                                          VAR    BASINP    GEOM    SYMINP    ZMAT    AOBASIS   BASIS     P2S    ABASIS      S 
                                         1400     1410     1200     1210     1080     1600     1650     1300     1700   
                                           T        V       H0       H01     AOSYM     SMH    MOLCAS    ERIS     OPER   

 PROGRAMS   *        TOTAL       INT
 CPU TIMES  *         0.25      0.16
 REAL TIME  *         1.74 SEC
 DISK USED  *        35.47 MB
 **********************************************************************************************************************************


 Program * Restricted Hartree-Fock

 Orbital guess generated from atomic densities. Full valence occupancy:   14

 Initial occupancy:   8

 NELEC=   16   SYM=1   MS2= 0   THRE=1.0D-08   THRD=3.2D-06   THRG=3.2D-06  HFMA2=F  DIIS_START=2   DIIS_MAX=10   DIIS_INCORE=F

 Level shifts:    0.00 (CLOSED)    0.00 (OPEN)    0.30 (GAP_MIN)

 ITER           ETOT              DE          GRAD        DDIFF     DIIS  NEXP   TIME(IT)  TIME(TOT)  DIAG
   1      -78.01810780     -78.01810780     0.00D+00     0.15D+00     0     0       0.00      0.01    start
   2      -78.03789187      -0.01978407     0.65D-02     0.14D-01     1     0       0.00      0.01    diag
   3      -78.03975031      -0.00185844     0.21D-02     0.43D-02     2     0       0.01      0.02    diag
   4      -78.03997571      -0.00022540     0.63D-03     0.15D-02     3     0       0.00      0.02    diag
   5      -78.03997796      -0.00000225     0.60D-04     0.17D-03     4     0       0.00      0.02    diag
   6      -78.03997802      -0.00000006     0.88D-05     0.28D-04     5     0       0.01      0.03    diag
   7      -78.03997802      -0.00000000     0.13D-05     0.37D-05     6     0       0.00      0.03    diag
   8      -78.03997802      -0.00000000     0.15D-06     0.47D-06     7     0       0.00      0.03    fixocc
   9      -78.03997802      -0.00000000     0.15D-07     0.31D-07     0     0       0.01      0.04    diag

 Final occupancy:   8

 !RHF STATE 1.1 Energy                -78.039978017127
  RHF One-electron energy            -169.968523874924
  RHF Two-electron energy              58.595044974202
  RHF Kinetic energy                   77.872996879988
  RHF Nuclear energy                   33.333500883594
  RHF Virial quotient                  -1.002144275215

 !RHF STATE 1.1 Dipole moment          -0.00000000     0.00000000     0.00000000
 Dipole moment /Debye                  -0.00000000     0.00000000     0.00000000

 Orbital energies:

           1.1          2.1          3.1          4.1          5.1          6.1          7.1          8.1          9.1         10.1
    -11.236890   -11.235219    -1.031410    -0.788832    -0.636743    -0.584589    -0.500772    -0.374763     0.168445     0.203543


 HOMO      8.1    -0.374763 =     -10.1978eV
 LUMO      9.1     0.168445 =       4.5836eV
 LUMO-HOMO         0.543208 =      14.7814eV

 Orbitals saved in record  2100.2


 **********************************************************************************************************************************
 DATASETS  * FILE   NREC   LENGTH (MB)   RECORD NAMES
              1      19       30.46       500      610      700      900      950      970     1000      129      960     1100   
                                          VAR    BASINP    GEOM    SYMINP    ZMAT    AOBASIS   BASIS     P2S    ABASIS      S 
                                         1400     1410     1200     1210     1080     1600     1650     1300     1700   
                                           T        V       H0       H01     AOSYM     SMH    MOLCAS    ERIS     OPER   

              2       4        0.50       700     1000      520     2100   
                                         GEOM     BASIS   MCVARS     RHF  

 PROGRAMS   *        TOTAL    HF-SCF       INT
 CPU TIMES  *         0.29      0.04      0.16
 REAL TIME  *         1.99 SEC
 DISK USED  *        35.47 MB
 **********************************************************************************************************************************

 Dump information in style XML to xml output                                                                      

 Orbitals will not be exported.

 **********************************************************************************************************************************

 HF/cc-pVDZ energy=    -78.039978017127

          HF-SCF
    -78.03997802
 **********************************************************************************************************************************
 Molpro calculation terminated
