
 Working directory              : /var/folders/2v/xbgp75_9785319ghcgb4zr4r0000gp/T//molpro.OECjhRNAGp/
 Global scratch directory       : /var/folders/2v/xbgp75_9785319ghcgb4zr4r0000gp/T//molpro.OECjhRNAGp/
 Wavefunction directory         : /Users/sacpjk/wfu/
 Main file repository           : /var/folders/2v/xbgp75_9785319ghcgb4zr4r0000gp/T//molpro.OECjhRNAGp/

 id        : peterk

 Nodes                        nprocs
 Cardiff-University-G34YLXT77Y    1
 GA implementation: MPI file
 GA implementation (serial work in mppx): MPI file

 Using customized tuning parameters: mindgm=1; mindgv=20; mindgc=4; mindgr=1; noblas=0; minvec=7
 default implementation of scratch files=df  


 Variables initialized (1032), CPU time= 0.00 sec
 
 symmetry,nosym
 
 
 geometry={
           12
     C          1.27609040     -0.77327344      0.00000000
     C          1.23134723      0.58905339      0.00000000
     C         -1.18192378      1.07324973      0.00000000
     N         -1.49435191     -0.19905547      0.00000000
     C         -1.06638519     -1.33840171      0.00000000
     H          1.42015815     -1.33084885     -0.91708935
     H          1.42015815     -1.33084885      0.91708935
     H          1.34536200      1.15022023     -0.91956788
     H          1.34536200      1.15022023      0.91956788
     H         -1.30031450      1.61932430      0.92900354
     H         -1.30031450      1.61932430     -0.92900354
     H         -1.69518802     -2.22896383      0.00000000
 }
 basis=cc-pVTZ
 
 
 
 hf; hf; papt; mp4
 
 
 
 {put,xml;noorbitals,nobasis}
 Commands initialized (841), CPU time= 0.01 sec, 704 directives.
 Default parameters read. Elapsed time= 1.24 sec

 Checking input...
 Passed
1


                                         ***  PROGRAM SYSTEM MOLPRO  ***
                                       Copyright, TTI GmbH Stuttgart, 2015
                                    Version 2023.1 linked Tue Jun  6 09:54:11 2023


 **********************************************************************************************************************************
 LABEL *                                                                                                                                                                 
  64 bit serial version                                                                  DATE: 11-Jun-23          TIME: 15:35:26  
 **********************************************************************************************************************************

 SHA1:             8ebb0dd001088a5c915591db1a321413035db0b1
 **********************************************************************************************************************************

 Memory per process:       393 MW
 Total memory per node:    524 MW
 Total GA space:           131 MW

 GA preallocation disabled
 GA check enabled

 Variable memory set to 393.2 MW

 ZSYMEL=NOSYM


 Geometry recognized as XYZ

 SETTING BASIS          =    CC-PVTZ


 Recomputing integrals since basis changed


 Using spherical harmonics

 Library entry C      S cc-pVTZ              selected for orbital group  1
 Library entry C      P cc-pVTZ              selected for orbital group  1
 Library entry C      D cc-pVTZ              selected for orbital group  1
 Library entry C      F cc-pVTZ              selected for orbital group  1
 Library entry N      S cc-pVTZ              selected for orbital group  2
 Library entry N      P cc-pVTZ              selected for orbital group  2
 Library entry N      D cc-pVTZ              selected for orbital group  2
 Library entry N      F cc-pVTZ              selected for orbital group  2
 Library entry H      S cc-pVTZ              selected for orbital group  4
 Library entry H      P cc-pVTZ              selected for orbital group  4
 Library entry H      D cc-pVTZ              selected for orbital group  4


 PROGRAM * SEWARD (Integral evaluation for generally contracted gaussian basis sets)     Author: Roland Lindh, 1990

 Geometry written to block  1 of record 700


 Point group  C1  



 ATOMIC COORDINATES

 NR  ATOM    CHARGE       X              Y              Z

   1  C       6.00    2.411461366   -1.461275021    0.000000000
   2  C       6.00    2.326909029    1.113149580    0.000000000
   3  C       6.00   -2.233512244    2.028148053    0.000000000
   4  N       7.00   -2.823915844   -0.376160322    0.000000000
   5  C       6.00   -2.015175952   -2.529212677    0.000000000
   6  H       1.00    2.683709957   -2.514939840   -1.733047703
   7  H       1.00    2.683709957   -2.514939840    1.733047703
   8  H       1.00    2.542365718    2.173601218   -1.737731446
   9  H       1.00    2.542365718    2.173601218    1.737731446
  10  H       1.00   -2.457238281    3.060079434    1.755562259
  11  H       1.00   -2.457238281    3.060079434   -1.755562259
  12  H       1.00   -3.203441088   -4.212131180    0.000000000

 Bond lengths in Bohr (Angstrom)

 1-2  2.575812711  1-6  2.046407385  1-7  2.046407385  2-8  2.047117447  2-9  2.047117447
     ( 1.363061386)     ( 1.082912153)     ( 1.082912153)     ( 1.083287901)     ( 1.083287901)

  3- 4  2.475737299   3-10  2.048642126   3-11  2.048642126   4- 5  2.299933619   5-12  2.060142889
       ( 1.310103759)       ( 1.084094726)       ( 1.084094726)       ( 1.217072458)       ( 1.090180668)

 Bond angles

  1-2-8  120.94986755   1-2-9  120.94986755   2-1-6  121.26350260   2-1-7  121.26350260

  3- 4- 5  145.61597334   4- 3-10  117.58982266   4- 3-11  117.58982266   4- 5-12  124.18765139

  6- 1- 7  115.74639928   8- 2- 9  116.17740812  10- 3-11  117.94932410

 NUCLEAR CHARGE:                   38
 NUMBER OF PRIMITIVE AOS:         354
 NUMBER OF SYMMETRY AOS:          322
 NUMBER OF CONTRACTIONS:          248   (  248A   )
 NUMBER OF INNER CORE ORBITALS:     0   (    0A   )
 NUMBER OF OUTER CORE ORBITALS:     5   (    5A   )
 NUMBER OF VALENCE ORBITALS:       27   (   27A   )


 NUCLEAR REPULSION ENERGY  157.98626806


 Eigenvalues of metric

         1 0.287E-03 0.866E-03 0.105E-02 0.124E-02 0.132E-02 0.141E-02 0.149E-02 0.150E-02


 Contracted 2-electron integrals neglected if value below      1.0D-11
 AO integral compression algorithm  1   Integral accuracy      1.0D-11

     1466.958 MB (compressed) written to integral file ( 36.2%)


 NUMBER OF SORTED TWO-ELECTRON INTEGRALS:  476679126.     BUFFER LENGTH:  32768
 NUMBER OF SEGMENTS:  30  SEGMENT LENGTH:   15999762      RECORD LENGTH: 524288

 Memory used in sort:      16.56 MW

 SORT1 READ   506740317. AND WROTE   375385360. INTEGRALS IN   1091 RECORDS. CPU TIME:     3.98 SEC, REAL TIME:     5.15 SEC
 SORT2 READ   375385360. AND WROTE   476679126. INTEGRALS IN   5596 RECORDS. CPU TIME:     2.94 SEC, REAL TIME:     3.74 SEC

 FILE SIZES:   FILE 1:  1499.4 MBYTE,  FILE 4:  4576.1 MBYTE,   TOTAL:   6075.5 MBYTE

 OPERATOR DM      FOR CENTER  0  COORDINATES:    0.000000    0.000000    0.000000


 **********************************************************************************************************************************
 DATASETS  * FILE   NREC   LENGTH (MB)   RECORD NAMES
              1      19     1313.35       500      610      700      900      950      970     1000      129      960     1100   
                                          VAR    BASINP    GEOM    SYMINP    ZMAT    AOBASIS   BASIS     P2S    ABASIS      S 
                                         1400     1410     1200     1210     1080     1600     1650     1300     1700   
                                           T        V       H0       H01     AOSYM     SMH    MOLCAS    ERIS     OPER   

 PROGRAMS   *        TOTAL       INT
 CPU TIMES  *        18.08     17.97
 REAL TIME  *        25.04 SEC
 DISK USED  *         5.66 GB
 **********************************************************************************************************************************


 Program * Restricted Hartree-Fock

 Orbital guess generated from atomic densities. Full valence occupancy:   32

 Initial occupancy:  19

 NELEC=   38   SYM=1   MS2= 0   THRE=1.0D-08   THRD=3.2D-06   THRG=3.2D-06  HFMA2=F  DIIS_START=2   DIIS_MAX=10   DIIS_INCORE=F

 Level shifts:    0.00 (CLOSED)    0.00 (OPEN)    0.30 (GAP_MIN)

 ITER           ETOT              DE          GRAD        DDIFF     DIIS  NEXP   TIME(IT)  TIME(TOT)  DIAG
   1     -209.81609562    -209.81609562     0.00D+00     0.47D-01     0     0       2.62      4.99    start
   2     -209.87253856      -0.05644294     0.31D-02     0.48D-02     1     0       2.53      7.52    diag
   3     -209.88752647      -0.01498791     0.18D-02     0.18D-02     2     0       2.57     10.09    diag
   4     -209.89023957      -0.00271310     0.46D-03     0.81D-03     3     0       2.62     12.71    diag
   5     -209.89076779      -0.00052822     0.21D-03     0.29D-03     4     0       2.63     15.34    diag
   6     -209.89118252      -0.00041473     0.11D-03     0.38D-03     5     0       2.65     17.99    diag
   7     -209.89128008      -0.00009756     0.54D-04     0.23D-03     6     0       2.60     20.59    diag
   8     -209.89128752      -0.00000745     0.24D-04     0.62D-04     7     0       2.61     23.20    fixocc
   9     -209.89128793      -0.00000040     0.75D-05     0.12D-04     8     0       2.58     25.78    diag
  10     -209.89128795      -0.00000003     0.15D-05     0.36D-05     9     0       2.53     28.31    diag/orth
  11     -209.89128796      -0.00000000     0.59D-06     0.11D-05     9     0       2.68     30.99    diag
  12     -209.89128796      -0.00000000     0.21D-06     0.33D-06     0     0       2.67     33.66    diag

 Final occupancy:  19

 !RHF STATE 1.1 Energy               -209.891287957668
  RHF One-electron energy            -595.690152124872
  RHF Two-electron energy             227.812596104045
  RHF Kinetic energy                  209.557213730586
  RHF Nuclear energy                  157.986268063159
  RHF Virial quotient                  -1.001594191014

 !RHF STATE 1.1 Dipole moment          -0.51168760     0.10226015    -0.00000000
 Dipole moment /Debye                  -1.30058014     0.25991937    -0.00000000

 Orbital energies:

           1.1          2.1          3.1          4.1          5.1          6.1          7.1          8.1          9.1         10.1
    -15.613922   -11.284628   -11.271567   -11.218415   -11.201250    -1.276733    -1.005743    -0.997317    -0.776837    -0.754202

          11.1         12.1         13.1         14.1         15.1         16.1         17.1         18.1         19.1         20.1
     -0.664367    -0.651234    -0.612327    -0.574823    -0.559720    -0.489228    -0.452473    -0.328706    -0.299020     0.115792

          21.1
      0.140203


 HOMO     19.1    -0.299020 =      -8.1367eV
 LUMO     20.1     0.115792 =       3.1509eV
 LUMO-HOMO         0.414812 =      11.2876eV

 Orbitals saved in record  2100.2


 **********************************************************************************************************************************
 DATASETS  * FILE   NREC   LENGTH (MB)   RECORD NAMES
              1      19     1313.35       500      610      700      900      950      970     1000      129      960     1100   
                                          VAR    BASINP    GEOM    SYMINP    ZMAT    AOBASIS   BASIS     P2S    ABASIS      S 
                                         1400     1410     1200     1210     1080     1600     1650     1300     1700   
                                           T        V       H0       H01     AOSYM     SMH    MOLCAS    ERIS     OPER   

              2       4        1.54       700     1000      520     2100   
                                         GEOM     BASIS   MCVARS     RHF  

 PROGRAMS   *        TOTAL    HF-SCF       INT
 CPU TIMES  *        51.75     33.67     17.97
 REAL TIME  *        63.32 SEC
 DISK USED  *         5.66 GB
 **********************************************************************************************************************************


 Program * Restricted Hartree-Fock

 Molecular orbitals read from record     2100.2  Type=RHF/CANONICAL  

 Initial occupancy:  19

 NELEC=   38   SYM=1   MS2= 0   THRE=1.0D-08   THRD=3.2D-06   THRG=3.2D-06  HFMA2=F  DIIS_START=2   DIIS_MAX=10   DIIS_INCORE=F

 Level shifts:    0.00 (CLOSED)    0.00 (OPEN)    0.30 (GAP_MIN)

 ITER           ETOT              DE          GRAD        DDIFF     DIIS  NEXP   TIME(IT)  TIME(TOT)  DIAG
   1     -209.89128796    -209.89128796     0.00D+00     0.48D-01     0     0       2.66      2.66    start
   2     -209.89128796      -0.00000000     0.95D-07     0.18D-06     1     0       2.69      5.35    diag

 Final occupancy:  19

 !RHF STATE 1.1 Energy               -209.891287957766
  RHF One-electron energy            -595.690130126155
  RHF Two-electron energy             227.812574105231
  RHF Kinetic energy                  209.557199513862
  RHF Nuclear energy                  157.986268063159
  RHF Virial quotient                  -1.001594258965

 !RHF STATE 1.1 Dipole moment          -0.51168578     0.10220403     0.00000000
 Dipole moment /Debye                  -1.30057553     0.25977672     0.00000000

 Orbital energies:

           1.1          2.1          3.1          4.1          5.1          6.1          7.1          8.1          9.1         10.1
    -15.613919   -11.284633   -11.271554   -11.218417   -11.201245    -1.276730    -1.005741    -0.997316    -0.776837    -0.754201

          11.1         12.1         13.1         14.1         15.1         16.1         17.1         18.1         19.1         20.1
     -0.664365    -0.651234    -0.612326    -0.574821    -0.559719    -0.489228    -0.452471    -0.328705    -0.299018     0.115793

          21.1
      0.140205


 HOMO     19.1    -0.299018 =      -8.1367eV
 LUMO     20.1     0.115793 =       3.1509eV
 LUMO-HOMO         0.414811 =      11.2876eV

 Orbitals saved in record  2101.2


 **********************************************************************************************************************************
 DATASETS  * FILE   NREC   LENGTH (MB)   RECORD NAMES
              1      19     1313.35       500      610      700      900      950      970     1000      129      960     1100   
                                          VAR    BASINP    GEOM    SYMINP    ZMAT    AOBASIS   BASIS     P2S    ABASIS      S 
                                         1400     1410     1200     1210     1080     1600     1650     1300     1700   
                                           T        V       H0       H01     AOSYM     SMH    MOLCAS    ERIS     OPER   

              2       5        3.29       700     1000      520     2100     2101   
                                         GEOM     BASIS   MCVARS     RHF      RHF  

 PROGRAMS   *        TOTAL    HF-SCF    HF-SCF       INT
 CPU TIMES  *        57.11      5.36     33.67     17.97
 REAL TIME  *        69.85 SEC
 DISK USED  *         5.66 GB
 **********************************************************************************************************************************


 PROGRAM * PAPT (Closed-shell)     Authors: C. Hampel, H.-J. Werner, 1991, P.J. Knowles, 2021


 Convergence thresholds:  THRVAR = 1.00D-08  THRDEN = 1.00D-06

 Number of core orbitals:           5 (   5 )
 Number of closed-shell orbitals:  14 (  14 )
 Number of external orbitals:     229 ( 229 )

 Molecular orbitals read from record     2101.2  Type=RHF/CANONICAL  

 Number of N-1 electron functions:              14
 Number of N-2 electron functions:             105
 Number of singly external CSFs:              3206
 Number of doubly external CSFs:           5140821
 Total number of CSFs:                     5144028

 Length of J-op  integral file:               0.00 MB
 Length of K-op  integral file:               4.29 MB

 Integral transformation finished. Total CPU:   6.88 sec, npass=  1  Memory used:  11.99 MW

 Reference energy:                   -209.89128796

                        CORR.ENERGY   TOTAL ENERGY   ENERGY CHANGE
 MP2:                   -0.89952698  -210.79081494    -0.89952698

 SCS-MP2 correlation energy:           -0.89164004   (PS=  1.200000  PT=  0.333333)
 SCS-MP2 total energy:               -210.78292800
 Iteration:   1     0.2938D+00
 Iteration:   2     0.5044D+00
 Iteration:   3     0.8655D-01
 Iteration:   4     0.1177D+00
 Iteration:   5     0.3637D-01
 Iteration:   6     0.3180D-01
 Iteration:   7     0.2424D-01
 Iteration:   8     0.1228D-01
 Iteration:   9     0.2105D-01
 Iteration:  10     0.5285D-02
 Iteration:  11     0.8825D-01
 Iteration:  12     0.2337D-02
 Iteration:  13     0.3657D-02
 Iteration:  14     0.1137D-02
 Iteration:  15     0.5841D-03
 Iteration:  16     0.1525D-02
 Iteration:  17     0.1435D-03
 Iteration:  18     0.3079D-03
 Iteration:  19     0.6909D-04
 PAPT operator written to  7000.1
 PAPT orbitals and eigenvalues written to  7000.2

 MP3(D):                -0.91848985  -210.80977780    -0.01896287



 RESULTS
 =======

  Reference energy                   -209.891287957767
  MP3 singlet pair energy              -0.623585405541
  MP3 triplet pair energy              -0.294904440702
  MP3 correlation energy               -0.918489846243

 !MP3 total energy                   -210.809777804009

 Timing summary (sec):

 STEP                 CPU(USER)    SYS     CPU(TOT)    WALL
 Transformation          7.26      0.50      7.76      8.34
 CCSD iterations        96.51      0.82     97.33     43.71

 Program statistics:

 Available memory in ccsd:               393215197
 Min. memory needed in ccsd:              12943206
 Max. memory used in ccsd:                17591661
 Max. memory used in cckext:              13499934 ( 1 integral passes)



 **********************************************************************************************************************************
 DATASETS  * FILE   NREC   LENGTH (MB)   RECORD NAMES
              1      21     1388.53       500      610      700      900      950      970     1000      129      960     1100   
                                          VAR    BASINP    GEOM    SYMINP    ZMAT    AOBASIS   BASIS     P2S    ABASIS      S 
                                         1400     1410     1200     1210     1080     1600     1650     1300     1700     1380   
                                           T        V       H0       H01     AOSYM     SMH    MOLCAS    ERIS     OPER     JKOP   
                                         7000   
                                        PAPT AO    

              2       6        4.80       700     1000      520     2100     2101     7000   
                                         GEOM     BASIS   MCVARS     RHF      RHF     PAPT   

 PROGRAMS   *        TOTAL      PAPT    HF-SCF    HF-SCF       INT
 CPU TIMES  *       103.67     46.56      5.36     33.67     17.97
 REAL TIME  *       122.25 SEC
 DISK USED  *         5.66 GB
 **********************************************************************************************************************************


 PROGRAM * MP4 (Closed-shell)     Authors: C. Hampel, H.-J. Werner, 1991, M. Deegan, P.J. Knowles, 1992


 Convergence thresholds:  THRVAR = 1.00D-08  THRDEN = 1.00D-06

 MP4(T)     terms to be evaluated (factor= 0.000)


 Number of core orbitals:           5 (   5 )
 Number of closed-shell orbitals:  14 (  14 )
 Number of external orbitals:     229 ( 229 )

 Molecular orbitals read from record     7000.2  Type=PAPT/CANONICAL (state 1.1)

 Number of N-1 electron functions:              14
 Number of N-2 electron functions:             105
 Number of singly external CSFs:              3206
 Number of doubly external CSFs:           5140821
 Total number of CSFs:                     5144028

 Length of J-op  integral file:               0.00 MB
 Length of K-op  integral file:               4.29 MB

 Memory could be reduced to 211.24 Mwords without degradation in triples

 Integral transformation finished. Total CPU:  17.91 sec, npass=  1  Memory used: 126.84 MW
 Orbital energies read from record       7000.2  Type=PAPT/CANONICAL (state 1.1)

 Reference energy:                   -209.89128796

                        CORR.ENERGY   TOTAL ENERGY   ENERGY CHANGE
 MP2:                   -0.92859246  -210.81988042    -0.92859246

 SCS-MP2 correlation energy:           -0.92609591   (PS=  1.200000  PT=  0.333333)
 SCS-MP2 total energy:               -210.81738386

 MP3(D):                -0.92891501  -210.82020297    -0.00032255
 MP4(DQ):               -0.91315557  -210.80444353     0.01575944
 MP4(SDQ):              -0.92245693  -210.81374489    -0.00930137

 Norm of t1 vector:      0.09518385      S-energy:    -0.00930137      T1 diagnostic:  0.01271948

 Largest off-diagonal element in interal  block of Fock matrix:  0.12D+00
 Largest off-diagonal element in external block of Fock matrix:  0.27D+00


 Total CPU time for triples:    480.64 sec


 RESULTS
 =======

  Reference energy                   -209.891287957767
  MP4(SDQ) singlet pair energy         -0.620486075219
  MP4(SDQ) triplet pair energy         -0.292669494076
  MP4(SDQ) correlation energy          -0.922456934662

  Triples contribution                 -0.055796911969
  Total correlation energy             -0.978253846631

  MP4(SDQ) total energy              -210.813744892429
 !MP4(SDTQ) total energy             -210.869541804398

 Timing summary (sec):

 STEP                 CPU(USER)    SYS     CPU(TOT)    WALL
 Transformation         20.91      1.71     22.62     24.09
 CCSD iterations       131.53      0.67    132.20     30.41
 Triples               480.64     14.24    494.88    535.33

 Program statistics:

 Available memory in ccsd:               393215197
 Min. memory needed in ccsd:              12943206
 Max. memory used in ccsd:                17591661
 Max. memory used in cckext:              13499934 ( 1 integral passes)



 **********************************************************************************************************************************
 DATASETS  * FILE   NREC   LENGTH (MB)   RECORD NAMES
              1      22     2032.68       500      610      700      900      950      970     1000      129      960     1100   
                                          VAR    BASINP    GEOM    SYMINP    ZMAT    AOBASIS   BASIS     P2S    ABASIS      S 
                                         1400     1410     1200     1210     1080     1600     1650     1300     1700     1380   
                                           T        V       H0       H01     AOSYM     SMH    MOLCAS    ERIS     OPER     JKOP   
                                         7000     1380(1)
                                        PAPT AO   JKOP   

              2       6        4.80       700     1000      520     2100     2101     7000   
                                         GEOM     BASIS   MCVARS     RHF      RHF     PAPT   

 PROGRAMS   *        TOTAL       MP4      PAPT    HF-SCF    HF-SCF       INT
 CPU TIMES  *       632.98    529.31     46.56      5.36     33.67     17.97
 REAL TIME  *       712.44 SEC
 DISK USED  *         5.66 GB
 **********************************************************************************************************************************

 Dump information in style XML to xml output                                                                      

 Orbitals will not be exported.

 **********************************************************************************************************************************

 MP4/cc-pVTZ energy=   -210.869541804398

             MP4            PAPT          HF-SCF          HF-SCF
   -210.86954180   -210.80977780   -209.89128796   -209.89128796
 **********************************************************************************************************************************
 Molpro calculation terminated
