
 Working directory              : /var/folders/2v/xbgp75_9785319ghcgb4zr4r0000gp/T//molpro.EXIfqdb1Ib/
 Global scratch directory       : /var/folders/2v/xbgp75_9785319ghcgb4zr4r0000gp/T//molpro.EXIfqdb1Ib/
 Wavefunction directory         : /Users/sacpjk/wfu/
 Main file repository           : /var/folders/2v/xbgp75_9785319ghcgb4zr4r0000gp/T//molpro.EXIfqdb1Ib/

 id        : peterk

 Nodes                        nprocs
 Cardiff-University-G34YLXT77Y    1
 GA implementation: MPI file
 GA implementation (serial work in mppx): MPI file

 Using customized tuning parameters: mindgm=1; mindgv=20; mindgc=4; mindgr=1; noblas=0; minvec=7
 default implementation of scratch files=df  


 Variables initialized (1032), CPU time= 0.00 sec
 
 symmetry,nosym
 
 
 geometry={
            6
     F          0.00000000      0.00000000     -1.79137135
     C          0.00000000      0.00000000     -0.36561703
     H         -0.51179113      0.88644824     -0.01758668
     H         -0.51179113     -0.88644824     -0.01758668
     H          1.02358226      0.00000000     -0.01758668
     F          0.00000000      0.00000000      2.20974841
 }
 basis=cc-pVDZ
 
 charge=-1
 
 hf; hf; papt; mp2
 
 
 
 {put,xml;noorbitals,nobasis}
 Commands initialized (841), CPU time= 0.01 sec, 704 directives.
 Default parameters read. Elapsed time= 0.65 sec

 Checking input...
 Passed
1


                                         ***  PROGRAM SYSTEM MOLPRO  ***
                                       Copyright, TTI GmbH Stuttgart, 2015
                                    Version 2023.1 linked Tue Jun  6 09:54:11 2023


 **********************************************************************************************************************************
 LABEL *                                                                                                                                                                 
  64 bit serial version                                                                  DATE: 09-Jun-23          TIME: 15:35:54  
 **********************************************************************************************************************************

 SHA1:             8ebb0dd001088a5c915591db1a321413035db0b1
 **********************************************************************************************************************************

 Memory per process:       805 MW
 Total memory per node:   1074 MW
 Total GA space:           268 MW

 GA preallocation disabled
 GA check enabled

 Variable memory set to 805.3 MW

 ZSYMEL=NOSYM


 Geometry recognized as XYZ

 SETTING BASIS          =    CC-PVDZ
 SETTING CHARGE         =        -1.00000000                                  


 Recomputing integrals since basis changed


 Using spherical harmonics

 Library entry F      S cc-pVDZ              selected for orbital group  1
 Library entry F      P cc-pVDZ              selected for orbital group  1
 Library entry F      D cc-pVDZ              selected for orbital group  1
 Library entry C      S cc-pVDZ              selected for orbital group  2
 Library entry C      P cc-pVDZ              selected for orbital group  2
 Library entry C      D cc-pVDZ              selected for orbital group  2
 Library entry H      S cc-pVDZ              selected for orbital group  3
 Library entry H      P cc-pVDZ              selected for orbital group  3


 PROGRAM * SEWARD (Integral evaluation for generally contracted gaussian basis sets)     Author: Roland Lindh, 1990

 Geometry written to block  1 of record 700


 Point group  C1  



 ATOMIC COORDINATES

 NR  ATOM    CHARGE       X              Y              Z

   1  F       9.00    0.000000000    0.000000000   -3.385201239
   2  C       6.00    0.000000000    0.000000000   -0.690916053
   3  H       1.00   -0.967145069    1.675144397   -0.033234009
   4  H       1.00   -0.967145069   -1.675144397   -0.033234009
   5  H       1.00    1.934290137    0.000000000   -0.033234009
   6  F       9.00    0.000000000    0.000000000    4.175819299

 Bond lengths in Bohr (Angstrom)

 1-2  2.694285186  2-3  2.043042831  2-4  2.043042831  2-5  2.043042831
     ( 1.425754320)     ( 1.081131707)     ( 1.081131707)     ( 1.081131707)

 Bond angles

  1-2-3  108.77865447   1-2-4  108.77865447   1-2-5  108.77865447   3-2-4  110.15481872

  3-2-5  110.15481872   4-2-5  110.15481872

 NUCLEAR CHARGE:                   27
 NUMBER OF PRIMITIVE AOS:         102
 NUMBER OF SYMMETRY AOS:           99
 NUMBER OF CONTRACTIONS:           57   (   57A   )
 NUMBER OF INNER CORE ORBITALS:     0   (    0A   )
 NUMBER OF OUTER CORE ORBITALS:     3   (    3A   )
 NUMBER OF VALENCE ORBITALS:       15   (   15A   )


 NUCLEAR REPULSION ENERGY   64.36223019


 Eigenvalues of metric

         1 0.114E-01 0.226E-01 0.360E-01 0.360E-01 0.406E-01 0.488E-01 0.492E-01 0.492E-01


 Contracted 2-electron integrals neglected if value below      1.0D-11
 AO integral compression algorithm  1   Integral accuracy      1.0D-11

     4.719 MB (compressed) written to integral file ( 35.9%)


 NUMBER OF SORTED TWO-ELECTRON INTEGRALS:    1367031.     BUFFER LENGTH:  32768
 NUMBER OF SEGMENTS:   1  SEGMENT LENGTH:    1367031      RECORD LENGTH: 524288

 Memory used in sort:       1.92 MW

 SORT1 READ     1603182. AND WROTE      885772. INTEGRALS IN      3 RECORDS. CPU TIME:     0.01 SEC, REAL TIME:     0.01 SEC
 SORT2 READ      885772. AND WROTE     1367031. INTEGRALS IN     18 RECORDS. CPU TIME:     0.02 SEC, REAL TIME:     0.03 SEC

 FILE SIZES:   FILE 1:    34.9 MBYTE,  FILE 4:    12.6 MBYTE,   TOTAL:     47.6 MBYTE

 OPERATOR DM      FOR CENTER  0  COORDINATES:    0.000000    0.000000    0.000000


 **********************************************************************************************************************************
 DATASETS  * FILE   NREC   LENGTH (MB)   RECORD NAMES
              1      19       32.37       500      610      700      900      950      970     1000      129      960     1100   
                                          VAR    BASINP    GEOM    SYMINP    ZMAT    AOBASIS   BASIS     P2S    ABASIS      S 
                                         1400     1410     1200     1210     1080     1600     1650     1300     1700   
                                           T        V       H0       H01     AOSYM     SMH    MOLCAS    ERIS     OPER   

 PROGRAMS   *        TOTAL       INT
 CPU TIMES  *         0.27      0.18
 REAL TIME  *         1.61 SEC
 DISK USED  *        45.77 MB
 **********************************************************************************************************************************


 Program * Restricted Hartree-Fock

 Orbital guess generated from atomic densities. Full valence occupancy:   18

 Initial occupancy:  14

 NELEC=   28   SYM=1   MS2= 0   THRE=1.0D-08   THRD=3.2D-06   THRG=3.2D-06  HFMA2=F  DIIS_START=2   DIIS_MAX=10   DIIS_INCORE=F

 Level shifts:    0.00 (CLOSED)    0.00 (OPEN)    0.30 (GAP_MIN)

 ITER           ETOT              DE          GRAD        DDIFF     DIIS  NEXP   TIME(IT)  TIME(TOT)  DIAG
   1     -238.35242545    -238.35242545     0.00D+00     0.17D+00     0     0       0.01      0.01    start
   2     -238.41847232      -0.06604687     0.15D-01     0.31D-01     1     0       0.01      0.02    diag
   3     -238.44643620      -0.02796388     0.88D-02     0.10D-01     2     0       0.00      0.02    diag
   4     -238.44679020      -0.00035400     0.59D-03     0.16D-02     3     0       0.01      0.03    diag
   5     -238.44680517      -0.00001497     0.11D-03     0.34D-03     4     0       0.01      0.04    diag
   6     -238.44680588      -0.00000071     0.28D-04     0.72D-04     5     0       0.00      0.04    diag
   7     -238.44680596      -0.00000008     0.96D-05     0.23D-04     6     0       0.01      0.05    diag
   8     -238.44680597      -0.00000001     0.31D-05     0.91D-05     7     0       0.01      0.06    fixocc
   9     -238.44680597      -0.00000000     0.78D-06     0.21D-05     8     0       0.01      0.07    diag
  10     -238.44680597      -0.00000000     0.16D-06     0.35D-06     0     0       0.00      0.07    diag/orth

 Final occupancy:  14

 !RHF STATE 1.1 Energy               -238.446805972132
  RHF One-electron energy            -468.202820716076
  RHF Two-electron energy             165.393784549891
  RHF Kinetic energy                  238.573294499186
  RHF Nuclear energy                   64.362230194053
  RHF Virial quotient                  -0.999469812716

 !RHF STATE 1.1 Dipole moment           0.00000000     0.00000000    -2.60911434
 Dipole moment /Debye                   0.00000000     0.00000000    -6.63170717

 Orbital energies:

           1.1          2.1          3.1          4.1          5.1          6.1          7.1          8.1          9.1         10.1
    -26.085497   -25.773635   -11.109258    -1.388384    -1.038314    -0.752751    -0.495396    -0.495396    -0.468052    -0.337548

          11.1         12.1         13.1         14.1         15.1         16.1
     -0.337548    -0.143039    -0.143039    -0.139775     0.381666     0.452809


 HOMO     14.1    -0.139775 =      -3.8035eV
 LUMO     15.1     0.381666 =      10.3857eV
 LUMO-HOMO         0.521442 =      14.1892eV

 Orbitals saved in record  2100.2


 **********************************************************************************************************************************
 DATASETS  * FILE   NREC   LENGTH (MB)   RECORD NAMES
              1      19       32.37       500      610      700      900      950      970     1000      129      960     1100   
                                          VAR    BASINP    GEOM    SYMINP    ZMAT    AOBASIS   BASIS     P2S    ABASIS      S 
                                         1400     1410     1200     1210     1080     1600     1650     1300     1700   
                                           T        V       H0       H01     AOSYM     SMH    MOLCAS    ERIS     OPER   

              2       4        0.51       700     1000      520     2100   
                                         GEOM     BASIS   MCVARS     RHF  

 PROGRAMS   *        TOTAL    HF-SCF       INT
 CPU TIMES  *         0.35      0.08      0.18
 REAL TIME  *         2.02 SEC
 DISK USED  *        45.77 MB
 **********************************************************************************************************************************


 Program * Restricted Hartree-Fock

 Molecular orbitals read from record     2100.2  Type=RHF/CANONICAL  

 Initial occupancy:  14

 NELEC=   28   SYM=1   MS2= 0   THRE=1.0D-08   THRD=3.2D-06   THRG=3.2D-06  HFMA2=F  DIIS_START=2   DIIS_MAX=10   DIIS_INCORE=F

 Level shifts:    0.00 (CLOSED)    0.00 (OPEN)    0.30 (GAP_MIN)

 ITER           ETOT              DE          GRAD        DDIFF     DIIS  NEXP   TIME(IT)  TIME(TOT)  DIAG
   1     -238.44680597    -238.44680597     0.00D+00     0.17D+00     0     0       0.01      0.01    start
   2     -238.44680597      -0.00000000     0.66D-07     0.15D-06     1     0       0.01      0.02    diag

 Final occupancy:  14

 !RHF STATE 1.1 Energy               -238.446805972135
  RHF One-electron energy            -468.202821729612
  RHF Two-electron energy             165.393785563424
  RHF Kinetic energy                  238.573296899964
  RHF Nuclear energy                   64.362230194053
  RHF Virial quotient                  -0.999469802658

 !RHF STATE 1.1 Dipole moment           0.00000000     0.00000000    -2.60911004
 Dipole moment /Debye                   0.00000000     0.00000000    -6.63169623

 Orbital energies:

           1.1          2.1          3.1          4.1          5.1          6.1          7.1          8.1          9.1         10.1
    -26.085499   -25.773634   -11.109255    -1.388384    -1.038313    -0.752750    -0.495395    -0.495395    -0.468052    -0.337547

          11.1         12.1         13.1         14.1         15.1         16.1
     -0.337547    -0.143039    -0.143039    -0.139775     0.381667     0.452809


 HOMO     14.1    -0.139775 =      -3.8035eV
 LUMO     15.1     0.381667 =      10.3857eV
 LUMO-HOMO         0.521442 =      14.1891eV

 Orbitals saved in record  2101.2


 **********************************************************************************************************************************
 DATASETS  * FILE   NREC   LENGTH (MB)   RECORD NAMES
              1      19       32.37       500      610      700      900      950      970     1000      129      960     1100   
                                          VAR    BASINP    GEOM    SYMINP    ZMAT    AOBASIS   BASIS     P2S    ABASIS      S 
                                         1400     1410     1200     1210     1080     1600     1650     1300     1700   
                                           T        V       H0       H01     AOSYM     SMH    MOLCAS    ERIS     OPER   

              2       5        0.70       700     1000      520     2100     2101   
                                         GEOM     BASIS   MCVARS     RHF      RHF  

 PROGRAMS   *        TOTAL    HF-SCF    HF-SCF       INT
 CPU TIMES  *         0.38      0.02      0.08      0.18
 REAL TIME  *         2.20 SEC
 DISK USED  *        45.77 MB
 **********************************************************************************************************************************


 PROGRAM * PAPT (Closed-shell)     Authors: C. Hampel, H.-J. Werner, 1991, P.J. Knowles, 2021


 Convergence thresholds:  THRVAR = 1.00D-08  THRDEN = 1.00D-06

 Number of core orbitals:           3 (   3 )
 Number of closed-shell orbitals:  11 (  11 )
 Number of external orbitals:      43 (  43 )

 Molecular orbitals read from record     2101.2  Type=RHF/CANONICAL  

 Number of N-1 electron functions:              11
 Number of N-2 electron functions:              66
 Number of singly external CSFs:               473
 Number of doubly external CSFs:            112101
 Total number of CSFs:                      112575

 Length of J-op  integral file:               0.00 MB
 Length of K-op  integral file:               0.29 MB

 Integral transformation finished. Total CPU:   0.01 sec, npass=  1  Memory used:   0.48 MW

 Reference energy:                   -238.44680597

                        CORR.ENERGY   TOTAL ENERGY   ENERGY CHANGE
 MP2:                   -0.52787255  -238.97467852    -0.52787255

 SCS-MP2 correlation energy:           -0.51755654   (PS=  1.200000  PT=  0.333333)
 SCS-MP2 total energy:               -238.96436252
 Iteration:   1     0.3240D+00
 Iteration:   2     0.1231D+01
 Iteration:   3     0.2822D+00
 Iteration:   4     0.2539D+00
 Iteration:   5     0.1283D+01
 Iteration:   6     0.1790D+00
 Iteration:   7     0.7365D+00
 Iteration:   8     0.1382D+00
 Iteration:   9     0.1494D+00
 Iteration:  10     0.1250D+00
 Iteration:  11     0.6064D-01
 Iteration:  12     0.2992D+00
 Iteration:  13     0.2087D-01
 Iteration:  14     0.2044D-01
 Iteration:  15     0.1452D-01
 Iteration:  16     0.4493D-02
 Iteration:  17     0.8709D-02
 Iteration:  18     0.3209D-02
 Iteration:  19     0.1524D-02
 Iteration:  20     0.2510D-02
 Iteration:  21     0.6878D-03
 Iteration:  22     0.2530D-02
 Iteration:  23     0.2417D-03
 Iteration:  24     0.2672D-03
 Iteration:  25     0.1907D-03
 Iteration:  26     0.9755D-04
 PAPT operator written to  7000.1
 PAPT orbitals and eigenvalues written to  7000.2

 MP3(D):                -0.54329571  -238.99010168    -0.01542316



 RESULTS
 =======

  Reference energy                   -238.446805972135
  MP3 singlet pair energy              -0.358245377326
  MP3 triplet pair energy              -0.185050331588
  MP3 correlation energy               -0.543295708913

 !MP3 total energy                   -238.990101681049

 Timing summary (sec):

 STEP                 CPU(USER)    SYS     CPU(TOT)    WALL
 Transformation          0.02      0.00      0.02      0.07
 CCSD iterations         0.92      0.05      0.97      1.51

 Program statistics:

 Available memory in ccsd:               805305870
 Min. memory needed in ccsd:                354977
 Max. memory used in ccsd:                  441745
 Max. memory used in cckext:                496610 ( 1 integral passes)



 **********************************************************************************************************************************
 DATASETS  * FILE   NREC   LENGTH (MB)   RECORD NAMES
              1      21       34.90       500      610      700      900      950      970     1000      129      960     1100   
                                          VAR    BASINP    GEOM    SYMINP    ZMAT    AOBASIS   BASIS     P2S    ABASIS      S 
                                         1400     1410     1200     1210     1080     1600     1650     1300     1700     1380   
                                           T        V       H0       H01     AOSYM     SMH    MOLCAS    ERIS     OPER     JKOP   
                                         7000   
                                        PAPT AO    

              2       6        0.87       700     1000      520     2100     2101     7000   
                                         GEOM     BASIS   MCVARS     RHF      RHF     PAPT   

 PROGRAMS   *        TOTAL      PAPT    HF-SCF    HF-SCF       INT
 CPU TIMES  *         0.86      0.48      0.02      0.08      0.18
 REAL TIME  *         3.85 SEC
 DISK USED  *        45.77 MB
 **********************************************************************************************************************************


 PROGRAM * MP2 (Closed-shell)     Authors: C. Hampel, H.-J. Werner, 1991, M. Deegan, P.J. Knowles, 1992


 Convergence thresholds:  THRVAR = 1.00D-08  THRDEN = 1.00D-06

 Number of core orbitals:           3 (   3 )
 Number of closed-shell orbitals:  11 (  11 )
 Number of external orbitals:      43 (  43 )

 Molecular orbitals read from record     7000.2  Type=PAPT/CANONICAL (state 1.1)

 Number of N-1 electron functions:              11
 Number of N-2 electron functions:              66
 Number of singly external CSFs:               473
 Number of doubly external CSFs:            112101
 Total number of CSFs:                      112575

 Length of J-op  integral file:               0.00 MB
 Length of K-op  integral file:               0.29 MB

 Integral transformation finished. Total CPU:   0.01 sec, npass=  1  Memory used:   0.48 MW
 Orbital energies read from record       7000.2  Type=PAPT/CANONICAL (state 1.1)

 Memory needed for MP2:                      0.02 MW

 SCS-MP2 correlation energy:           -0.539935544837   (PS=  1.200000  PT=  0.333333)
 SCS-MP2 total energy:               -238.986741516972


  Reference energy                   -238.446805972135
  MP2 singlet pair energy              -0.344317986603
  MP2 triplet pair energy              -0.203711722897
  MP2 correlation energy               -0.548029709499

 !MP2 total energy                   -238.994835681635


 **********************************************************************************************************************************
 DATASETS  * FILE   NREC   LENGTH (MB)   RECORD NAMES
              1      21       34.90       500      610      700      900      950      970     1000      129      960     1100   
                                          VAR    BASINP    GEOM    SYMINP    ZMAT    AOBASIS   BASIS     P2S    ABASIS      S 
                                         1400     1410     1200     1210     1080     1600     1650     1300     1700     1380   
                                           T        V       H0       H01     AOSYM     SMH    MOLCAS    ERIS     OPER     JKOP   
                                         7000   
                                        PAPT AO    

              2       6        0.87       700     1000      520     2100     2101     7000   
                                         GEOM     BASIS   MCVARS     RHF      RHF     PAPT   

 PROGRAMS   *        TOTAL       MP2      PAPT    HF-SCF    HF-SCF       INT
 CPU TIMES  *         0.93      0.06      0.48      0.02      0.08      0.18
 REAL TIME  *         4.06 SEC
 DISK USED  *        45.77 MB
 **********************************************************************************************************************************

 Dump information in style XML to xml output                                                                      

 Orbitals will not be exported.

 **********************************************************************************************************************************

 MP2/cc-pVDZ energy=   -238.994835681635

             MP2            PAPT          HF-SCF          HF-SCF
   -238.99483568   -238.99010168   -238.44680597   -238.44680597
 **********************************************************************************************************************************
 Molpro calculation terminated
