
 Working directory              : /var/folders/2v/xbgp75_9785319ghcgb4zr4r0000gp/T//molpro.ANhi0lWKUG/
 Global scratch directory       : /var/folders/2v/xbgp75_9785319ghcgb4zr4r0000gp/T//molpro.ANhi0lWKUG/
 Wavefunction directory         : /Users/sacpjk/wfu/
 Main file repository           : /var/folders/2v/xbgp75_9785319ghcgb4zr4r0000gp/T//molpro.ANhi0lWKUG/

 id        : peterk

 Nodes                        nprocs
 Cardiff-University-G34YLXT77Y    1
 GA implementation: MPI file
 GA implementation (serial work in mppx): MPI file

 Using customized tuning parameters: mindgm=1; mindgv=20; mindgc=4; mindgr=1; noblas=0; minvec=7
 default implementation of scratch files=df  


 Variables initialized (1032), CPU time= 0.00 sec
 
 symmetry,nosym
 
 
 geometry={
           10
     N          0.00000000      0.00000000      1.14271621
     C         -1.12415740      0.00000000      0.35290193
     C          1.12415740      0.00000000      0.35290193
     C         -0.71189725      0.00000000     -0.96006654
     C          0.71189725      0.00000000     -0.96006654
     H          0.00000000      0.00000000      2.14833657
     H         -2.11145475      0.00000000      0.78525808
     H          2.11145475      0.00000000      0.78525808
     H         -1.35853848      0.00000000     -1.82361985
     H          1.35853848      0.00000000     -1.82361985
 }
 basis=cc-pVDZ
 
 
 
 hf
 
 
 
 {put,xml;noorbitals,nobasis}
 Commands initialized (841), CPU time= 0.01 sec, 704 directives.
 Default parameters read. Elapsed time= 0.62 sec

 Checking input...
 Passed
1


                                         ***  PROGRAM SYSTEM MOLPRO  ***
                                       Copyright, TTI GmbH Stuttgart, 2015
                                    Version 2023.1 linked Tue Jun  6 09:54:11 2023


 **********************************************************************************************************************************
 LABEL *                                                                                                                                                                 
  64 bit serial version                                                                  DATE: 10-Jun-23          TIME: 14:40:57  
 **********************************************************************************************************************************

 SHA1:             8ebb0dd001088a5c915591db1a321413035db0b1
 **********************************************************************************************************************************

 Memory per process:       805 MW
 Total memory per node:   1074 MW
 Total GA space:           268 MW

 GA preallocation disabled
 GA check enabled

 Variable memory set to 805.3 MW

 ZSYMEL=NOSYM


 Geometry recognized as XYZ

 SETTING BASIS          =    CC-PVDZ


 Recomputing integrals since basis changed


 Using spherical harmonics

 Library entry N      S cc-pVDZ              selected for orbital group  1
 Library entry N      P cc-pVDZ              selected for orbital group  1
 Library entry N      D cc-pVDZ              selected for orbital group  1
 Library entry C      S cc-pVDZ              selected for orbital group  2
 Library entry C      P cc-pVDZ              selected for orbital group  2
 Library entry C      D cc-pVDZ              selected for orbital group  2
 Library entry H      S cc-pVDZ              selected for orbital group  3
 Library entry H      P cc-pVDZ              selected for orbital group  3


 PROGRAM * SEWARD (Integral evaluation for generally contracted gaussian basis sets)     Author: Roland Lindh, 1990

 Geometry written to block  1 of record 700


 Point group  C1  



 ATOMIC COORDINATES

 NR  ATOM    CHARGE       X              Y              Z

   1  N       7.00    0.000000000    0.000000000    2.159420675
   2  C       6.00   -2.124349607    0.000000000    0.666887997
   3  C       6.00    2.124349607    0.000000000    0.666887997
   4  C       6.00   -1.345290831    0.000000000   -1.814262822
   5  C       6.00    1.345290831    0.000000000   -1.814262822
   6  H       1.00    0.000000000    0.000000000    4.059767741
   7  H       1.00   -3.990071202    0.000000000    1.483922708
   8  H       1.00    3.990071202    0.000000000    1.483922708
   9  H       1.00   -2.567265657    0.000000000   -3.446142072
  10  H       1.00    2.567265657    0.000000000   -3.446142072

 Bond lengths in Bohr (Angstrom)

 1-2  2.596250190  1-3  2.596250190  1-6  1.900347066  2-4  2.600584927  2-7  2.036777551
     ( 1.373876434)     ( 1.373876434)     ( 1.005620360)     ( 1.376170278)     ( 1.077816263)

  3- 5  2.600584927   3- 8  2.036777551   4- 5  2.690581663   4- 9  2.038688883   5-10  2.038688883
       ( 1.376170278)       ( 1.077816263)       ( 1.423794500)       ( 1.078827697)       ( 1.078827697)

 Bond angles

  1-2-4  107.65942498   1-2-7  121.25924213   1-3-5  107.65942498   1-3-8  121.25924213

  2-1-3  109.81752217   2-1-6  125.09123892   2-4-5  107.43181394   2-4-9  125.74178504

  3- 1- 6  125.09123892   3- 5- 4  107.43181394   3- 5-10  125.74178504   4- 2- 7  131.08133289

  4- 5-10  126.82640102   5- 3- 8  131.08133289   5- 4- 9  126.82640102

 NUCLEAR CHARGE:                   36
 NUMBER OF PRIMITIVE AOS:         170
 NUMBER OF SYMMETRY AOS:          165
 NUMBER OF CONTRACTIONS:           95   (   95A   )
 NUMBER OF INNER CORE ORBITALS:     0   (    0A   )
 NUMBER OF OUTER CORE ORBITALS:     5   (    5A   )
 NUMBER OF VALENCE ORBITALS:       25   (   25A   )


 NUCLEAR REPULSION ENERGY  160.95503825

 EXTRA SYMMETRY OF AOS IN SYMMETRY 1:   1 1 1 1 2 1 1 2 1 1   2 1 1 2 1 1 1 1 2 1   1 2 1 1 2 1 1 2 1 1   1 1 2 1 1 2 1 1 2 1
                                        1 2 1 1 1 1 2 1 1 2   1 1 2 1 1 2 1 1 1 1   2 1 1 2 1 1 2 1 1 2   1 1 1 2 1 1 1 1 2 1
                                        1 1 1 2 1 1 1 1 2 1   1 1 1 2 1

 Eigenvalues of metric

         1 0.772E-03 0.256E-02 0.563E-02 0.712E-02 0.101E-01 0.167E-01 0.181E-01 0.196E-01


 Contracted 2-electron integrals neglected if value below      1.0D-11
 AO integral compression algorithm  1   Integral accuracy      1.0D-11

     28.574 MB (compressed) written to integral file ( 30.5%)


 NUMBER OF SORTED TWO-ELECTRON INTEGRALS:   10399080.     BUFFER LENGTH:  32768
 NUMBER OF SEGMENTS:   1  SEGMENT LENGTH:   10399080      RECORD LENGTH: 524288

 Memory used in sort:      10.96 MW

 SORT1 READ    11637289. AND WROTE     5354556. INTEGRALS IN     16 RECORDS. CPU TIME:     0.06 SEC, REAL TIME:     0.09 SEC
 SORT2 READ     5354556. AND WROTE    10399080. INTEGRALS IN    109 RECORDS. CPU TIME:     0.09 SEC, REAL TIME:     0.09 SEC

 FILE SIZES:   FILE 1:    59.1 MBYTE,  FILE 4:    67.2 MBYTE,   TOTAL:    126.2 MBYTE

 OPERATOR DM      FOR CENTER  0  COORDINATES:    0.000000    0.000000    0.000000


 **********************************************************************************************************************************
 DATASETS  * FILE   NREC   LENGTH (MB)   RECORD NAMES
              1      19       52.27       500      610      700      900      950      970     1000      129      960     1100   
                                          VAR    BASINP    GEOM    SYMINP    ZMAT    AOBASIS   BASIS     P2S    ABASIS      S 
                                         1400     1410     1200     1210     1080     1600     1650     1300     1700   
                                           T        V       H0       H01     AOSYM     SMH    MOLCAS    ERIS     OPER   

 PROGRAMS   *        TOTAL       INT
 CPU TIMES  *         0.76      0.67
 REAL TIME  *         2.00 SEC
 DISK USED  *       120.88 MB
 **********************************************************************************************************************************


 Program * Restricted Hartree-Fock

 Orbital guess generated from atomic densities. Full valence occupancy:   30

 Initial occupancy:  18

 NELEC=   36   SYM=1   MS2= 0   THRE=1.0D-08   THRD=3.2D-06   THRG=3.2D-06  HFMA2=F  DIIS_START=2   DIIS_MAX=10   DIIS_INCORE=F

 Level shifts:    0.00 (CLOSED)    0.00 (OPEN)    0.30 (GAP_MIN)

 ITER           ETOT              DE          GRAD        DDIFF     DIIS  NEXP   TIME(IT)  TIME(TOT)  DIAG
   1     -208.76302354    -208.76302354     0.00D+00     0.11D+00     0     0       0.04      0.08    start
   2     -208.81209748      -0.04907393     0.58D-02     0.12D-01     1     0       0.04      0.12    diag
   3     -208.82693531      -0.01483783     0.34D-02     0.52D-02     2     0       0.05      0.17    diag
   4     -208.82822537      -0.00129006     0.76D-03     0.18D-02     3     0       0.04      0.21    diag
   5     -208.82832877      -0.00010340     0.23D-03     0.41D-03     4     0       0.04      0.25    diag
   6     -208.82835149      -0.00002271     0.65D-04     0.20D-03     5     0       0.04      0.29    diag
   7     -208.82835622      -0.00000473     0.29D-04     0.97D-04     6     0       0.04      0.33    diag
   8     -208.82835657      -0.00000036     0.78D-05     0.26D-04     7     0       0.04      0.37    fixocc
   9     -208.82835660      -0.00000003     0.29D-05     0.86D-05     8     0       0.04      0.41    diag
  10     -208.82835660      -0.00000000     0.55D-06     0.17D-05     9     0       0.04      0.45    diag/orth
  11     -208.82835660      -0.00000000     0.15D-06     0.37D-06     0     0       0.05      0.50    diag

 Final occupancy:  18

 !RHF STATE 1.1 Energy               -208.828356604998
  RHF One-electron energy            -600.514827189638
  RHF Two-electron energy             230.731432338687
  RHF Kinetic energy                  208.580658586679
  RHF Nuclear energy                  160.955038245953
  RHF Virial quotient                  -1.001187540686

 !RHF STATE 1.1 Dipole moment          -0.00000000     0.00000000     0.77053233
 Dipole moment /Debye                  -0.00000000     0.00000000     1.95849782

 Orbital energies:

           1.1          2.1          3.1          4.1          5.1          6.1          7.1          8.1          9.1         10.1
    -15.605284   -11.252679   -11.252640   -11.209314   -11.208316    -1.285805    -1.037009    -0.972897    -0.787810    -0.761763

          11.1         12.1         13.1         14.1         15.1         16.1         17.1         18.1         19.1         20.1
     -0.730878    -0.586624    -0.577130    -0.560969    -0.541741    -0.521480    -0.340732    -0.292911     0.178883     0.191859


 HOMO     18.1    -0.292911 =      -7.9705eV
 LUMO     19.1     0.178883 =       4.8677eV
 LUMO-HOMO         0.471794 =      12.8382eV

 Orbitals saved in record  2100.2


 **********************************************************************************************************************************
 DATASETS  * FILE   NREC   LENGTH (MB)   RECORD NAMES
              1      19       52.27       500      610      700      900      950      970     1000      129      960     1100   
                                          VAR    BASINP    GEOM    SYMINP    ZMAT    AOBASIS   BASIS     P2S    ABASIS      S 
                                         1400     1410     1200     1210     1080     1600     1650     1300     1700   
                                           T        V       H0       H01     AOSYM     SMH    MOLCAS    ERIS     OPER   

              2       4        0.67       700     1000      520     2100   
                                         GEOM     BASIS   MCVARS     RHF  

 PROGRAMS   *        TOTAL    HF-SCF       INT
 CPU TIMES  *         1.26      0.50      0.67
 REAL TIME  *         2.85 SEC
 DISK USED  *       120.88 MB
 **********************************************************************************************************************************

 Dump information in style XML to xml output                                                                      

 Orbitals will not be exported.

 **********************************************************************************************************************************

 HF/cc-pVDZ energy=   -208.828356604998

          HF-SCF
   -208.82835660
 **********************************************************************************************************************************
 Molpro calculation terminated
