
 Working directory              : /var/folders/2v/xbgp75_9785319ghcgb4zr4r0000gp/T//molpro.raR79usgtP/
 Global scratch directory       : /var/folders/2v/xbgp75_9785319ghcgb4zr4r0000gp/T//molpro.raR79usgtP/
 Wavefunction directory         : /Users/sacpjk/wfu/
 Main file repository           : /var/folders/2v/xbgp75_9785319ghcgb4zr4r0000gp/T//molpro.raR79usgtP/

 id        : peterk

 Nodes                        nprocs
 Cardiff-University-G34YLXT77Y    1
 GA implementation: MPI file
 GA implementation (serial work in mppx): MPI file

 Using customized tuning parameters: mindgm=1; mindgv=20; mindgc=4; mindgr=1; noblas=0; minvec=7
 default implementation of scratch files=df  


 Variables initialized (1032), CPU time= 0.00 sec
 
 symmetry,nosym
 
 
 geometry={
            8
     C         -0.76309476      0.00000033     -0.00000093
     C          0.76309476      0.00000033     -0.00000093
     H          1.15831079     -0.44364177     -0.91409641
     H         -1.15831079     -1.01332647     -0.07464085
     H          1.15831079     -0.56981244      0.84125331
     H          1.15831079      1.01345414      0.07284720
     H         -1.15831079      0.44202050      0.91488304
     H         -1.15831079      0.57130538     -0.84024444
 }
 basis=cc-pVDZ
 
 
 
 hf
 
 
 
 {put,xml;noorbitals,nobasis}
 Commands initialized (841), CPU time= 0.01 sec, 704 directives.
 Default parameters read. Elapsed time= 0.19 sec

 Checking input...
 Passed
1


                                         ***  PROGRAM SYSTEM MOLPRO  ***
                                       Copyright, TTI GmbH Stuttgart, 2015
                                    Version 2023.1 linked Tue Jun  6 09:54:11 2023


 **********************************************************************************************************************************
 LABEL *                                                                                                                                                                 
  64 bit serial version                                                                  DATE: 09-Jun-23          TIME: 09:26:45  
 **********************************************************************************************************************************

 SHA1:             8ebb0dd001088a5c915591db1a321413035db0b1
 **********************************************************************************************************************************

 Memory per process:       805 MW
 Total memory per node:   1074 MW
 Total GA space:           268 MW

 GA preallocation disabled
 GA check enabled

 Variable memory set to 805.3 MW

 ZSYMEL=NOSYM


 Geometry recognized as XYZ

 SETTING BASIS          =    CC-PVDZ


 Recomputing integrals since basis changed


 Using spherical harmonics

 Library entry C      S cc-pVDZ              selected for orbital group  1
 Library entry C      P cc-pVDZ              selected for orbital group  1
 Library entry C      D cc-pVDZ              selected for orbital group  1
 Library entry H      S cc-pVDZ              selected for orbital group  2
 Library entry H      P cc-pVDZ              selected for orbital group  2


 PROGRAM * SEWARD (Integral evaluation for generally contracted gaussian basis sets)     Author: Roland Lindh, 1990

 Geometry written to block  1 of record 700


 Point group  C1  



 ATOMIC COORDINATES

 NR  ATOM    CHARGE       X              Y              Z

   1  C       6.00   -1.442040104    0.000000624   -0.000001757
   2  C       6.00    1.442040104    0.000000624   -0.000001757
   3  H       1.00    2.188890160   -0.838361443   -1.727391866
   4  H       1.00   -2.188890160   -1.914909503   -0.141050764
   5  H       1.00    2.188890160   -1.076789454    1.589738357
   6  H       1.00    2.188890160    1.915150764    0.137661257
   7  H       1.00   -2.188890160    0.835297686    1.728878382
   8  H       1.00   -2.188890160    1.079610702   -1.587831869

 Bond lengths in Bohr (Angstrom)

 1-2  2.884080207  1-4  2.060233148  1-7  2.060226377  1-8  2.060229937  2-3  2.060221481
     ( 1.526189520)     ( 1.090228431)     ( 1.090224848)     ( 1.090226732)     ( 1.090222257)

 2-5  2.060227053  2-6  2.060227214
     ( 1.090225206)     ( 1.090225291)

 Bond angles

  1-2-3  111.25439912   1-2-5  111.25433885   1-2-6  111.25433710   2-1-4  111.25427292

  2-1-7  111.25434616   2-1-8  111.25430765   3-2-5  107.63059347   3-2-6  107.63095412

  4-1-7  107.63069796   4-1-8  107.63093250   5-2-6  107.63061159   7-1-8  107.63068649

 NUCLEAR CHARGE:                   18
 NUMBER OF PRIMITIVE AOS:          96
 NUMBER OF SYMMETRY AOS:           94
 NUMBER OF CONTRACTIONS:           58   (   58A   )
 NUMBER OF INNER CORE ORBITALS:     0   (    0A   )
 NUMBER OF OUTER CORE ORBITALS:     2   (    2A   )
 NUMBER OF VALENCE ORBITALS:       14   (   14A   )


 NUCLEAR REPULSION ENERGY   42.29530330


 Eigenvalues of metric

         1 0.519E-02 0.140E-01 0.325E-01 0.359E-01 0.359E-01 0.363E-01 0.363E-01 0.380E-01


 Contracted 2-electron integrals neglected if value below      1.0D-11
 AO integral compression algorithm  1   Integral accuracy      1.0D-11

     7.602 MB (compressed) written to integral file ( 57.0%)


 NUMBER OF SORTED TWO-ELECTRON INTEGRALS:    1464616.     BUFFER LENGTH:  32768
 NUMBER OF SEGMENTS:   1  SEGMENT LENGTH:    1464616      RECORD LENGTH: 524288

 Memory used in sort:       2.02 MW

 SORT1 READ     1695909. AND WROTE     1396063. INTEGRALS IN      4 RECORDS. CPU TIME:     0.01 SEC, REAL TIME:     0.01 SEC
 SORT2 READ     1396063. AND WROTE     1464616. INTEGRALS IN     29 RECORDS. CPU TIME:     0.02 SEC, REAL TIME:     0.04 SEC

 FILE SIZES:   FILE 1:    37.8 MBYTE,  FILE 4:    16.8 MBYTE,   TOTAL:     54.7 MBYTE

 OPERATOR DM      FOR CENTER  0  COORDINATES:    0.000000    0.000000    0.000000


 **********************************************************************************************************************************
 DATASETS  * FILE   NREC   LENGTH (MB)   RECORD NAMES
              1      19       35.00       500      610      700      900      950      970     1000      129      960     1100   
                                          VAR    BASINP    GEOM    SYMINP    ZMAT    AOBASIS   BASIS     P2S    ABASIS      S 
                                         1400     1410     1200     1210     1080     1600     1650     1300     1700   
                                           T        V       H0       H01     AOSYM     SMH    MOLCAS    ERIS     OPER   

 PROGRAMS   *        TOTAL       INT
 CPU TIMES  *         0.28      0.20
 REAL TIME  *         0.93 SEC
 DISK USED  *        52.58 MB
 **********************************************************************************************************************************


 Program * Restricted Hartree-Fock

 Orbital guess generated from atomic densities. Full valence occupancy:   16

 Initial occupancy:   9

 NELEC=   18   SYM=1   MS2= 0   THRE=1.0D-08   THRD=3.2D-06   THRG=3.2D-06  HFMA2=F  DIIS_START=2   DIIS_MAX=10   DIIS_INCORE=F

 Level shifts:    0.00 (CLOSED)    0.00 (OPEN)    0.30 (GAP_MIN)

 ITER           ETOT              DE          GRAD        DDIFF     DIIS  NEXP   TIME(IT)  TIME(TOT)  DIAG
   1      -79.20477927     -79.20477927     0.00D+00     0.13D+00     0     0       0.01      0.01    start
   2      -79.23118851      -0.02640924     0.65D-02     0.13D-01     1     0       0.01      0.02    diag
   3      -79.23443477      -0.00324626     0.25D-02     0.48D-02     2     0       0.00      0.02    diag
   4      -79.23491060      -0.00047583     0.74D-03     0.17D-02     3     0       0.01      0.03    diag
   5      -79.23491651      -0.00000591     0.77D-04     0.27D-03     4     0       0.01      0.04    diag
   6      -79.23491656      -0.00000005     0.71D-05     0.29D-04     5     0       0.00      0.04    diag
   7      -79.23491656      -0.00000000     0.72D-06     0.17D-05     6     0       0.01      0.05    diag
   8      -79.23491656      -0.00000000     0.12D-06     0.31D-06     0     0       0.01      0.06    fixocc

 Final occupancy:   9

 !RHF STATE 1.1 Energy                -79.234916564793
  RHF One-electron energy            -189.129794934026
  RHF Two-electron energy              67.599575065575
  RHF Kinetic energy                   79.121780985097
  RHF Nuclear energy                   42.295303303659
  RHF Virial quotient                  -1.001429891722

 !RHF STATE 1.1 Dipole moment           0.00000156     0.00000022     0.00000045
 Dipole moment /Debye                   0.00000397     0.00000055     0.00000114

 Orbital energies:

           1.1          2.1          3.1          4.1          5.1          6.1          7.1          8.1          9.1         10.1
    -11.218055   -11.217466    -1.018102    -0.841850    -0.595399    -0.595398    -0.508413    -0.485319    -0.485319     0.186801

          11.1
      0.236003


 HOMO      9.1    -0.485319 =     -13.2062eV
 LUMO     10.1     0.186801 =       5.0831eV
 LUMO-HOMO         0.672120 =      18.2893eV

 Orbitals saved in record  2100.2


 **********************************************************************************************************************************
 DATASETS  * FILE   NREC   LENGTH (MB)   RECORD NAMES
              1      19       35.00       500      610      700      900      950      970     1000      129      960     1100   
                                          VAR    BASINP    GEOM    SYMINP    ZMAT    AOBASIS   BASIS     P2S    ABASIS      S 
                                         1400     1410     1200     1210     1080     1600     1650     1300     1700   
                                           T        V       H0       H01     AOSYM     SMH    MOLCAS    ERIS     OPER   

              2       4        0.55       700     1000      520     2100   
                                         GEOM     BASIS   MCVARS     RHF  

 PROGRAMS   *        TOTAL    HF-SCF       INT
 CPU TIMES  *         0.34      0.06      0.20
 REAL TIME  *         1.14 SEC
 DISK USED  *        52.58 MB
 **********************************************************************************************************************************

 Dump information in style XML to xml output                                                                      

 Orbitals will not be exported.

 **********************************************************************************************************************************

 HF/cc-pVDZ energy=    -79.234916564793

          HF-SCF
    -79.23491656
 **********************************************************************************************************************************
 Molpro calculation terminated
