
 Working directory              : /var/folders/2v/xbgp75_9785319ghcgb4zr4r0000gp/T//molpro.7z9pwMa6dm/
 Global scratch directory       : /var/folders/2v/xbgp75_9785319ghcgb4zr4r0000gp/T//molpro.7z9pwMa6dm/
 Wavefunction directory         : /Users/sacpjk/wfu/
 Main file repository           : /var/folders/2v/xbgp75_9785319ghcgb4zr4r0000gp/T//molpro.7z9pwMa6dm/

 id        : peterk

 Nodes                        nprocs
 Cardiff-University-G34YLXT77Y    1
 GA implementation: MPI file
 GA implementation (serial work in mppx): MPI file

 Using customized tuning parameters: mindgm=1; mindgv=20; mindgc=4; mindgr=1; noblas=0; minvec=7
 default implementation of scratch files=df  


 Variables initialized (1037), CPU time= 0.00 sec
 
 symmetry,nosym
 
 
 geometry={
 12
  c         -2.459218126015    0.916788348978   -0.670797774233
  h         -1.741270501936    1.550721280027   -1.134404942908
  c         -3.234931287824    0.163959749385   -0.120222176892
  h         -3.929358797758   -0.484782139703    0.354183664714
  c          0.985794039147    0.047853878952   -0.034259673957
  o          0.731614981215    1.003956126123   -0.733097422222
  o          0.037889420139   -0.726486347779    0.533426931046
  h         -0.823109967671   -0.359187360778    0.265655788796
  c          2.361429192151   -0.433595950547    0.315891233766
  h          3.099815005257    0.203954137134   -0.154959090250
  h          2.487639707965   -0.421741224987    1.395926558104
  h          2.483706335065   -1.461440496700   -0.017343096018
 }
 basis=aug-cc-pVDZ
 
 
 
 hf; hf; papt; mp2; counterpoise
 
 
 
 {put,xml;noorbitals,nobasis}
 Commands initialized (841), CPU time= 0.01 sec, 716 directives.
 Default parameters read. Elapsed time= 0.11 sec

 Checking input...
 Passed
1


                                         ***  PROGRAM SYSTEM MOLPRO  ***
                                       Copyright, TTI GmbH Stuttgart, 2015
                                    Version 2023.1 linked Fri Jul  7 12:12:39 2023


 **********************************************************************************************************************************
 LABEL *                                                                                                                                                                 
  64 bit serial version                                                                  DATE: 10-Jul-23          TIME: 07:12:39  
 **********************************************************************************************************************************

 SHA1:             0fe2fddcc441eb00bb4c7ecb49b93e22d4ddc339
 **********************************************************************************************************************************

 Memory per process:      1573 MW
 Total memory per node:   2097 MW
 Total GA space:           524 MW

 GA preallocation disabled
 GA check enabled

 Variable memory set to 1572.9 MW

 ZSYMEL=NOSYM


 Geometry recognized as XYZ

 SETTING BASIS          =    AUG-CC-PVDZ


 Recomputing integrals since basis changed


 Using spherical harmonics

 Library entry C      S aug-cc-pVDZ          selected for orbital group  1
 Library entry C      P aug-cc-pVDZ          selected for orbital group  1
 Library entry C      D aug-cc-pVDZ          selected for orbital group  1
 Library entry H      S aug-cc-pVDZ          selected for orbital group  2
 Library entry H      P aug-cc-pVDZ          selected for orbital group  2
 Library entry O      S aug-cc-pVDZ          selected for orbital group  6
 Library entry O      P aug-cc-pVDZ          selected for orbital group  6
 Library entry O      D aug-cc-pVDZ          selected for orbital group  6


 PROGRAM * SEWARD (Integral evaluation for generally contracted gaussian basis sets)     Author: Roland Lindh, 1990

 Geometry written to block  1 of record 700


 Point group  C1  



 ATOMIC COORDINATES

 NR  ATOM    CHARGE       X              Y              Z

   1  C       6.00   -4.647248739    1.732478894   -1.267624078
   2  H       1.00   -3.290524358    2.930438515   -2.143714657
   3  C       6.00   -6.113134166    0.309839022   -0.227186988
   4  H       1.00   -7.425411973   -0.916105474    0.669310124
   5  C       6.00    1.862880749    0.090430725   -0.064741401
   6  O       8.00    1.382551943    1.897202120   -1.385353351
   7  O       8.00    0.071600627   -1.372860231    1.008030807
   8  H       1.00   -1.555452409   -0.678765739    0.502016684
   9  C       6.00    4.462454436   -0.819377595    0.596947917
  10  H       1.00    5.857801397    0.385417461   -0.292830241
  11  H       1.00    4.700957745   -0.796975411    2.637918885
  12  H       1.00    4.693524747   -2.761722286   -0.032773702

 Bond lengths in Bohr (Angstrom)

 1-2  2.010806555  1-3  2.292429634  3-4  2.007167164  5-6  2.288919954  5-7  2.549655880
     ( 1.064073004)     ( 1.213101520)     ( 1.062147122)     ( 1.211244277)     ( 1.349219787)

  5- 9  2.832554904   7- 8  1.839869299   9-10  2.047004993   9-11  2.054981308   9-12  2.054907712
       ( 1.498923504)       ( 0.973616904)       ( 1.083228393)       ( 1.087449277)       ( 1.087410332)

 Bond angles

  1- 3- 4  178.92211762   2- 1- 3  177.31839716   5- 7- 8  106.80191145   5- 9-10  109.57256808

  5- 9-11  109.57389652   5- 9-12  109.58561376   6- 5- 7  123.25385323   6- 5- 9  125.51430755

  7- 5- 9  111.23183915  10- 9-11  110.25385240  10- 9-12  110.27152505  11- 9-12  107.55443570

 NUCLEAR CHARGE:                   46
 NUMBER OF PRIMITIVE AOS:         288
 NUMBER OF SYMMETRY AOS:          276
 NUMBER OF CONTRACTIONS:          192   (  192A   )
 NUMBER OF INNER CORE ORBITALS:     0   (    0A   )
 NUMBER OF OUTER CORE ORBITALS:     6   (    6A   )
 NUMBER OF VALENCE ORBITALS:       30   (   30A   )


 NUCLEAR REPULSION ENERGY  206.60195753


 Eigenvalues of metric

         1 0.275E-04 0.409E-04 0.535E-04 0.136E-03 0.282E-03 0.501E-03 0.508E-03 0.595E-03


 Contracted 2-electron integrals neglected if value below      1.0D-12
 AO integral compression algorithm  1   Integral accuracy      1.0D-12

     822.870 MB (compressed) written to integral file ( 53.5%)


 NUMBER OF SORTED TWO-ELECTRON INTEGRALS:  171652656.     BUFFER LENGTH:  32768
 NUMBER OF SEGMENTS:  11  SEGMENT LENGTH:   15999503      RECORD LENGTH: 524288

 Memory used in sort:      16.56 MW

 SORT1 READ   192135943. AND WROTE   164908781. INTEGRALS IN    477 RECORDS. CPU TIME:     1.27 SEC, REAL TIME:     1.68 SEC
 SORT2 READ   164908781. AND WROTE   171652656. INTEGRALS IN   3139 RECORDS. CPU TIME:     1.01 SEC, REAL TIME:     1.42 SEC

 FILE SIZES:   FILE 1:   854.4 MBYTE,  FILE 4:  2000.7 MBYTE,   TOTAL:   2855.2 MBYTE

 OPERATOR DM      FOR CENTER  0  COORDINATES:    0.000000    0.000000    0.000000


 **********************************************************************************************************************************
 DATASETS  * FILE   NREC   LENGTH (MB)   RECORD NAMES
              1      19      739.70       500      610      700      900      950      970     1000      129      960     1100   
                                          VAR    BASINP    GEOM    SYMINP    ZMAT    AOBASIS   BASIS     P2S    ABASIS      S 
                                         1400     1410     1200     1210     1080     1600     1650     1300     1700   
                                           T        V       H0       H01     AOSYM     SMH    MOLCAS    ERIS     OPER   

 PROGRAMS   *        TOTAL       INT
 CPU TIMES  *         6.11      6.02
 REAL TIME  *         7.83 SEC
 DISK USED  *         2.66 GB
 **********************************************************************************************************************************


 Program * Restricted Hartree-Fock

 Orbital guess generated from atomic densities. Full valence occupancy:   36

 Initial occupancy:  23

 NELEC=   46   SYM=1   MS2= 0   THRE=1.0D-08   THRD=3.2D-06   THRG=3.2D-06  HFMA2=F  DIIS_START=2   DIIS_MAX=10   DIIS_INCORE=F

 Level shifts:    0.00 (CLOSED)    0.00 (OPEN)    0.30 (GAP_MIN)

 ITER           ETOT              DE          GRAD        DDIFF     DIIS  NEXP   TIME(IT)  TIME(TOT)  DIAG
   1     -304.57012137    -304.57012137     0.00D+00     0.70D-01     0     0       0.69      1.34    start
   2     -304.64509164      -0.07497026     0.54D-02     0.12D-01     1     0       0.69      2.03    diag
   3     -304.67891238      -0.03382074     0.35D-02     0.38D-02     2     0       0.72      2.75    diag
   4     -304.68083453      -0.00192215     0.61D-03     0.11D-02     3     0       0.72      3.47    diag
   5     -304.68112223      -0.00028770     0.23D-03     0.43D-03     4     0       0.72      4.19    diag
   6     -304.68115414      -0.00003191     0.66D-04     0.13D-03     5     0       0.72      4.91    diag
   7     -304.68116006      -0.00000591     0.26D-04     0.57D-04     6     0       0.72      5.63    diag
   8     -304.68116097      -0.00000092     0.95D-05     0.21D-04     7     0       0.71      6.34    fixocc
   9     -304.68116112      -0.00000015     0.39D-05     0.96D-05     8     0       0.72      7.06    diag
  10     -304.68116114      -0.00000002     0.16D-05     0.36D-05     9     0       0.73      7.79    diag/orth
  11     -304.68116114      -0.00000000     0.40D-06     0.10D-05     9     0       0.72      8.51    diag
  12     -304.68116114      -0.00000000     0.11D-06     0.23D-06     0     0       0.72      9.23    diag

 Final occupancy:  23

 !RHF STATE 1.1 Energy               -304.681161143750
  RHF One-electron energy            -824.479976472387
  RHF Two-electron energy             313.196857796436
  RHF Kinetic energy                  304.196685618260
  RHF Nuclear energy                  206.601957532201
  RHF Virial quotient                  -1.001592639067

 !RHF STATE 1.1 Dipole moment           0.05437250    -0.56121879     0.40981478
 Dipole moment /Debye                   0.13820111    -1.42647588     1.04164526

 Orbital energies:

           1.1          2.1          3.1          4.1          5.1          6.1          7.1          8.1          9.1         10.1
    -20.613552   -20.559013   -11.396522   -11.264936   -11.261327   -11.248966    -1.464443    -1.362102    -1.044087    -1.027245

          11.1         12.1         13.1         14.1         15.1         16.1         17.1         18.1         19.1         20.1
     -0.821307    -0.776380    -0.707454    -0.688925    -0.675153    -0.647150    -0.581296    -0.571056    -0.557035    -0.480188

          21.1         22.1         23.1         24.1         25.1
     -0.456289    -0.419704    -0.418986     0.033699     0.040410


 HOMO     23.1    -0.418986 =     -11.4012eV
 LUMO     24.1     0.033699 =       0.9170eV
 LUMO-HOMO         0.452685 =      12.3182eV

 Orbitals saved in record  2100.2


 **********************************************************************************************************************************
 DATASETS  * FILE   NREC   LENGTH (MB)   RECORD NAMES
              1      19      739.70       500      610      700      900      950      970     1000      129      960     1100   
                                          VAR    BASINP    GEOM    SYMINP    ZMAT    AOBASIS   BASIS     P2S    ABASIS      S 
                                         1400     1410     1200     1210     1080     1600     1650     1300     1700   
                                           T        V       H0       H01     AOSYM     SMH    MOLCAS    ERIS     OPER   

              2       4        1.15       700     1000      520     2100   
                                         GEOM     BASIS   MCVARS     RHF  

 PROGRAMS   *        TOTAL    HF-SCF       INT
 CPU TIMES  *        15.34      9.23      6.02
 REAL TIME  *        18.45 SEC
 DISK USED  *         2.66 GB
 **********************************************************************************************************************************


 Program * Restricted Hartree-Fock

 Molecular orbitals read from record     2100.2  Type=RHF/CANONICAL  

 Initial occupancy:  23

 NELEC=   46   SYM=1   MS2= 0   THRE=1.0D-08   THRD=3.2D-06   THRG=3.2D-06  HFMA2=F  DIIS_START=2   DIIS_MAX=10   DIIS_INCORE=F

 Level shifts:    0.00 (CLOSED)    0.00 (OPEN)    0.30 (GAP_MIN)

 ITER           ETOT              DE          GRAD        DDIFF     DIIS  NEXP   TIME(IT)  TIME(TOT)  DIAG
   1     -304.68116114    -304.68116114     0.00D+00     0.71D-01     0     0       0.72      0.72    start
   2     -304.68116114      -0.00000000     0.49D-07     0.87D-07     1     0       0.72      1.44    diag

 Final occupancy:  23

 !RHF STATE 1.1 Energy               -304.681161143773
  RHF One-electron energy            -824.479984238419
  RHF Two-electron energy             313.196865562444
  RHF Kinetic energy                  304.196686662853
  RHF Nuclear energy                  206.601957532201
  RHF Virial quotient                  -1.001592635627

 !RHF STATE 1.1 Dipole moment           0.05436518    -0.56122007     0.40981572
 Dipole moment /Debye                   0.13818251    -1.42647912     1.04164765

 Orbital energies:

           1.1          2.1          3.1          4.1          5.1          6.1          7.1          8.1          9.1         10.1
    -20.613552   -20.559014   -11.396526   -11.264937   -11.261329   -11.248964    -1.464444    -1.362103    -1.044088    -1.027245

          11.1         12.1         13.1         14.1         15.1         16.1         17.1         18.1         19.1         20.1
     -0.821307    -0.776380    -0.707455    -0.688926    -0.675154    -0.647150    -0.581297    -0.571056    -0.557034    -0.480188

          21.1         22.1         23.1         24.1         25.1
     -0.456290    -0.419704    -0.418986     0.033699     0.040410


 HOMO     23.1    -0.418986 =     -11.4012eV
 LUMO     24.1     0.033699 =       0.9170eV
 LUMO-HOMO         0.452685 =      12.3182eV

 Orbitals saved in record  2101.2


 **********************************************************************************************************************************
 DATASETS  * FILE   NREC   LENGTH (MB)   RECORD NAMES
              1      19      739.70       500      610      700      900      950      970     1000      129      960     1100   
                                          VAR    BASINP    GEOM    SYMINP    ZMAT    AOBASIS   BASIS     P2S    ABASIS      S 
                                         1400     1410     1200     1210     1080     1600     1650     1300     1700   
                                           T        V       H0       H01     AOSYM     SMH    MOLCAS    ERIS     OPER   

              2       5        2.24       700     1000      520     2100     2101   
                                         GEOM     BASIS   MCVARS     RHF      RHF  

 PROGRAMS   *        TOTAL    HF-SCF    HF-SCF       INT
 CPU TIMES  *        16.80      1.45      9.23      6.02
 REAL TIME  *        20.20 SEC
 DISK USED  *         2.66 GB
 **********************************************************************************************************************************


 PROGRAM * PAPT (Closed-shell)     Authors: C. Hampel, H.-J. Werner, 1991, P.J. Knowles, 2021


 Convergence thresholds:  THRVAR = 1.00D-08  THRDEN = 1.00D-06

 Number of core orbitals:           6 (   6 )
 Number of closed-shell orbitals:  17 (  17 )
 Number of external orbitals:     169 ( 169 )

 Molecular orbitals read from record     2101.2  Type=RHF/CANONICAL  

 Number of N-1 electron functions:              17
 Number of N-2 electron functions:             153
 Number of singly external CSFs:              2873
 Number of doubly external CSFs:           4128501
 Total number of CSFs:                     4131375

 Length of J-op  integral file:               0.00 MB
 Length of K-op  integral file:               2.59 MB

 Integral transformation finished. Total CPU:   1.83 sec, npass=  1  Memory used:  10.01 MW

 Reference energy:                   -304.68116114

                        CORR.ENERGY   TOTAL ENERGY   ENERGY CHANGE
 MP2:                   -0.94315651  -305.62431765    -0.94315651

 SCS-MP2 correlation energy:           -0.92218214   (PS=  1.200000  PT=  0.333333)
 SCS-MP2 total energy:               -305.60334328
 Iteration:   1     0.3491D+00
 Iteration:   2     0.6812D+00
 Iteration:   3     0.2907D+00
 Iteration:   4     0.2408D+00
 Iteration:   5     0.7659D+00
 Iteration:   6     0.2842D+00
 Iteration:   7     0.3729D+01
 Iteration:   8     0.2607D+00
 Iteration:   9     0.6092D+00
 Iteration:  10     0.1443D+00
 Iteration:  11     0.1437D+00
 Iteration:  12     0.9206D-01
 Iteration:  13     0.4363D-01
 Iteration:  14     0.5352D+00
 Iteration:  15     0.2348D-01
 Iteration:  16     0.2858D-01
 Iteration:  17     0.2543D-01
 Iteration:  18     0.4447D-02
 Iteration:  19     0.6173D-02
 Iteration:  20     0.2562D-02
 Iteration:  21     0.1475D-02
 Iteration:  22     0.4575D-02
 Iteration:  23     0.5451D-03
 Iteration:  24     0.1281D-02
 Iteration:  25     0.3060D-03
 Iteration:  26     0.3202D-03
 Iteration:  27     0.1585D-03
 Iteration:  28     0.6835D-04
 PAPT operator written to  7000.1
 PAPT orbitals and eigenvalues written to  7000.2

 MP3(D):                -0.96801331  -305.64917446    -0.02485681



 RESULTS
 =======

  Reference energy                   -304.681161143772
  MP3 singlet pair energy              -0.636629561895
  MP3 triplet pair energy              -0.331383750818
  MP3 correlation energy               -0.968013312713

 !MP3 total energy                   -305.649174456485

 Timing summary (sec):

 STEP                 CPU(USER)    SYS     CPU(TOT)    WALL
 Transformation          1.93      0.22      2.15      2.29
 CCSD iterations        39.80      0.53     40.33     24.35

 Program statistics:

 Available memory in ccsd:              1572862821
 Min. memory needed in ccsd:              10269404
 Max. memory used in ccsd:                14015422
 Max. memory used in cckext:              11711361 ( 1 integral passes)



 **********************************************************************************************************************************
 DATASETS  * FILE   NREC   LENGTH (MB)   RECORD NAMES
              1      21      805.06       500      610      700      900      950      970     1000      129      960     1100   
                                          VAR    BASINP    GEOM    SYMINP    ZMAT    AOBASIS   BASIS     P2S    ABASIS      S 
                                         1400     1410     1200     1210     1080     1600     1650     1300     1700     1380   
                                           T        V       H0       H01     AOSYM     SMH    MOLCAS    ERIS     OPER     JKOP   
                                         7000   
                                        PAPT AO    

              2       6        3.18       700     1000      520     2100     2101     7000   
                                         GEOM     BASIS   MCVARS     RHF      RHF     PAPT   

 PROGRAMS   *        TOTAL      PAPT    HF-SCF    HF-SCF       INT
 CPU TIMES  *        41.66     24.86      1.45      9.23      6.02
 REAL TIME  *        46.93 SEC
 DISK USED  *         2.66 GB
 **********************************************************************************************************************************


 PROGRAM * MP2 (Closed-shell)     Authors: C. Hampel, H.-J. Werner, 1991, M. Deegan, P.J. Knowles, 1992


 Convergence thresholds:  THRVAR = 1.00D-08  THRDEN = 1.00D-06

 Number of core orbitals:           6 (   6 )
 Number of closed-shell orbitals:  17 (  17 )
 Number of external orbitals:     169 ( 169 )

 Molecular orbitals read from record     7000.2  Type=PAPT/CANONICAL (state 1.1)

 Number of N-1 electron functions:              17
 Number of N-2 electron functions:             153
 Number of singly external CSFs:              2873
 Number of doubly external CSFs:           4128501
 Total number of CSFs:                     4131375

 Length of J-op  integral file:               0.00 MB
 Length of K-op  integral file:               2.59 MB

 Integral transformation finished. Total CPU:   1.78 sec, npass=  1  Memory used:  10.01 MW
 Orbital energies read from record       7000.2  Type=PAPT/CANONICAL (state 1.1)

 Memory needed for MP2:                      0.18 MW

 SCS-MP2 correlation energy:           -0.961180303484   (PS=  1.200000  PT=  0.333333)
 SCS-MP2 total energy:               -305.642341447257


  Reference energy                   -304.681161143773
  MP2 singlet pair energy              -0.610685322166
  MP2 triplet pair energy              -0.367003794994
  MP2 correlation energy               -0.977689117160

 !MP2 total energy                   -305.658850260932


 **********************************************************************************************************************************
 DATASETS  * FILE   NREC   LENGTH (MB)   RECORD NAMES
              1      21      805.06       500      610      700      900      950      970     1000      129      960     1100   
                                          VAR    BASINP    GEOM    SYMINP    ZMAT    AOBASIS   BASIS     P2S    ABASIS      S 
                                         1400     1410     1200     1210     1080     1600     1650     1300     1700     1380   
                                           T        V       H0       H01     AOSYM     SMH    MOLCAS    ERIS     OPER     JKOP   
                                         7000   
                                        PAPT AO    

              2       6        3.18       700     1000      520     2100     2101     7000   
                                         GEOM     BASIS   MCVARS     RHF      RHF     PAPT   

 PROGRAMS   *        TOTAL       MP2      PAPT    HF-SCF    HF-SCF       INT
 CPU TIMES  *        44.33      2.67     24.86      1.45      9.23      6.02
 REAL TIME  *        50.08 SEC
 DISK USED  *         2.66 GB
 **********************************************************************************************************************************

 Counterpoise: absolute minimum monomer separation=    -1.000 Bragg radius scale factor=     1.400 Number of monomers= 2

 Counterpoise  MP2  energy

 Running default procedure: HF-SCF001  PAPT  MP2

 Assignment of unique atoms to monomers:
1-12     1     1     1     1     2     2     2     2     2     2     2     2

 *** Long output written to logfile /Users/sacpjk/current/PAPT/S66/c6a8334b/60.molpro/run/1.molpro/1.log ***


 Description                       ENERGY          ENERGR          ENERGC
 Raw                        -305.65885026   -304.68116114   -305.65885026
 Dimer basis, monomer 1      -77.10896218    -76.82796688    -77.10896218
 Dimer basis, monomer 2     -228.54392608   -227.84927572   -228.54392608
 Monomer basis, monomer 1    -77.10765070    -76.82769218    -77.10765070
 Monomer basis, monomer 2   -228.54302853   -227.84903872   -228.54302853
 Counterpoise correction       0.00220903      0.00051170      0.00220903
 Counterpoise corrected     -305.65664123   -304.68064944   -305.65664123


 **********************************************************************************************************************************
 DATASETS  * FILE   NREC   LENGTH (MB)   RECORD NAMES
              1      18       30.10       500      610      700      900      950      970     1000      129      960     1100   
                                          VAR    BASINP    GEOM    SYMINP    ZMAT    AOBASIS   BASIS     P2S    ABASIS      S 
                                         1400     1410     1200     1210     1080     1600     1650     1700   
                                           T        V       H0       H01     AOSYM     SMH    MOLCAS    OPER   

              2      14        8.34       700     1000      520     2100     2101     2102     2103      701     1001     2104   
                                         GEOM     BASIS   MCVARS     RHF      RHF      RHF      RHF     GEOM     BASIS     RHF  
                                          702     1002     2105     7000   
                                         GEOM     BASIS     RHF     PAPT   

 PROGRAMS   *        TOTALCOUNTERPOI      PAPT    HF-SCF       INT       MP2      PAPT    HF-SCF       INT       MP2      PAPT
 CPU TIMES  *        81.50      0.60      3.25      1.75      1.31      0.05      0.11      0.12      0.17      2.06      8.77
 REAL TIME  *        92.75 SEC
 DISK USED  *         2.66 GB
 **********************************************************************************************************************************

 Dump information in style XML to xml output                                                                      

 Orbitals will not be exported.

 **********************************************************************************************************************************

 MP2/aug-cc-pVDZ energy=   -305.656641231542

             MP2            PAPT          HF-SCF             MP2            PAPT          HF-SCF             MP2            PAPT
   -228.54302853   -228.53684432   -227.84903872    -77.10765070    -77.10402570    -76.82769218   -228.54392608   -228.53773918
 **********************************************************************************************************************************
 Molpro calculation terminated
