
 Working directory              : /var/folders/2v/xbgp75_9785319ghcgb4zr4r0000gp/T//molpro.Z3Br7dAdMr/
 Global scratch directory       : /var/folders/2v/xbgp75_9785319ghcgb4zr4r0000gp/T//molpro.Z3Br7dAdMr/
 Wavefunction directory         : /Users/sacpjk/wfu/
 Main file repository           : /var/folders/2v/xbgp75_9785319ghcgb4zr4r0000gp/T//molpro.Z3Br7dAdMr/

 id        : peterk

 Nodes                        nprocs
 Cardiff-University-G34YLXT77Y    1
 GA implementation: MPI file
 GA implementation (serial work in mppx): MPI file

 Using customized tuning parameters: mindgm=1; mindgv=20; mindgc=4; mindgr=1; noblas=0; minvec=7
 default implementation of scratch files=df  


 Variables initialized (1032), CPU time= 0.00 sec
 
 symmetry,nosym
 
 
 geometry={
            3
     N         -0.31221246      0.94105672      0.00000000
     N         -0.31221246     -0.23714479      0.00000000
     H          0.62442492     -0.70391193      0.00000000
 }
 basis=cc-pVDZ
 
 
 spin=1
 uhf
 
 
 
 {put,xml;noorbitals,nobasis}
 Commands initialized (841), CPU time= 0.00 sec, 704 directives.
 Default parameters read. Elapsed time= 0.16 sec

 Checking input...
 Passed
1


                                         ***  PROGRAM SYSTEM MOLPRO  ***
                                       Copyright, TTI GmbH Stuttgart, 2015
                                    Version 2023.1 linked Tue Jun  6 09:54:11 2023


 **********************************************************************************************************************************
 LABEL *                                                                                                                                                                 
  64 bit serial version                                                                  DATE: 09-Jun-23          TIME: 09:28:04  
 **********************************************************************************************************************************

 SHA1:             8ebb0dd001088a5c915591db1a321413035db0b1
 **********************************************************************************************************************************

 Memory per process:       805 MW
 Total memory per node:   1074 MW
 Total GA space:           268 MW

 GA preallocation disabled
 GA check enabled

 Variable memory set to 805.3 MW

 ZSYMEL=NOSYM


 Geometry recognized as XYZ

 SETTING BASIS          =    CC-PVDZ
 SETTING SPIN           =         1.00000000                                  


 Recomputing integrals since basis changed


 Using spherical harmonics

 Library entry N      S cc-pVDZ              selected for orbital group  1
 Library entry N      P cc-pVDZ              selected for orbital group  1
 Library entry N      D cc-pVDZ              selected for orbital group  1
 Library entry H      S cc-pVDZ              selected for orbital group  2
 Library entry H      P cc-pVDZ              selected for orbital group  2


 PROGRAM * SEWARD (Integral evaluation for generally contracted gaussian basis sets)     Author: Roland Lindh, 1990

 Geometry written to block  1 of record 700


 Point group  C1  



 ATOMIC COORDINATES

 NR  ATOM    CHARGE       X              Y              Z

   1  N       7.00   -0.589996042    1.778339469    0.000000000
   2  N       7.00   -0.589996042   -0.448138705    0.000000000
   3  H       1.00    1.179992084   -1.330200764    0.000000000

 Bond lengths in Bohr (Angstrom)

 1-2  2.226478174  2-3  1.977597391
     ( 1.178201510)     ( 1.046499472)

 Bond angles

  1-2-3  116.48907201

 NUCLEAR CHARGE:                   15
 NUMBER OF PRIMITIVE AOS:          61
 NUMBER OF SYMMETRY AOS:           59
 NUMBER OF CONTRACTIONS:           33   (   33A   )
 NUMBER OF INNER CORE ORBITALS:     0   (    0A   )
 NUMBER OF OUTER CORE ORBITALS:     2   (    2A   )
 NUMBER OF VALENCE ORBITALS:        9   (    9A   )


 NUCLEAR REPULSION ENERGY   27.50437414

 EXTRA SYMMETRY OF AOS IN SYMMETRY 1:   1 1 1 1 1 2 1 1 2 1   1 2 1 2 1 1 1 1 1 2   1 1 2 1 1 2 1 2 1 1   1 1 2

 Eigenvalues of metric

         1 0.560E-02 0.272E-01 0.438E-01 0.754E-01 0.102E+00 0.125E+00 0.129E+00 0.135E+00


 Contracted 2-electron integrals neglected if value below      1.0D-11
 AO integral compression algorithm  1   Integral accuracy      1.0D-11

     0.524 MB (compressed) written to integral file ( 40.4%)


 NUMBER OF SORTED TWO-ELECTRON INTEGRALS:     157641.     BUFFER LENGTH:  32768
 NUMBER OF SEGMENTS:   1  SEGMENT LENGTH:     157641      RECORD LENGTH: 524288

 Memory used in sort:       0.71 MW

 SORT1 READ      211834. AND WROTE       60892. INTEGRALS IN      1 RECORDS. CPU TIME:     0.00 SEC, REAL TIME:     0.00 SEC
 SORT2 READ       60892. AND WROTE      157641. INTEGRALS IN      2 RECORDS. CPU TIME:     0.01 SEC, REAL TIME:     0.01 SEC

 FILE SIZES:   FILE 1:    30.6 MBYTE,  FILE 4:     4.3 MBYTE,   TOTAL:     34.8 MBYTE

 OPERATOR DM      FOR CENTER  0  COORDINATES:    0.000000    0.000000    0.000000


 **********************************************************************************************************************************
 DATASETS  * FILE   NREC   LENGTH (MB)   RECORD NAMES
              1      19       29.01       500      610      700      900      950      970     1000      129      960     1100   
                                          VAR    BASINP    GEOM    SYMINP    ZMAT    AOBASIS   BASIS     P2S    ABASIS      S 
                                         1400     1410     1200     1210     1080     1600     1650     1300     1700   
                                           T        V       H0       H01     AOSYM     SMH    MOLCAS    ERIS     OPER   

 PROGRAMS   *        TOTAL       INT
 CPU TIMES  *         0.17      0.09
 REAL TIME  *         0.74 SEC
 DISK USED  *        33.57 MB
 **********************************************************************************************************************************


 Program * Unrestricted Hartree-Fock

 Orbital guess generated from atomic densities. Full valence occupancy:   11

 Initial alpha occupancy:   8
 Initial beta  occupancy:   7

 Elapsed time for starting guess:      0.01 sec

 NELEC=   15   SYM=1   MS2=1   THRE=1.0D-08   THRD=3.2D-06   THRG=3.2D-06  HFMA2=F  DIIS_START=2   DIIS_MAX=10   DIIS_INCORE=F

 Initial level shifts:    0.20 (ALPHA)    0.20 (BETA)

 ITER         ETOT            DE          GRAD         DDIFF    DIIS  NEXP   TIME(IT)  TIME(TOT)  DIAG
   1   -109.40188952  -109.40188952     0.00D+00     0.00D+00     0     0       0.00      0.01    start
   2   -109.42710811    -0.02521859     0.11D-01     0.20D+00     1     0       0.00      0.01    diag
   3   -109.43205109    -0.00494298     0.53D-02     0.16D-01     2     0       0.00      0.01    diag
   4   -109.43411571    -0.00206462     0.26D-02     0.76D-02     3     0       0.00      0.01    diag
   5   -109.43517125    -0.00105553     0.12D-02     0.25D-02     4     0       0.00      0.01    diag
   6   -109.43587178    -0.00070054     0.89D-03     0.18D-02     5     0       0.00      0.01    diag
   7   -109.43634059    -0.00046881     0.62D-03     0.13D-02     6     0       0.00      0.01    diag
   8   -109.43671564    -0.00037505     0.42D-03     0.10D-02     7     0       0.01      0.02    diag
   9   -109.43698073    -0.00026509     0.42D-03     0.86D-03     8     0       0.00      0.02    diag
  10   -109.43754536    -0.00056463     0.34D-03     0.45D-03     9     0       0.00      0.02    diag/ort
  11   -109.43781138    -0.00026601     0.28D-03     0.76D-03     9     0       0.00      0.02    diag
  12   -109.43808747    -0.00027609     0.21D-03     0.49D-03     9     0       0.00      0.02    diag
  13   -109.43809573    -0.00000826     0.18D-03     0.14D-02     9     0       0.00      0.02    diag
  14   -109.43809445     0.00000129     0.48D-04     0.65D-04     9     0       0.00      0.02    diag
  15   -109.43809646    -0.00000202     0.28D-04     0.14D-03     9     0       0.00      0.02    diag
  16   -109.43809664    -0.00000018     0.14D-04     0.11D-03     9     0       0.01      0.03    diag
  17   -109.43809665    -0.00000001     0.59D-05     0.30D-04     9     0       0.00      0.03    diag
  18   -109.43809666    -0.00000001     0.23D-05     0.10D-04     9     0       0.00      0.03    diag
  19   -109.43809666    -0.00000000     0.10D-05     0.75D-05     9     0       0.00      0.03    diag

 Final alpha occupancy:   8
 Final beta  occupancy:   7

 !UHF STATE 1.1 Energy               -109.438096662518
  UHF One-electron energy            -202.785517218508
  UHF Two-electron energy              65.843046413941
  UHF Kinetic energy                  109.366689875183
  UHF Nuclear energy                   27.504374142049
  UHF Virial quotient                  -1.000652911663

 !UHF STATE 1.1 Dipole moment           0.62069599    -0.44101013     0.00000000
 Dipole moment /Debye                   1.57765184    -1.12093595     0.00000000

 EXPECTATION VALUE OF S**2:             0.87593430

 Orbital energies for positive spin:

           1.1          2.1          3.1          4.1          5.1          6.1          7.1          8.1          9.1         10.1
    -15.660139   -15.639033    -1.414520    -0.909250    -0.707165    -0.624722    -0.562110    -0.386593     0.151243     0.189229

 Orbital energies for negative spin:

           1.1          2.1          3.1          4.1          5.1          6.1          7.1          8.1          9.1
    -15.648300   -15.619473    -1.375099    -0.850329    -0.606543    -0.557499    -0.538658     0.146436     0.178964


 HOMO      8.1    -0.386593 =     -10.5197eV
 LUMO     -8.1     0.146436 =       3.9847eV
 LUMO-HOMO         0.533028 =      14.5044eV

 Orbitals saved in record  2200.2

 Occupation number threshold for pseudo-canonical orbitals: 1.9990 (occupied), 0.0010 (virtual)

 Number of pseudo-canonical occupied orbitals per symmetry:    4
 Number of active natural orbitals per symmetry:               7

 Natural orbitals saved to record    2200.2 (Orbital set 3)

 Orbital spaces for UNO-CAS (Min. occupation: 0.020  Max. occupation: 1.980):

 Closed:        6
 Active:        3


 **********************************************************************************************************************************
 DATASETS  * FILE   NREC   LENGTH (MB)   RECORD NAMES
              1      19       29.01       500      610      700      900      950      970     1000      129      960     1100   
                                          VAR    BASINP    GEOM    SYMINP    ZMAT    AOBASIS   BASIS     P2S    ABASIS      S 
                                         1400     1410     1200     1210     1080     1600     1650     1300     1700   
                                           T        V       H0       H01     AOSYM     SMH    MOLCAS    ERIS     OPER   

              2       4        0.46       700     1000      520     2200   
                                         GEOM     BASIS   MCVARS     UHF  

              4       3        0.25      2900     3000     3100   

 PROGRAMS   *        TOTAL   UHF-SCF       INT
 CPU TIMES  *         0.20      0.03      0.09
 REAL TIME  *         0.96 SEC
 DISK USED  *        33.57 MB
 **********************************************************************************************************************************

 Dump information in style XML to xml output                                                                      

 Orbitals will not be exported.

 **********************************************************************************************************************************

 UHF/cc-pVDZ energy=   -109.438096662518

         UHF-SCF
   -109.43809666
 **********************************************************************************************************************************
 Molpro calculation terminated
