
 Working directory              : /var/folders/2v/xbgp75_9785319ghcgb4zr4r0000gp/T//molpro.5PkthpPj8q/
 Global scratch directory       : /var/folders/2v/xbgp75_9785319ghcgb4zr4r0000gp/T//molpro.5PkthpPj8q/
 Wavefunction directory         : /Users/sacpjk/wfu/
 Main file repository           : /var/folders/2v/xbgp75_9785319ghcgb4zr4r0000gp/T//molpro.5PkthpPj8q/

 id        : peterk

 Nodes                        nprocs
 Cardiff-University-G34YLXT77Y    1
 GA implementation: MPI file
 GA implementation (serial work in mppx): MPI file

 Using customized tuning parameters: mindgm=1; mindgv=20; mindgc=4; mindgr=1; noblas=0; minvec=7
 default implementation of scratch files=df  


 Variables initialized (1032), CPU time= 0.00 sec
 
 symmetry,nosym
 
 
 geometry={
            6
     F          0.00000000      0.00000000     -1.99680889
     C          0.00000000      0.00000000      0.05274751
     H         -0.53104260      0.91979276     -0.07385286
     H         -0.53104260     -0.91979276     -0.07385286
     H          1.06208520      0.00000000     -0.07385286
     CL         0.00000000      0.00000000      2.16561997
 }
 basis=cc-pVDZ
 
 charge=-1
 
 hf; hf; papt; mp2
 
 
 
 {put,xml;noorbitals,nobasis}
 Commands initialized (841), CPU time= 0.00 sec, 704 directives.
 Default parameters read. Elapsed time= 0.87 sec

 Checking input...
 Passed
1


                                         ***  PROGRAM SYSTEM MOLPRO  ***
                                       Copyright, TTI GmbH Stuttgart, 2015
                                    Version 2023.1 linked Tue Jun  6 09:54:11 2023


 **********************************************************************************************************************************
 LABEL *                                                                                                                                                                 
  64 bit serial version                                                                  DATE: 09-Jun-23          TIME: 16:04:18  
 **********************************************************************************************************************************

 SHA1:             8ebb0dd001088a5c915591db1a321413035db0b1
 **********************************************************************************************************************************

 Memory per process:       805 MW
 Total memory per node:   1074 MW
 Total GA space:           268 MW

 GA preallocation disabled
 GA check enabled

 Variable memory set to 805.3 MW

 ZSYMEL=NOSYM


 Geometry recognized as XYZ

 SETTING BASIS          =    CC-PVDZ
 SETTING CHARGE         =        -1.00000000                                  


 Recomputing integrals since basis changed


 Using spherical harmonics

 Library entry F      S cc-pVDZ              selected for orbital group  1
 Library entry F      P cc-pVDZ              selected for orbital group  1
 Library entry F      D cc-pVDZ              selected for orbital group  1
 Library entry C      S cc-pVDZ              selected for orbital group  2
 Library entry C      P cc-pVDZ              selected for orbital group  2
 Library entry C      D cc-pVDZ              selected for orbital group  2
 Library entry H      S cc-pVDZ              selected for orbital group  3
 Library entry H      P cc-pVDZ              selected for orbital group  3
 Library entry CL     S cc-pVDZ              selected for orbital group  4
 Library entry CL     P cc-pVDZ              selected for orbital group  4
 Library entry CL     D cc-pVDZ              selected for orbital group  4


 PROGRAM * SEWARD (Integral evaluation for generally contracted gaussian basis sets)     Author: Roland Lindh, 1990

 Geometry written to block  1 of record 700


 Point group  C1  



 ATOMIC COORDINATES

 NR  ATOM    CHARGE       X              Y              Z

   1  F       9.00    0.000000000    0.000000000   -3.773421925
   2  C       6.00    0.000000000    0.000000000    0.099678348
   3  H       1.00   -1.003525075    1.738156408   -0.139561679
   4  H       1.00   -1.003525075   -1.738156408   -0.139561679
   5  H       1.00    2.007050149    0.000000000   -0.139561679
   6  CL     17.00    0.000000000    0.000000000    4.092428633

 Bond lengths in Bohr (Angstrom)

 2-3  2.021258535  2-4  2.021258535  2-5  2.021258541  2-6  3.992750286
     ( 1.069603954)     ( 1.069603954)     ( 1.069603957)     ( 2.112872460)

 Bond angles

  3-2-4  118.61917631   3-2-5  118.61917664   3-2-6   96.79757334   4-2-5  118.61917664

  4-2-6   96.79757334   5-2-6   96.79757331

 NUCLEAR CHARGE:                   35
 NUMBER OF PRIMITIVE AOS:         117
 NUMBER OF SYMMETRY AOS:          114
 NUMBER OF CONTRACTIONS:           61   (   61A   )
 NUMBER OF INNER CORE ORBITALS:     1   (    1A   )
 NUMBER OF OUTER CORE ORBITALS:     6   (    6A   )
 NUMBER OF VALENCE ORBITALS:       15   (   15A   )


 NUCLEAR REPULSION ENERGY   86.10071454


 Eigenvalues of metric

         1 0.103E-01 0.165E-01 0.339E-01 0.339E-01 0.362E-01 0.415E-01 0.507E-01 0.507E-01


 Contracted 2-electron integrals neglected if value below      1.0D-11
 AO integral compression algorithm  1   Integral accuracy      1.0D-11

     6.029 MB (compressed) written to integral file ( 34.2%)


 NUMBER OF SORTED TWO-ELECTRON INTEGRALS:    1788886.     BUFFER LENGTH:  32768
 NUMBER OF SEGMENTS:   1  SEGMENT LENGTH:    1788886      RECORD LENGTH: 524288

 Memory used in sort:       2.35 MW

 SORT1 READ     2223908. AND WROTE     1152953. INTEGRALS IN      4 RECORDS. CPU TIME:     0.01 SEC, REAL TIME:     0.02 SEC
 SORT2 READ     1152953. AND WROTE     1788886. INTEGRALS IN     23 RECORDS. CPU TIME:     0.03 SEC, REAL TIME:     0.04 SEC

 FILE SIZES:   FILE 1:    36.2 MBYTE,  FILE 4:    16.8 MBYTE,   TOTAL:     53.1 MBYTE

 OPERATOR DM      FOR CENTER  0  COORDINATES:    0.000000    0.000000    0.000000


 **********************************************************************************************************************************
 DATASETS  * FILE   NREC   LENGTH (MB)   RECORD NAMES
              1      19       33.42       500      610      700      900      950      970     1000      129      960     1100   
                                          VAR    BASINP    GEOM    SYMINP    ZMAT    AOBASIS   BASIS     P2S    ABASIS      S 
                                         1400     1410     1200     1210     1080     1600     1650     1300     1700   
                                           T        V       H0       H01     AOSYM     SMH    MOLCAS    ERIS     OPER   

 PROGRAMS   *        TOTAL       INT
 CPU TIMES  *         0.31      0.22
 REAL TIME  *         2.28 SEC
 DISK USED  *        51.04 MB
 **********************************************************************************************************************************


 Program * Restricted Hartree-Fock

 Orbital guess generated from atomic densities. Full valence occupancy:   22

 Initial occupancy:  18

 NELEC=   36   SYM=1   MS2= 0   THRE=1.0D-08   THRD=3.2D-06   THRG=3.2D-06  HFMA2=F  DIIS_START=2   DIIS_MAX=10   DIIS_INCORE=F

 Level shifts:    0.00 (CLOSED)    0.00 (OPEN)    0.30 (GAP_MIN)

 ITER           ETOT              DE          GRAD        DDIFF     DIIS  NEXP   TIME(IT)  TIME(TOT)  DIAG
   1     -598.44215079    -598.44215079     0.00D+00     0.19D+00     0     0       0.01      0.02    start
   2     -598.49773021      -0.05557941     0.12D-01     0.28D-01     1     0       0.01      0.03    diag
   3     -598.52660539      -0.02887519     0.76D-02     0.94D-02     2     0       0.01      0.04    diag
   4     -598.52760215      -0.00099676     0.73D-03     0.25D-02     3     0       0.01      0.05    diag
   5     -598.52770744      -0.00010529     0.22D-03     0.92D-03     4     0       0.00      0.05    diag
   6     -598.52771811      -0.00001067     0.62D-04     0.26D-03     5     0       0.01      0.06    diag
   7     -598.52771877      -0.00000066     0.17D-04     0.76D-04     6     0       0.01      0.07    diag
   8     -598.52771879      -0.00000002     0.37D-05     0.13D-04     7     0       0.01      0.08    fixocc
   9     -598.52771879      -0.00000000     0.93D-06     0.28D-05     8     0       0.01      0.09    diag
  10     -598.52771879      -0.00000000     0.26D-06     0.73D-06     0     0       0.01      0.10    diag/orth

 Final occupancy:  18

 !RHF STATE 1.1 Energy               -598.527718794875
  RHF One-electron energy           -1008.836167138545
  RHF Two-electron energy             324.207733799835
  RHF Kinetic energy                  598.615323353855
  RHF Nuclear energy                   86.100714543835
  RHF Virial quotient                  -0.999853654667

 !RHF STATE 1.1 Dipole moment           0.00000000     0.00000000     0.28975206
 Dipole moment /Debye                   0.00000000     0.00000000     0.73647627

 Orbital energies:

           1.1          2.1          3.1          4.1          5.1          6.1          7.1          8.1          9.1         10.1
   -104.582710   -25.863523   -11.138571   -10.308194    -7.775055    -7.773339    -7.773339    -1.129722    -0.861744    -0.733860

          11.1         12.1         13.1         14.1         15.1         16.1         17.1         18.1         19.1         20.1
     -0.440474    -0.440474    -0.292876    -0.234639    -0.234639    -0.220898    -0.220898    -0.185387     0.351788     0.389101


 HOMO     18.1    -0.185387 =      -5.0446eV
 LUMO     19.1     0.351788 =       9.5726eV
 LUMO-HOMO         0.537175 =      14.6173eV

 Orbitals saved in record  2100.2


 **********************************************************************************************************************************
 DATASETS  * FILE   NREC   LENGTH (MB)   RECORD NAMES
              1      19       33.42       500      610      700      900      950      970     1000      129      960     1100   
                                          VAR    BASINP    GEOM    SYMINP    ZMAT    AOBASIS   BASIS     P2S    ABASIS      S 
                                         1400     1410     1200     1210     1080     1600     1650     1300     1700   
                                           T        V       H0       H01     AOSYM     SMH    MOLCAS    ERIS     OPER   

              2       4        0.52       700     1000      520     2100   
                                         GEOM     BASIS   MCVARS     RHF  

 PROGRAMS   *        TOTAL    HF-SCF       INT
 CPU TIMES  *         0.41      0.10      0.22
 REAL TIME  *         2.93 SEC
 DISK USED  *        51.04 MB
 **********************************************************************************************************************************


 Program * Restricted Hartree-Fock

 Molecular orbitals read from record     2100.2  Type=RHF/CANONICAL  

 Initial occupancy:  18

 NELEC=   36   SYM=1   MS2= 0   THRE=1.0D-08   THRD=3.2D-06   THRG=3.2D-06  HFMA2=F  DIIS_START=2   DIIS_MAX=10   DIIS_INCORE=F

 Level shifts:    0.00 (CLOSED)    0.00 (OPEN)    0.30 (GAP_MIN)

 ITER           ETOT              DE          GRAD        DDIFF     DIIS  NEXP   TIME(IT)  TIME(TOT)  DIAG
   1     -598.52771879    -598.52771879     0.00D+00     0.18D+00     0     0       0.01      0.01    start
   2     -598.52771879      -0.00000000     0.11D-06     0.25D-06     1     0       0.01      0.02    diag

 Final occupancy:  18

 !RHF STATE 1.1 Energy               -598.527718794890
  RHF One-electron energy           -1008.836168746313
  RHF Two-electron energy             324.207735407588
  RHF Kinetic energy                  598.615316855443
  RHF Nuclear energy                   86.100714543835
  RHF Virial quotient                  -0.999853665521

 !RHF STATE 1.1 Dipole moment           0.00000000     0.00000000     0.28974816
 Dipole moment /Debye                   0.00000000     0.00000000     0.73646635

 Orbital energies:

           1.1          2.1          3.1          4.1          5.1          6.1          7.1          8.1          9.1         10.1
   -104.582709   -25.863522   -11.138578   -10.308192    -7.775054    -7.773338    -7.773338    -1.129722    -0.861745    -0.733861

          11.1         12.1         13.1         14.1         15.1         16.1         17.1         18.1         19.1         20.1
     -0.440476    -0.440476    -0.292877    -0.234639    -0.234639    -0.220898    -0.220898    -0.185387     0.351787     0.389100


 HOMO     18.1    -0.185387 =      -5.0446eV
 LUMO     19.1     0.351787 =       9.5726eV
 LUMO-HOMO         0.537174 =      14.6172eV

 Orbitals saved in record  2101.2


 **********************************************************************************************************************************
 DATASETS  * FILE   NREC   LENGTH (MB)   RECORD NAMES
              1      19       33.42       500      610      700      900      950      970     1000      129      960     1100   
                                          VAR    BASINP    GEOM    SYMINP    ZMAT    AOBASIS   BASIS     P2S    ABASIS      S 
                                         1400     1410     1200     1210     1080     1600     1650     1300     1700   
                                           T        V       H0       H01     AOSYM     SMH    MOLCAS    ERIS     OPER   

              2       5        0.72       700     1000      520     2100     2101   
                                         GEOM     BASIS   MCVARS     RHF      RHF  

 PROGRAMS   *        TOTAL    HF-SCF    HF-SCF       INT
 CPU TIMES  *         0.44      0.02      0.10      0.22
 REAL TIME  *         3.13 SEC
 DISK USED  *        51.04 MB
 **********************************************************************************************************************************


 PROGRAM * PAPT (Closed-shell)     Authors: C. Hampel, H.-J. Werner, 1991, P.J. Knowles, 2021


 Convergence thresholds:  THRVAR = 1.00D-08  THRDEN = 1.00D-06

 Number of core orbitals:           7 (   7 )
 Number of closed-shell orbitals:  11 (  11 )
 Number of external orbitals:      43 (  43 )

 Molecular orbitals read from record     2101.2  Type=RHF/CANONICAL  

 Number of N-1 electron functions:              11
 Number of N-2 electron functions:              66
 Number of singly external CSFs:               473
 Number of doubly external CSFs:            112101
 Total number of CSFs:                      112575

 Length of J-op  integral file:               0.00 MB
 Length of K-op  integral file:               0.32 MB

 Integral transformation finished. Total CPU:   0.02 sec, npass=  1  Memory used:   0.53 MW

 Reference energy:                   -598.52771879

                        CORR.ENERGY   TOTAL ENERGY   ENERGY CHANGE
 MP2:                   -0.47814490  -599.00586369    -0.47814490

 SCS-MP2 correlation energy:           -0.46916401   (PS=  1.200000  PT=  0.333333)
 SCS-MP2 total energy:               -598.99688280
 Iteration:   1     0.3404D+00
 Iteration:   2     0.1423D+01
 Iteration:   3     0.2804D+00
 Iteration:   4     0.2539D+00
 Iteration:   5     0.3673D+00
 Iteration:   6     0.1060D+00
 Iteration:   7     0.3119D+00
 Iteration:   8     0.8615D-01
 Iteration:   9     0.8634D-01
 Iteration:  10     0.5493D-01
 Iteration:  11     0.1773D-01
 Iteration:  12     0.1144D+00
 Iteration:  13     0.6446D-02
 Iteration:  14     0.8856D-02
 Iteration:  15     0.4486D-02
 Iteration:  16     0.2349D-02
 Iteration:  17     0.5399D-02
 Iteration:  18     0.8473D-03
 Iteration:  19     0.2686D-02
 Iteration:  20     0.4129D-03
 Iteration:  21     0.2258D-03
 Iteration:  22     0.2331D-03
 Iteration:  23     0.6800D-04
 PAPT operator written to  7000.1
 PAPT orbitals and eigenvalues written to  7000.2

 MP3(D):                -0.50221264  -599.02993144    -0.02406775



 RESULTS
 =======

  Reference energy                   -598.527718794890
  MP3 singlet pair energy              -0.330660085884
  MP3 triplet pair energy              -0.171552555901
  MP3 correlation energy               -0.502212641785

 !MP3 total energy                   -599.029931436675

 Timing summary (sec):

 STEP                 CPU(USER)    SYS     CPU(TOT)    WALL
 Transformation          0.02      0.01      0.03      0.07
 CCSD iterations         0.98      0.04      1.02      0.85

 Program statistics:

 Available memory in ccsd:               805305866
 Min. memory needed in ccsd:                363005
 Max. memory used in ccsd:                  444581
 Max. memory used in cckext:                562262 ( 1 integral passes)



 **********************************************************************************************************************************
 DATASETS  * FILE   NREC   LENGTH (MB)   RECORD NAMES
              1      21       36.32       500      610      700      900      950      970     1000      129      960     1100   
                                          VAR    BASINP    GEOM    SYMINP    ZMAT    AOBASIS   BASIS     P2S    ABASIS      S 
                                         1400     1410     1200     1210     1080     1600     1650     1300     1700     1380   
                                           T        V       H0       H01     AOSYM     SMH    MOLCAS    ERIS     OPER     JKOP   
                                         7000   
                                        PAPT AO    

              2       6        0.91       700     1000      520     2100     2101     7000   
                                         GEOM     BASIS   MCVARS     RHF      RHF     PAPT   

 PROGRAMS   *        TOTAL      PAPT    HF-SCF    HF-SCF       INT
 CPU TIMES  *         0.89      0.46      0.02      0.10      0.22
 REAL TIME  *         4.17 SEC
 DISK USED  *        51.04 MB
 **********************************************************************************************************************************


 PROGRAM * MP2 (Closed-shell)     Authors: C. Hampel, H.-J. Werner, 1991, M. Deegan, P.J. Knowles, 1992


 Convergence thresholds:  THRVAR = 1.00D-08  THRDEN = 1.00D-06

 Number of core orbitals:           7 (   7 )
 Number of closed-shell orbitals:  11 (  11 )
 Number of external orbitals:      43 (  43 )

 Molecular orbitals read from record     7000.2  Type=PAPT/CANONICAL (state 1.1)

 Number of N-1 electron functions:              11
 Number of N-2 electron functions:              66
 Number of singly external CSFs:               473
 Number of doubly external CSFs:            112101
 Total number of CSFs:                      112575

 Length of J-op  integral file:               0.00 MB
 Length of K-op  integral file:               0.32 MB

 Integral transformation finished. Total CPU:   0.02 sec, npass=  1  Memory used:   0.53 MW
 Orbital energies read from record       7000.2  Type=PAPT/CANONICAL (state 1.1)

 Memory needed for MP2:                      0.02 MW

 SCS-MP2 correlation energy:           -0.500355862621   (PS=  1.200000  PT=  0.333333)
 SCS-MP2 total energy:               -599.028074657511


  Reference energy                   -598.527718794890
  MP2 singlet pair energy              -0.319305934235
  MP2 triplet pair energy              -0.188339048902
  MP2 correlation energy               -0.507644983137

 !MP2 total energy                   -599.035363778027


 **********************************************************************************************************************************
 DATASETS  * FILE   NREC   LENGTH (MB)   RECORD NAMES
              1      21       36.32       500      610      700      900      950      970     1000      129      960     1100   
                                          VAR    BASINP    GEOM    SYMINP    ZMAT    AOBASIS   BASIS     P2S    ABASIS      S 
                                         1400     1410     1200     1210     1080     1600     1650     1300     1700     1380   
                                           T        V       H0       H01     AOSYM     SMH    MOLCAS    ERIS     OPER     JKOP   
                                         7000   
                                        PAPT AO    

              2       6        0.91       700     1000      520     2100     2101     7000   
                                         GEOM     BASIS   MCVARS     RHF      RHF     PAPT   

 PROGRAMS   *        TOTAL       MP2      PAPT    HF-SCF    HF-SCF       INT
 CPU TIMES  *         0.97      0.07      0.46      0.02      0.10      0.22
 REAL TIME  *         4.67 SEC
 DISK USED  *        51.04 MB
 **********************************************************************************************************************************

 Dump information in style XML to xml output                                                                      

 Orbitals will not be exported.

 **********************************************************************************************************************************

 MP2/cc-pVDZ energy=   -599.035363778027

             MP2            PAPT          HF-SCF          HF-SCF
   -599.03536378   -599.02993144   -598.52771879   -598.52771879
 **********************************************************************************************************************************
 Molpro calculation terminated
