
 Working directory              : /tmp/peterk/molpro.UXI0c6dzfG/
 Global scratch directory       : /tmp/peterk/molpro.UXI0c6dzfG/
 Wavefunction directory         : /home/peterk/wfu/
 Main file repository           : /tmp/peterk/molpro.UXI0c6dzfG/

 id        : peterk

 Nodes     nprocs
 marat        1
 GA implementation: MPI file
 GA implementation (serial work in mppx): MPI file

 Using customized tuning parameters: mindgm=1; mindgv=20; mindgc=4; mindgr=1; noblas=0; minvec=7
 default implementation of scratch files=df  


 Variables initialized (1032), CPU time= 0.00 sec
 
 core,small
 angstrom
 
 geometry={
 F;F,F,1.41134168
 }
 basis=cc-pCVTZ
 
 
 
 hf; ccsd(t)
 
 
 
 {put,xml;noorbitals,nobasis}
 Commands initialized (841), CPU time= 0.00 sec, 708 directives.
 Default parameters read. Elapsed time= 0.04 sec

 Checking input...
 Passed
1


                                         ***  PROGRAM SYSTEM MOLPRO  ***
                                       Copyright, TTI GmbH Stuttgart, 2015
                                    Version 2023.1 linked Sat Jun 10 08:01:27 2023


 **********************************************************************************************************************************
 LABEL *                                                                                                                                                                 
  (16 PROC) 64 bit serial version                                                        DATE: 12-Jun-23          TIME: 10:32:30  
 **********************************************************************************************************************************

 SHA1:             8376d659ba1296ca7ee514c57770fe2c96af278c
 **********************************************************************************************************************************

 Memory per process:      1074 MW
 Total memory per node:   1074 MW

 GA preallocation disabled
 GA check disabled

 Variable memory set to 1073.7 MW

 ZUNIT=ANG

 SETTING BASIS          =    CC-PCVTZ


 Recomputing integrals since basis changed


 Using spherical harmonics

 Library entry F      S cc-pCVTZ             selected for orbital group  1
 Library entry F      P cc-pCVTZ             selected for orbital group  1
 Library entry F      D cc-pCVTZ             selected for orbital group  1
 Library entry F      F cc-pCVTZ             selected for orbital group  1


 PROGRAM * SEWARD (Integral evaluation for generally contracted gaussian basis sets)     Author: Roland Lindh, 1990

 Geometry written to block  1 of record 700

 Orientation using atomic masses  
 Molecule type: Linear
 Symmetry elements: X,Y,Z
 Rotational constants:      26.7094998     26.7094998      0.0000000 GHz  (calculated with average atomic masses)

 Point group  D2h 



 ATOMIC COORDINATES

 NR  ATOM    CHARGE       X              Y              Z

   1  F       9.00    0.000000000    0.000000000   -1.333524622
   2  F       9.00    0.000000000    0.000000000    1.333524622

 Bond lengths in Bohr (Angstrom)

 1-2  2.667049243
     ( 1.411341680)

 NUCLEAR CHARGE:                   18
 NUMBER OF PRIMITIVE AOS:         122
 NUMBER OF SYMMETRY AOS:          110
 NUMBER OF CONTRACTIONS:           86   (   19Ag  +   10B3u +   10B2u +    4B1g +   19B1u +   10B2g +   10B3g +    4Au  )
 NUMBER OF INNER CORE ORBITALS:     0   (    0Ag  +    0B3u +    0B2u +    0B1g +    0B1u +    0B2g +    0B3g +    0Au  )
 NUMBER OF OUTER CORE ORBITALS:     2   (    1Ag  +    0B3u +    0B2u +    0B1g +    1B1u +    0B2g +    0B3g +    0Au  )
 NUMBER OF VALENCE ORBITALS:        8   (    2Ag  +    1B3u +    1B2u +    0B1g +    2B1u +    1B2g +    1B3g +    0Au  )


 NUCLEAR REPULSION ENERGY   30.37064284

 EXTRA SYMMETRY OF AOS IN SYMMETRY 1:   1 1 1 1 1 1 1 1 1 1   1 1 2 1 2 1 2 1 2
 EXTRA SYMMETRY OF AOS IN SYMMETRY 2:   1 1 1 1 1 1 1 1 1 2
 EXTRA SYMMETRY OF AOS IN SYMMETRY 3:   1 1 1 1 1 1 1 1 1 2
 EXTRA SYMMETRY OF AOS IN SYMMETRY 5:   1 1 1 1 1 1 1 1 1 1   1 1 2 1 2 1 2 1 2
 EXTRA SYMMETRY OF AOS IN SYMMETRY 6:   1 1 1 1 1 1 1 1 1 2
 EXTRA SYMMETRY OF AOS IN SYMMETRY 7:   1 1 1 1 1 1 1 1 1 2

 Eigenvalues of metric

         1 0.769E-02 0.170E-01 0.300E-01 0.893E-01 0.271E+00 0.419E+00 0.445E+00 0.454E+00
         2 0.299E-01 0.368E+00 0.473E+00 0.511E+00 0.983E+00 0.100E+01 0.108E+01 0.157E+01
         3 0.299E-01 0.368E+00 0.473E+00 0.511E+00 0.983E+00 0.100E+01 0.108E+01 0.157E+01
         4 0.454E+00 0.972E+00 0.102E+01 0.162E+01
         5 0.485E-02 0.135E-01 0.217E-01 0.447E-01 0.115E+00 0.280E+00 0.411E+00 0.425E+00
         6 0.293E-01 0.230E+00 0.358E+00 0.428E+00 0.864E+00 0.978E+00 0.999E+00 0.145E+01
         7 0.293E-01 0.230E+00 0.358E+00 0.428E+00 0.864E+00 0.978E+00 0.999E+00 0.145E+01
         8 0.425E+00 0.949E+00 0.990E+00 0.157E+01


 Contracted 2-electron integrals neglected if value below      1.0D-11
 AO integral compression algorithm  1   Integral accuracy      1.0D-11

     8.126 MB (compressed) written to integral file ( 50.8%)


 NUMBER OF SORTED TWO-ELECTRON INTEGRALS:     948338.     BUFFER LENGTH:  32768
 NUMBER OF SEGMENTS:   1  SEGMENT LENGTH:     948338      RECORD LENGTH: 524288

 Memory used in sort:       1.51 MW

 SORT1 READ     1963088. AND WROTE      807348. INTEGRALS IN      3 RECORDS. CPU TIME:     0.03 SEC, REAL TIME:     0.03 SEC
 SORT2 READ      807348. AND WROTE      948338. INTEGRALS IN     31 RECORDS. CPU TIME:     0.06 SEC, REAL TIME:     0.06 SEC

 FILE SIZES:   FILE 1:    38.3 MBYTE,  FILE 4:    12.6 MBYTE,   TOTAL:     51.0 MBYTE

 OPERATOR DM      FOR CENTER  0  COORDINATES:    0.000000    0.000000    0.000000


 **********************************************************************************************************************************
 DATASETS  * FILE   NREC   LENGTH (MB)   RECORD NAMES
              1      19       32.51       500      610      700      900      950      970     1000      129      960     1100   
                                          VAR    BASINP    GEOM    SYMINP    ZMAT    AOBASIS   BASIS     P2S    ABASIS      S 
                                         1400     1410     1200     1210     1080     1600     1650     1300     1700   
                                           T        V       H0       H01     AOSYM     SMH    MOLCAS    ERIS     OPER   

 PROGRAMS   *        TOTAL       INT
 CPU TIMES  *         0.68      0.59
 REAL TIME  *         1.35 SEC
 DISK USED  *        48.94 MB
 **********************************************************************************************************************************


 Program * Restricted Hartree-Fock

 Orbital guess generated from atomic densities. Full valence occupancy:    3   1   1   0   3   1   1   0


 Initial occupancy:   3   1   1   0   2   1   1   0

 NELEC=   18   SYM=1   MS2= 0   THRE=1.0D-08   THRD=3.2D-06   THRG=3.2D-06  HFMA2=F  DIIS_START=2   DIIS_MAX=10   DIIS_INCORE=F

 Level shifts:    0.00 (CLOSED)    0.00 (OPEN)    0.30 (GAP_MIN)

 ITER           ETOT              DE          GRAD        DDIFF     DIIS  NEXP   TIME(IT)  TIME(TOT)  DIAG
   1     -198.72671053    -198.72671053     0.00D+00     0.23D+00     0     0       0.01      0.01    start
   2     -198.75025674      -0.02354622     0.20D-01     0.15D-01     1     0       0.00      0.01    diag
   3     -198.75259862      -0.00234187     0.70D-02     0.45D-02     2     0       0.00      0.01    diag
   4     -198.75269427      -0.00009565     0.10D-02     0.10D-02     3     0       0.00      0.01    diag
   5     -198.75270043      -0.00000617     0.25D-03     0.23D-03     4     0       0.01      0.02    diag
   6     -198.75270068      -0.00000024     0.48D-04     0.41D-04     5     0       0.00      0.02    diag
   7     -198.75270068      -0.00000000     0.80D-05     0.60D-05     6     0       0.00      0.02    diag
   8     -198.75270068      -0.00000000     0.50D-06     0.52D-06     7     0       0.00      0.02    fixocc
   9     -198.75270068      -0.00000000     0.64D-07     0.54D-07     0     0       0.00      0.02    diag

 Final occupancy:   3   1   1   0   2   1   1   0

 !RHF STATE 1.1 Energy               -198.752700681339
  RHF One-electron energy            -338.619033986088
  RHF Two-electron energy             109.495690468535
  RHF Kinetic energy                  198.567169165939
  RHF Nuclear energy                   30.370642836215
  RHF Virial quotient                  -1.000934351415

 !RHF STATE 1.1 Dipole moment           0.00000000     0.00000000     0.00000000
 Dipole moment /Debye                   0.00000000     0.00000000     0.00000000

 Orbital energies:

           1.1          2.1          3.1          4.1          5.1
    -26.427506    -1.764356    -0.750053     0.919329     1.044396

           1.2          2.2          3.2
     -0.809285     0.865620     1.880979

           1.3          2.3          3.3
     -0.809285     0.865620     1.880979

           1.4          2.4
      2.086772     7.149448

           1.5          2.5          3.5          4.5
    -26.427268    -1.496862     0.094688     0.834654

           1.6          2.6          3.6
     -0.664605     0.996241     2.816423

           1.7          2.7          3.7
     -0.664605     0.996241     2.816423

           1.8          2.8
      2.319568     7.431637


 HOMO      1.7    -0.664605 =     -18.0848eV
 LUMO      3.5     0.094688 =       2.5766eV
 LUMO-HOMO         0.759293 =      20.6614eV

 Orbitals saved in record  2100.2


 **********************************************************************************************************************************
 DATASETS  * FILE   NREC   LENGTH (MB)   RECORD NAMES
              1      19       32.51       500      610      700      900      950      970     1000      129      960     1100   
                                          VAR    BASINP    GEOM    SYMINP    ZMAT    AOBASIS   BASIS     P2S    ABASIS      S 
                                         1400     1410     1200     1210     1080     1600     1650     1300     1700   
                                           T        V       H0       H01     AOSYM     SMH    MOLCAS    ERIS     OPER   

              2       4        0.41       700     1000      520     2100   
                                         GEOM     BASIS   MCVARS     RHF  

 PROGRAMS   *        TOTAL    HF-SCF       INT
 CPU TIMES  *         0.70      0.02      0.59
 REAL TIME  *         1.38 SEC
 DISK USED  *        48.94 MB
 **********************************************************************************************************************************


 PROGRAM * CCSD (Closed-shell coupled cluster)     Authors: C. Hampel, H.-J. Werner, 1991, M. Deegan, P.J. Knowles, 1992


 CORETYPE=SMALL

 Convergence thresholds:  THRVAR = 1.00D-08  THRDEN = 1.00D-06

 CCSD(T)     terms to be evaluated (factor= 1.000)


 Number of closed-shell orbitals:   9 (   3   1   1   0   2   1   1   0 )
 Number of external orbitals:      77 (  16   9   9   4  17   9   9   4 )

 Molecular orbitals read from record     2100.2  Type=RHF/CANONICAL  

 Number of N-1 electron functions:               9
 Number of N-2 electron functions:              45
 Number of singly external CSFs:               118
 Number of doubly external CSFs:             32317
 Total number of CSFs:                       32436

 Length of J-op  integral file:               0.00 MB
 Length of K-op  integral file:               0.14 MB
 Length of 3-ext integral record:             0.00 MB

 Memory could be reduced to 0.83 Mwords without degradation in triples

 Integral transformation finished. Total CPU:   0.02 sec, npass=  1  Memory used:   0.31 MW

 Reference energy:                   -198.75270068

 MP2 singlet pair energy:              -0.41843345
 MP2 triplet pair energy:              -0.22413923
 MP2 correlation energy:               -0.64257267
 MP2 total energy:                   -199.39527336

 SCS-MP2 correlation energy:           -0.64158455   (PS=  1.200000  PT=  0.333333)
 SCS-MP2 total energy:               -199.39428523

 ITER.      SQ.NORM     CORR.ENERGY   TOTAL ENERGY   ENERGY CHANGE        DEN1      VAR(S)    VAR(P)  DIIS     TIME  TIME/IT
   1      1.10444266    -0.64665305  -199.39935373    -0.00408037     0.01200696  0.20D-02  0.23D-02  1  1     1.09     0.03
   2      1.11366282    -0.64673021  -199.39943089    -0.00007716    -0.01290054  0.39D-04  0.42D-03  2  2     1.11     0.03
   3      1.11767170    -0.64687904  -199.39957972    -0.00014883    -0.00219714  0.14D-04  0.41D-04  3  3     1.14     0.03
   4      1.11990516    -0.64688388  -199.39958456    -0.00000484    -0.00112191  0.17D-06  0.33D-05  4  4     1.16     0.03
   5      1.12028284    -0.64688945  -199.39959013    -0.00000557    -0.00011098  0.10D-06  0.50D-06  5  5     1.19     0.03
   6      1.12034905    -0.64689113  -199.39959181    -0.00000168     0.00000617  0.16D-08  0.12D-06  6  6     1.21     0.03
   7      1.12036121    -0.64689315  -199.39959384    -0.00000203    -0.00000246  0.14D-08  0.16D-07  6  2     1.24     0.03
   8      1.12036323    -0.64689167  -199.39959235     0.00000149     0.00000101  0.75D-09  0.11D-08  6  1     1.27     0.03
   9      1.12036410    -0.64689176  -199.39959244    -0.00000009    -0.00000105  0.12D-09  0.86D-10  6  3     1.30     0.03
  10      1.12036364    -0.64689180  -199.39959248    -0.00000004     0.00000066  0.56D-11  0.87D-11  6  4     1.31     0.03

 Norm of t1 vector:      0.05563517      S-energy:     0.00000012      T1 diagnostic:  0.00927253
                                                                       D1 diagnostic:  0.02939778
                                                                       D2 diagnostic:  0.21686815 (external, symmetry=5)

 Doubles amplitudes (print threshold =  0.500E-01):

         I         J         SYM. A    SYM. B    A         B      T(IJ, AB)

         3         3         5         5         1         1     -0.16650458


 Total CPU time for triples:      0.34 sec


 RESULTS
 =======

  Reference energy                   -198.752700681339

  Correlated core orbitals:             1.1       1.5
  Orbital energies:                   -26.4275  -26.4273

  CCSD core-core energy                -0.072484911191
  CCSD core-valence energy             -0.040183577115
  CCSD valence correlation energy      -0.534223313604

  CCSD singlet pair energy             -0.449051121699
  CCSD triplet pair energy             -0.197840799718
  CCSD correlation energy              -0.646891801910

  Triples (T) contribution             -0.019499353075
  Total correlation energy             -0.666391154986

  CCSD total energy                  -199.399592483249
  CCSD[T] energy                     -199.419826959702
  CCSD-T energy                      -199.418768846132
 !CCSD(T) total energy               -199.419091836325

 Timing summary (sec):

 STEP                 CPU(USER)    SYS     CPU(TOT)    WALL
 Transformation          0.02      0.00      0.02      0.02
 CCSD iterations         1.30      0.05      1.35      0.32
 Triples                 0.34      0.04      0.38      0.38

 Program statistics:

 Available memory in ccsd:              1073741497
 Min. memory needed in ccsd:                100847
 Max. memory used in ccsd:                  127540
 Max. memory used in cckext:                137638 (10 integral passes)



 **********************************************************************************************************************************
 DATASETS  * FILE   NREC   LENGTH (MB)   RECORD NAMES
              1      20       35.12       500      610      700      900      950      970     1000      129      960     1100   
                                          VAR    BASINP    GEOM    SYMINP    ZMAT    AOBASIS   BASIS     P2S    ABASIS      S 
                                         1400     1410     1200     1210     1080     1600     1650     1300     1700     1380   
                                           T        V       H0       H01     AOSYM     SMH    MOLCAS    ERIS     OPER     JKOP   

              2       4        0.41       700     1000      520     2100   
                                         GEOM     BASIS   MCVARS     RHF  

 PROGRAMS   *        TOTAL   CCSD(T)    HF-SCF       INT
 CPU TIMES  *         1.35      0.64      0.02      0.59
 REAL TIME  *         2.12 SEC
 DISK USED  *        48.94 MB
 **********************************************************************************************************************************

 Dump information in style XML to xml output                                                                      

 Orbitals will not be exported.

 **********************************************************************************************************************************

 CCSD(T)/cc-pCVTZ energy=   -199.419091836325

         CCSD(T)          HF-SCF
   -199.41909184   -198.75270068
 **********************************************************************************************************************************
 Molpro calculation terminated
