
 Working directory              : /var/folders/2v/xbgp75_9785319ghcgb4zr4r0000gp/T//molpro.MaDFhW7Qjc/
 Global scratch directory       : /var/folders/2v/xbgp75_9785319ghcgb4zr4r0000gp/T//molpro.MaDFhW7Qjc/
 Wavefunction directory         : /Users/sacpjk/wfu/
 Main file repository           : /var/folders/2v/xbgp75_9785319ghcgb4zr4r0000gp/T//molpro.MaDFhW7Qjc/

 id        : peterk

 Nodes                        nprocs
 Cardiff-University-G34YLXT77Y    1
 GA implementation: MPI file
 GA implementation (serial work in mppx): MPI file

 Using customized tuning parameters: mindgm=1; mindgv=20; mindgc=4; mindgr=1; noblas=0; minvec=7
 default implementation of scratch files=df  


 Variables initialized (1032), CPU time= 0.00 sec
 
 symmetry,nosym
 
 
 geometry={
            8
     N         -0.45451522      0.21870193      0.00000000
     N          0.37232336      0.19757915      1.17353971
     N          0.37232336      0.19757915     -1.17353971
     H          0.50266120     -0.75195487     -1.53082191
     H         -0.11089378      0.74253907     -1.88459933
     H          0.50266120     -0.75195487      1.53082191
     H         -0.11089378      0.74253907      1.88459933
     H         -1.07366634     -0.59502865      0.00000000
 }
 basis=cc-pVDZ
 
 
 
 hf; hf; papt; mp2
 
 
 
 {put,xml;noorbitals,nobasis}
 Commands initialized (841), CPU time= 0.01 sec, 704 directives.
 Default parameters read. Elapsed time= 1.69 sec

 Checking input...
 Passed
1


                                         ***  PROGRAM SYSTEM MOLPRO  ***
                                       Copyright, TTI GmbH Stuttgart, 2015
                                    Version 2023.1 linked Tue Jun  6 09:54:11 2023


 **********************************************************************************************************************************
 LABEL *                                                                                                                                                                 
  64 bit serial version                                                                  DATE: 13-Jun-23          TIME: 06:12:57  
 **********************************************************************************************************************************

 SHA1:             8ebb0dd001088a5c915591db1a321413035db0b1
 **********************************************************************************************************************************

 Memory per process:       393 MW
 Total memory per node:    524 MW
 Total GA space:           131 MW

 GA preallocation disabled
 GA check enabled

 Variable memory set to 393.2 MW

 ZSYMEL=NOSYM


 Geometry recognized as XYZ

 SETTING BASIS          =    CC-PVDZ


 Recomputing integrals since basis changed


 Using spherical harmonics

 Library entry N      S cc-pVDZ              selected for orbital group  1
 Library entry N      P cc-pVDZ              selected for orbital group  1
 Library entry N      D cc-pVDZ              selected for orbital group  1
 Library entry H      S cc-pVDZ              selected for orbital group  2
 Library entry H      P cc-pVDZ              selected for orbital group  2


 PROGRAM * SEWARD (Integral evaluation for generally contracted gaussian basis sets)     Author: Roland Lindh, 1990

 Geometry written to block  1 of record 700


 Point group  C1  



 ATOMIC COORDINATES

 NR  ATOM    CHARGE       X              Y              Z

   1  N       7.00   -0.858909285    0.413286751    0.000000000
   2  N       7.00    0.703589180    0.373370481    2.217668648
   3  N       7.00    0.703589180    0.373370481   -2.217668648
   4  H       1.00    0.949892001   -1.420988762   -2.892834155
   5  H       1.00   -0.209558873    1.403195479   -3.561376588
   6  H       1.00    0.949892001   -1.420988762    2.892834155
   7  H       1.00   -0.209558873    1.403195479    3.561376588
   8  H       1.00   -2.028935332   -1.124441185    0.000000000

 Bond lengths in Bohr (Angstrom)

 1-2  2.713125319  1-3  2.713125319  1-8  1.932244331  2-6  1.932935239  2-7  1.923520190
     ( 1.435724089)     ( 1.435724089)     ( 1.022499666)     ( 1.022865279)     ( 1.017883049)

 3-4  1.932935239  3-5  1.923520190
     ( 1.022865279)     ( 1.017883049)

 Bond angles

  1-2-6  111.87300371   1-2-7  106.84145892   1-3-4  111.87300371   1-3-5  106.84145892

  2-1-3  109.64779699   2-1-8  109.69522045   3-1-8  109.69522045   4-3-5  108.26957254

  6-2-7  108.26957254

 NUCLEAR CHARGE:                   26
 NUMBER OF PRIMITIVE AOS:         116
 NUMBER OF SYMMETRY AOS:          113
 NUMBER OF CONTRACTIONS:           67   (   67A   )
 NUMBER OF INNER CORE ORBITALS:     0   (    0A   )
 NUMBER OF OUTER CORE ORBITALS:     3   (    3A   )
 NUMBER OF VALENCE ORBITALS:       17   (   17A   )


 NUCLEAR REPULSION ENERGY   83.39245846


 Eigenvalues of metric

         1 0.543E-02 0.945E-02 0.218E-01 0.305E-01 0.341E-01 0.408E-01 0.421E-01 0.452E-01


 Contracted 2-electron integrals neglected if value below      1.0D-11
 AO integral compression algorithm  1   Integral accuracy      1.0D-11

     12.845 MB (compressed) written to integral file ( 52.8%)


 NUMBER OF SORTED TWO-ELECTRON INTEGRALS:    2595781.     BUFFER LENGTH:  32768
 NUMBER OF SEGMENTS:   1  SEGMENT LENGTH:    2595781      RECORD LENGTH: 524288

 Memory used in sort:       3.15 MW

 SORT1 READ     2997021. AND WROTE     2503568. INTEGRALS IN      8 RECORDS. CPU TIME:     0.02 SEC, REAL TIME:     0.02 SEC
 SORT2 READ     2503568. AND WROTE     2595781. INTEGRALS IN     49 RECORDS. CPU TIME:     0.04 SEC, REAL TIME:     0.04 SEC

 FILE SIZES:   FILE 1:    43.1 MBYTE,  FILE 4:    33.6 MBYTE,   TOTAL:     76.7 MBYTE

 OPERATOR DM      FOR CENTER  0  COORDINATES:    0.000000    0.000000    0.000000


 **********************************************************************************************************************************
 DATASETS  * FILE   NREC   LENGTH (MB)   RECORD NAMES
              1      19       39.28       500      610      700      900      950      970     1000      129      960     1100   
                                          VAR    BASINP    GEOM    SYMINP    ZMAT    AOBASIS   BASIS     P2S    ABASIS      S 
                                         1400     1410     1200     1210     1080     1600     1650     1300     1700   
                                           T        V       H0       H01     AOSYM     SMH    MOLCAS    ERIS     OPER   

 PROGRAMS   *        TOTAL       INT
 CPU TIMES  *         0.33      0.24
 REAL TIME  *         2.86 SEC
 DISK USED  *        73.63 MB
 **********************************************************************************************************************************


 Program * Restricted Hartree-Fock

 Orbital guess generated from atomic densities. Full valence occupancy:   20

 Initial occupancy:  13

 NELEC=   26   SYM=1   MS2= 0   THRE=1.0D-08   THRD=3.2D-06   THRG=3.2D-06  HFMA2=F  DIIS_START=2   DIIS_MAX=10   DIIS_INCORE=F

 Level shifts:    0.00 (CLOSED)    0.00 (OPEN)    0.30 (GAP_MIN)

 ITER           ETOT              DE          GRAD        DDIFF     DIIS  NEXP   TIME(IT)  TIME(TOT)  DIAG
   1     -166.13830299    -166.13830299     0.00D+00     0.14D+00     0     0       0.01      0.02    start
   2     -166.17643849      -0.03813550     0.74D-02     0.15D-01     1     0       0.01      0.03    diag
   3     -166.18013447      -0.00369598     0.25D-02     0.41D-02     2     0       0.01      0.04    diag
   4     -166.18067060      -0.00053613     0.81D-03     0.14D-02     3     0       0.02      0.06    diag
   5     -166.18071096      -0.00004035     0.20D-03     0.41D-03     4     0       0.01      0.07    diag
   6     -166.18071455      -0.00000359     0.47D-04     0.11D-03     5     0       0.01      0.08    diag
   7     -166.18071508      -0.00000053     0.19D-04     0.45D-04     6     0       0.01      0.09    diag
   8     -166.18071514      -0.00000007     0.52D-05     0.17D-04     7     0       0.01      0.10    fixocc
   9     -166.18071515      -0.00000000     0.12D-05     0.40D-05     8     0       0.01      0.11    diag
  10     -166.18071515      -0.00000000     0.25D-06     0.83D-06     9     0       0.02      0.13    diag/orth
  11     -166.18071515      -0.00000000     0.53D-07     0.10D-06     0     0       0.01      0.14    diag

 Final occupancy:  13

 !RHF STATE 1.1 Energy               -166.180715147786
  RHF One-electron energy            -391.402839502729
  RHF Two-electron energy             141.829665893177
  RHF Kinetic energy                  165.886453984837
  RHF Nuclear energy                   83.392458461767
  RHF Virial quotient                  -1.001773870957

 !RHF STATE 1.1 Dipole moment          -0.72376650    -0.93547278    -0.00000000
 Dipole moment /Debye                  -1.83963096    -2.37773465    -0.00000000

 Orbital energies:

           1.1          2.1          3.1          4.1          5.1          6.1          7.1          8.1          9.1         10.1
    -15.597781   -15.563086   -15.563065    -1.292624    -1.129535    -0.935107    -0.696631    -0.665360    -0.635218    -0.584970

          11.1         12.1         13.1         14.1         15.1
     -0.413055    -0.402504    -0.392820     0.174554     0.217714


 HOMO     13.1    -0.392820 =     -10.6892eV
 LUMO     14.1     0.174554 =       4.7499eV
 LUMO-HOMO         0.567374 =      15.4390eV

 Orbitals saved in record  2100.2


 **********************************************************************************************************************************
 DATASETS  * FILE   NREC   LENGTH (MB)   RECORD NAMES
              1      19       39.28       500      610      700      900      950      970     1000      129      960     1100   
                                          VAR    BASINP    GEOM    SYMINP    ZMAT    AOBASIS   BASIS     P2S    ABASIS      S 
                                         1400     1410     1200     1210     1080     1600     1650     1300     1700   
                                           T        V       H0       H01     AOSYM     SMH    MOLCAS    ERIS     OPER   

              2       4        0.57       700     1000      520     2100   
                                         GEOM     BASIS   MCVARS     RHF  

 PROGRAMS   *        TOTAL    HF-SCF       INT
 CPU TIMES  *         0.47      0.13      0.24
 REAL TIME  *         3.25 SEC
 DISK USED  *        73.63 MB
 **********************************************************************************************************************************


 Program * Restricted Hartree-Fock

 Molecular orbitals read from record     2100.2  Type=RHF/CANONICAL  

 Initial occupancy:  13

 NELEC=   26   SYM=1   MS2= 0   THRE=1.0D-08   THRD=3.2D-06   THRG=3.2D-06  HFMA2=F  DIIS_START=2   DIIS_MAX=10   DIIS_INCORE=F

 Level shifts:    0.00 (CLOSED)    0.00 (OPEN)    0.30 (GAP_MIN)

 ITER           ETOT              DE          GRAD        DDIFF     DIIS  NEXP   TIME(IT)  TIME(TOT)  DIAG
   1     -166.18071515    -166.18071515     0.00D+00     0.14D+00     0     0       0.01      0.01    start
   2     -166.18071515      -0.00000000     0.22D-07     0.45D-07     1     0       0.02      0.03    diag

 Final occupancy:  13

 !RHF STATE 1.1 Energy               -166.180715147787
  RHF One-electron energy            -391.402839847734
  RHF Two-electron energy             141.829666238180
  RHF Kinetic energy                  165.886453631760
  RHF Nuclear energy                   83.392458461767
  RHF Virial quotient                  -1.001773873090

 !RHF STATE 1.1 Dipole moment          -0.72376728    -0.93547301     0.00000000
 Dipole moment /Debye                  -1.83963292    -2.37773522     0.00000000

 Orbital energies:

           1.1          2.1          3.1          4.1          5.1          6.1          7.1          8.1          9.1         10.1
    -15.597781   -15.563086   -15.563065    -1.292624    -1.129535    -0.935107    -0.696631    -0.665360    -0.635218    -0.584970

          11.1         12.1         13.1         14.1         15.1
     -0.413055    -0.402504    -0.392820     0.174554     0.217714


 HOMO     13.1    -0.392820 =     -10.6892eV
 LUMO     14.1     0.174554 =       4.7499eV
 LUMO-HOMO         0.567374 =      15.4390eV

 Orbitals saved in record  2101.2


 **********************************************************************************************************************************
 DATASETS  * FILE   NREC   LENGTH (MB)   RECORD NAMES
              1      19       39.28       500      610      700      900      950      970     1000      129      960     1100   
                                          VAR    BASINP    GEOM    SYMINP    ZMAT    AOBASIS   BASIS     P2S    ABASIS      S 
                                         1400     1410     1200     1210     1080     1600     1650     1300     1700   
                                           T        V       H0       H01     AOSYM     SMH    MOLCAS    ERIS     OPER   

              2       5        0.79       700     1000      520     2100     2101   
                                         GEOM     BASIS   MCVARS     RHF      RHF  

 PROGRAMS   *        TOTAL    HF-SCF    HF-SCF       INT
 CPU TIMES  *         0.50      0.04      0.13      0.24
 REAL TIME  *         3.43 SEC
 DISK USED  *        73.63 MB
 **********************************************************************************************************************************


 PROGRAM * PAPT (Closed-shell)     Authors: C. Hampel, H.-J. Werner, 1991, P.J. Knowles, 2021


 Convergence thresholds:  THRVAR = 1.00D-08  THRDEN = 1.00D-06

 Number of core orbitals:           3 (   3 )
 Number of closed-shell orbitals:  10 (  10 )
 Number of external orbitals:      54 (  54 )

 Molecular orbitals read from record     2101.2  Type=RHF/CANONICAL  

 Number of N-1 electron functions:              10
 Number of N-2 electron functions:              55
 Number of singly external CSFs:               540
 Number of doubly external CSFs:            146070
 Total number of CSFs:                      146611

 Length of J-op  integral file:               0.00 MB
 Length of K-op  integral file:               0.37 MB

 Integral transformation finished. Total CPU:   0.03 sec, npass=  1  Memory used:   0.55 MW

 Reference energy:                   -166.18071515

                        CORR.ENERGY   TOTAL ENERGY   ENERGY CHANGE
 MP2:                   -0.51814542  -166.69886057    -0.51814542

 SCS-MP2 correlation energy:           -0.51101344   (PS=  1.200000  PT=  0.333333)
 SCS-MP2 total energy:               -166.69172859
 Iteration:   1     0.1915D+00
 Iteration:   2     0.1133D+01
 Iteration:   3     0.5326D-01
 Iteration:   4     0.4862D-01
 Iteration:   5     0.1520D-01
 Iteration:   6     0.1309D-01
 Iteration:   7     0.6983D-02
 Iteration:   8     0.2598D-02
 Iteration:   9     0.3192D-01
 Iteration:  10     0.1067D-02
 Iteration:  11     0.1647D-02
 Iteration:  12     0.4927D-03
 Iteration:  13     0.2267D-03
 Iteration:  14     0.3670D-03
 Iteration:  15     0.4341D-04
 PAPT operator written to  7000.1
 PAPT orbitals and eigenvalues written to  7000.2

 MP3(D):                -0.54453697  -166.72525212    -0.02639155



 RESULTS
 =======

  Reference energy                   -166.180715147787
  MP3 singlet pair energy              -0.365533756779
  MP3 triplet pair energy              -0.179003213134
  MP3 correlation energy               -0.544536969912

 !MP3 total energy                   -166.725252117699

 Timing summary (sec):

 STEP                 CPU(USER)    SYS     CPU(TOT)    WALL
 Transformation          0.03      0.01      0.04      0.15
 CCSD iterations         0.93      0.02      0.95      1.06

 Program statistics:

 Available memory in ccsd:               393215587
 Min. memory needed in ccsd:                450951
 Max. memory used in ccsd:                  566981
 Max. memory used in cckext:                565726 ( 1 integral passes)



 **********************************************************************************************************************************
 DATASETS  * FILE   NREC   LENGTH (MB)   RECORD NAMES
              1      21       42.21       500      610      700      900      950      970     1000      129      960     1100   
                                          VAR    BASINP    GEOM    SYMINP    ZMAT    AOBASIS   BASIS     P2S    ABASIS      S 
                                         1400     1410     1200     1210     1080     1600     1650     1300     1700     1380   
                                           T        V       H0       H01     AOSYM     SMH    MOLCAS    ERIS     OPER     JKOP   
                                         7000   
                                        PAPT AO    

              2       6        0.99       700     1000      520     2100     2101     7000   
                                         GEOM     BASIS   MCVARS     RHF      RHF     PAPT   

 PROGRAMS   *        TOTAL      PAPT    HF-SCF    HF-SCF       INT
 CPU TIMES  *         0.88      0.38      0.04      0.13      0.24
 REAL TIME  *         4.76 SEC
 DISK USED  *        73.63 MB
 **********************************************************************************************************************************


 PROGRAM * MP2 (Closed-shell)     Authors: C. Hampel, H.-J. Werner, 1991, M. Deegan, P.J. Knowles, 1992


 Convergence thresholds:  THRVAR = 1.00D-08  THRDEN = 1.00D-06

 Number of core orbitals:           3 (   3 )
 Number of closed-shell orbitals:  10 (  10 )
 Number of external orbitals:      54 (  54 )

 Molecular orbitals read from record     7000.2  Type=PAPT/CANONICAL (state 1.1)

 Number of N-1 electron functions:              10
 Number of N-2 electron functions:              55
 Number of singly external CSFs:               540
 Number of doubly external CSFs:            146070
 Total number of CSFs:                      146611

 Length of J-op  integral file:               0.00 MB
 Length of K-op  integral file:               0.37 MB

 Integral transformation finished. Total CPU:   0.02 sec, npass=  1  Memory used:   0.55 MW
 Orbital energies read from record       7000.2  Type=PAPT/CANONICAL (state 1.1)

 Memory needed for MP2:                      0.02 MW

 SCS-MP2 correlation energy:           -0.544430070266   (PS=  1.200000  PT=  0.333333)
 SCS-MP2 total energy:               -166.725145218053


  Reference energy                   -166.180715147787
  MP2 singlet pair energy              -0.350731815339
  MP2 triplet pair energy              -0.198565540489
  MP2 correlation energy               -0.549297355828

 !MP2 total energy                   -166.730012503615


 **********************************************************************************************************************************
 DATASETS  * FILE   NREC   LENGTH (MB)   RECORD NAMES
              1      21       42.21       500      610      700      900      950      970     1000      129      960     1100   
                                          VAR    BASINP    GEOM    SYMINP    ZMAT    AOBASIS   BASIS     P2S    ABASIS      S 
                                         1400     1410     1200     1210     1080     1600     1650     1300     1700     1380   
                                           T        V       H0       H01     AOSYM     SMH    MOLCAS    ERIS     OPER     JKOP   
                                         7000   
                                        PAPT AO    

              2       6        0.99       700     1000      520     2100     2101     7000   
                                         GEOM     BASIS   MCVARS     RHF      RHF     PAPT   

 PROGRAMS   *        TOTAL       MP2      PAPT    HF-SCF    HF-SCF       INT
 CPU TIMES  *         0.95      0.07      0.38      0.04      0.13      0.24
 REAL TIME  *         5.23 SEC
 DISK USED  *        73.63 MB
 **********************************************************************************************************************************

 Dump information in style XML to xml output                                                                      

 Orbitals will not be exported.

 **********************************************************************************************************************************

 MP2/cc-pVDZ energy=   -166.730012503615

             MP2            PAPT          HF-SCF          HF-SCF
   -166.73001250   -166.72525212   -166.18071515   -166.18071515
 **********************************************************************************************************************************
 Molpro calculation terminated
