
 Working directory              : /var/folders/2v/xbgp75_9785319ghcgb4zr4r0000gp/T//molpro.FTkTfuqjV5/
 Global scratch directory       : /var/folders/2v/xbgp75_9785319ghcgb4zr4r0000gp/T//molpro.FTkTfuqjV5/
 Wavefunction directory         : /Users/sacpjk/wfu/
 Main file repository           : /var/folders/2v/xbgp75_9785319ghcgb4zr4r0000gp/T//molpro.FTkTfuqjV5/

 id        : peterk

 Nodes                        nprocs
 Cardiff-University-G34YLXT77Y    1
 GA implementation: MPI file
 GA implementation (serial work in mppx): MPI file

 Using customized tuning parameters: mindgm=1; mindgv=20; mindgc=4; mindgr=1; noblas=0; minvec=7
 default implementation of scratch files=df  


 Variables initialized (1032), CPU time= 0.00 sec
 
 symmetry,nosym
 
 
 geometry={
           18
     SI         1.91873897     -1.10778446      0.38779602
     SI         1.91873897      1.10778446     -0.38779602
     SI         0.00000000      2.21556892      0.38779602
     SI        -1.91873897      1.10778446     -0.38779602
     SI        -1.91873897     -1.10778446      0.38779602
     SI         0.00000000     -2.21556892     -0.38779602
     H          1.89826779     -1.09596542      1.87596105
     H          3.15145900     -1.81949570     -0.04784335
     H          3.15145900      1.81949570      0.04784335
     H          1.89826779      1.09596542     -1.87596105
     H          0.00000000      3.63899140     -0.04784335
     H          0.00000000      2.19193084      1.87596105
     H         -3.15145900      1.81949570      0.04784335
     H         -1.89826779      1.09596542     -1.87596105
     H         -3.15145900     -1.81949570     -0.04784335
     H         -1.89826779     -1.09596542      1.87596105
     H          0.00000000     -2.19193084     -1.87596105
     H          0.00000000     -3.63899140      0.04784335
 }
 basis=cc-pVDZ
 
 
 
 hf; mp2
 
 
 
 {put,xml;noorbitals,nobasis}
 Commands initialized (841), CPU time= 0.00 sec, 704 directives.
 Default parameters read. Elapsed time= 0.33 sec

 Checking input...
 Passed
1


                                         ***  PROGRAM SYSTEM MOLPRO  ***
                                       Copyright, TTI GmbH Stuttgart, 2015
                                    Version 2023.1 linked Tue Jun  6 09:54:11 2023


 **********************************************************************************************************************************
 LABEL *                                                                                                                                                                 
  64 bit serial version                                                                  DATE: 12-Jun-23          TIME: 23:38:43  
 **********************************************************************************************************************************

 SHA1:             8ebb0dd001088a5c915591db1a321413035db0b1
 **********************************************************************************************************************************

 Memory per process:       393 MW
 Total memory per node:    524 MW
 Total GA space:           131 MW

 GA preallocation disabled
 GA check enabled

 Variable memory set to 393.2 MW

 ZSYMEL=NOSYM


 Geometry recognized as XYZ

 SETTING BASIS          =    CC-PVDZ


 Recomputing integrals since basis changed


 Using spherical harmonics

 Library entry SI     S cc-pVDZ              selected for orbital group  1
 Library entry SI     P cc-pVDZ              selected for orbital group  1
 Library entry SI     D cc-pVDZ              selected for orbital group  1
 Library entry H      S cc-pVDZ              selected for orbital group  2
 Library entry H      P cc-pVDZ              selected for orbital group  2


 PROGRAM * SEWARD (Integral evaluation for generally contracted gaussian basis sets)     Author: Roland Lindh, 1990

 Geometry written to block  1 of record 700


 Point group  C1  



 ATOMIC COORDINATES

 NR  ATOM    CHARGE       X              Y              Z

   1  SI     14.00    3.625891158   -2.093409235    0.732828270
   2  SI     14.00    3.625891158    2.093409235   -0.732828270
   3  SI     14.00    0.000000000    4.186818469    0.732828270
   4  SI     14.00   -3.625891158    2.093409235   -0.732828270
   5  SI     14.00   -3.625891158   -2.093409235    0.732828270
   6  SI     14.00    0.000000000   -4.186818469   -0.732828270
   7  H       1.00    3.587206234   -2.071074486    3.545052605
   8  H       1.00    5.955394403   -3.438348558   -0.090410828
   9  H       1.00    5.955394403    3.438348558    0.090410828
  10  H       1.00    3.587206234    2.071074486   -3.545052605
  11  H       1.00    0.000000000    6.876697116   -0.090410828
  12  H       1.00    0.000000000    4.142148972    3.545052605
  13  H       1.00   -5.955394403    3.438348558    0.090410828
  14  H       1.00   -3.587206234    2.071074486   -3.545052605
  15  H       1.00   -5.955394403   -3.438348558   -0.090410828
  16  H       1.00   -3.587206234   -2.071074486    3.545052605
  17  H       1.00    0.000000000   -4.142148972   -3.545052605
  18  H       1.00    0.000000000   -6.876697116    0.090410828

 Bond lengths in Bohr (Angstrom)

 1-2  4.435943866  1-6  4.435943869  1-7  2.812579079  1-8  2.813035685  2-3  4.435943869
     ( 2.347400403)     ( 2.347400404)     ( 1.488352752)     ( 1.488594378)     ( 2.347400404)

  2- 9  2.813035685   2-10  2.812579079   3- 4  4.435943869   3-11  2.813035682   3-12  2.812579079
       ( 1.488594378)       ( 1.488352752)       ( 2.347400404)       ( 1.488594376)       ( 1.488352752)

  4- 5  4.435943866   4-13  2.813035685   4-14  2.812579079   5- 6  4.435943869   5-15  2.813035685
       ( 2.347400403)       ( 1.488594378)       ( 1.488352752)       ( 2.347400404)       ( 1.488594378)

  5-16  2.812579079   6-17  2.812579079   6-18  2.813035682
       ( 1.488352752)       ( 1.488352752)       ( 1.488594376)

 Bond angles

  1- 2- 3  109.64851526   1- 2- 9  110.76680076   1- 2-10  108.83645485   1- 6- 5  109.64851531

  1- 6-17  108.83645484   1- 6-18  110.76680078   2- 1- 6  109.64851526   2- 1- 7  108.83645485

  2- 1- 8  110.76680076   2- 3- 4  109.64851531   2- 3-11  110.76680078   2- 3-12  108.83645484

  3- 2- 9  110.76680085   3- 2-10  108.83645476   3- 4- 5  109.64851526   3- 4-13  110.76680085

  3- 4-14  108.83645476   4- 3-11  110.76680078   4- 3-12  108.83645484   4- 5- 6  109.64851526

  4- 5-15  110.76680076   4- 5-16  108.83645485   5- 4-13  110.76680076   5- 4-14  108.83645485

  5- 6-17  108.83645484   5- 6-18  110.76680078   6- 1- 7  108.83645476   6- 1- 8  110.76680085

  6- 5-15  110.76680085   6- 5-16  108.83645476   7- 1- 8  107.92677630   9- 2-10  107.92677630

 11- 3-12  107.92677624  13- 4-14  107.92677630  15- 5-16  107.92677630  17- 6-18  107.92677624

 NUCLEAR CHARGE:                   96
 NUMBER OF PRIMITIVE AOS:         336
 NUMBER OF SYMMETRY AOS:          330
 NUMBER OF CONTRACTIONS:          168   (  168A   )
 NUMBER OF INNER CORE ORBITALS:     6   (    6A   )
 NUMBER OF OUTER CORE ORBITALS:    24   (   24A   )
 NUMBER OF VALENCE ORBITALS:       36   (   36A   )


 NUCLEAR REPULSION ENERGY  675.86517828


 Eigenvalues of metric

         1 0.304E-02 0.304E-02 0.305E-02 0.641E-02 0.641E-02 0.114E-01 0.118E-01 0.118E-01


 Contracted 2-electron integrals neglected if value below      1.0D-11
 AO integral compression algorithm  1   Integral accuracy      1.0D-11

     329.253 MB (compressed) written to integral file ( 39.7%)


 NUMBER OF SORTED TWO-ELECTRON INTEGRALS:  100770306.     BUFFER LENGTH:  32768
 NUMBER OF SEGMENTS:   7  SEGMENT LENGTH:   15999503      RECORD LENGTH: 524288

 Memory used in sort:      16.56 MW

 SORT1 READ   103662160. AND WROTE    86912208. INTEGRALS IN    252 RECORDS. CPU TIME:     0.72 SEC, REAL TIME:     0.89 SEC
 SORT2 READ    86912208. AND WROTE   100770306. INTEGRALS IN   1256 RECORDS. CPU TIME:     0.68 SEC, REAL TIME:     0.83 SEC

 FILE SIZES:   FILE 1:   360.6 MBYTE,  FILE 4:  1057.0 MBYTE,   TOTAL:   1417.7 MBYTE

 OPERATOR DM      FOR CENTER  0  COORDINATES:    0.000000    0.000000    0.000000


 **********************************************************************************************************************************
 DATASETS  * FILE   NREC   LENGTH (MB)   RECORD NAMES
              1      19      310.75       500      610      700      900      950      970     1000      129      960     1100   
                                          VAR    BASINP    GEOM    SYMINP    ZMAT    AOBASIS   BASIS     P2S    ABASIS      S 
                                         1400     1410     1200     1210     1080     1600     1650     1300     1700   
                                           T        V       H0       H01     AOSYM     SMH    MOLCAS    ERIS     OPER   

 PROGRAMS   *        TOTAL       INT
 CPU TIMES  *         5.38      5.29
 REAL TIME  *         7.68 SEC
 DISK USED  *         1.32 GB
 **********************************************************************************************************************************


 Program * Restricted Hartree-Fock

 Orbital guess generated from atomic densities. Full valence occupancy:   66

 Initial occupancy:  48

 NELEC=   96   SYM=1   MS2= 0   THRE=1.0D-08   THRD=3.2D-06   THRG=3.2D-06  HFMA2=F  DIIS_START=2   DIIS_MAX=10   DIIS_INCORE=F

 Level shifts:    0.00 (CLOSED)    0.00 (OPEN)    0.30 (GAP_MIN)

 ITER           ETOT              DE          GRAD        DDIFF     DIIS  NEXP   TIME(IT)  TIME(TOT)  DIAG
   1    -1740.51064430   -1740.51064430     0.00D+00     0.11D+00     0     0       0.45      0.89    start
   2    -1740.57446300      -0.06381870     0.20D-02     0.61D-02     1     0       0.45      1.34    diag
   3    -1740.58259169      -0.00812869     0.63D-03     0.22D-02     2     0       0.47      1.81    diag
   4    -1740.58296079      -0.00036910     0.16D-03     0.61D-03     3     0       0.47      2.28    diag
   5    -1740.58299117      -0.00003038     0.40D-04     0.19D-03     4     0       0.47      2.75    diag
   6    -1740.58299226      -0.00000109     0.69D-05     0.47D-04     5     0       0.47      3.22    diag
   7    -1740.58299230      -0.00000004     0.13D-05     0.91D-05     6     0       0.46      3.68    diag
   8    -1740.58299230      -0.00000000     0.19D-06     0.10D-05     7     0       0.46      4.14    fixocc
   9    -1740.58299230      -0.00000000     0.33D-07     0.13D-06     0     0       0.47      4.61    diag

 Final occupancy:  48

 !RHF STATE 1.1 Energy              -1740.582992299040
  RHF One-electron energy           -3762.308822548825
  RHF Two-electron energy            1345.860651968844
  RHF Kinetic energy                 1740.878735411209
  RHF Nuclear energy                  675.865178280942
  RHF Virial quotient                  -0.999830118488

 !RHF STATE 1.1 Dipole moment          -0.00000000    -0.00000000     0.00000000
 Dipole moment /Debye                  -0.00000000    -0.00000000     0.00000000

 Orbital energies:

           1.1          2.1          3.1          4.1          5.1          6.1          7.1          8.1          9.1         10.1
    -68.777170   -68.777170   -68.777170   -68.777169   -68.777169   -68.777168    -6.129331    -6.129289    -6.129289    -6.129178

          11.1         12.1         13.1         14.1         15.1         16.1         17.1         18.1         19.1         20.1
     -6.129178    -6.129096    -4.235187    -4.235100    -4.235100    -4.234989    -4.234989    -4.234989    -4.234856    -4.234812

          21.1         22.1         23.1         24.1         25.1         26.1         27.1         28.1         29.1         30.1
     -4.234812    -4.234783    -4.234783    -4.234751    -4.234476    -4.234476    -4.234471    -4.234374    -4.234374    -4.234288

          31.1         32.1         33.1         34.1         35.1         36.1         37.1         38.1         39.1         40.1
     -0.797906    -0.747683    -0.747683    -0.663168    -0.663168    -0.626010    -0.507133    -0.505051    -0.495543    -0.495543

          41.1         42.1         43.1         44.1         45.1         46.1         47.1         48.1         49.1         50.1
     -0.478572    -0.478572    -0.443423    -0.425924    -0.425924    -0.379638    -0.379638    -0.369188     0.095025     0.101985


 HOMO     48.1    -0.369188 =     -10.0461eV
 LUMO     49.1     0.095025 =       2.5858eV
 LUMO-HOMO         0.464213 =      12.6319eV

 Orbitals saved in record  2100.2


 **********************************************************************************************************************************
 DATASETS  * FILE   NREC   LENGTH (MB)   RECORD NAMES
              1      19      310.75       500      610      700      900      950      970     1000      129      960     1100   
                                          VAR    BASINP    GEOM    SYMINP    ZMAT    AOBASIS   BASIS     P2S    ABASIS      S 
                                         1400     1410     1200     1210     1080     1600     1650     1300     1700   
                                           T        V       H0       H01     AOSYM     SMH    MOLCAS    ERIS     OPER   

              2       4        1.12       700     1000      520     2100   
                                         GEOM     BASIS   MCVARS     RHF  

 PROGRAMS   *        TOTAL    HF-SCF       INT
 CPU TIMES  *         9.99      4.61      5.29
 REAL TIME  *        13.05 SEC
 DISK USED  *         1.32 GB
 **********************************************************************************************************************************


 PROGRAM * MP2 (Closed-shell)     Authors: C. Hampel, H.-J. Werner, 1991, M. Deegan, P.J. Knowles, 1992


 Convergence thresholds:  THRVAR = 1.00D-08  THRDEN = 1.00D-06

 Number of core orbitals:          30 (  30 )
 Number of closed-shell orbitals:  18 (  18 )
 Number of external orbitals:     120 ( 120 )

 Molecular orbitals read from record     2100.2  Type=RHF/CANONICAL  

 Number of N-1 electron functions:              18
 Number of N-2 electron functions:             171
 Number of singly external CSFs:              2160
 Number of doubly external CSFs:           2333880
 Total number of CSFs:                     2336041

 Length of J-op  integral file:               0.00 MB
 Length of K-op  integral file:               2.00 MB

 Integral transformation finished. Total CPU:   1.24 sec, npass=  1  Memory used:   8.46 MW

 Memory needed for MP2:                      0.11 MW

 SCS-MP2 correlation energy:           -0.628248834673   (PS=  1.200000  PT=  0.333333)
 SCS-MP2 total energy:              -1741.211241133708


  Reference energy                  -1740.582992299035
  MP2 singlet pair energy              -0.440500288480
  MP2 triplet pair energy              -0.160149356513
  MP2 correlation energy               -0.600649644994

 !MP2 total energy                  -1741.183641944029


 **********************************************************************************************************************************
 DATASETS  * FILE   NREC   LENGTH (MB)   RECORD NAMES
              1      20      366.53       500      610      700      900      950      970     1000      129      960     1100   
                                          VAR    BASINP    GEOM    SYMINP    ZMAT    AOBASIS   BASIS     P2S    ABASIS      S 
                                         1400     1410     1200     1210     1080     1600     1650     1300     1700     1380   
                                           T        V       H0       H01     AOSYM     SMH    MOLCAS    ERIS     OPER     JKOP   

              2       4        1.12       700     1000      520     2100   
                                         GEOM     BASIS   MCVARS     RHF  

 PROGRAMS   *        TOTAL       MP2    HF-SCF       INT
 CPU TIMES  *        11.40      1.41      4.61      5.29
 REAL TIME  *        15.14 SEC
 DISK USED  *         1.32 GB
 **********************************************************************************************************************************

 Dump information in style XML to xml output                                                                      

 Orbitals will not be exported.

 **********************************************************************************************************************************

 MP2/cc-pVDZ energy=  -1741.183641944029

             MP2          HF-SCF
  -1741.18364194  -1740.58299230
 **********************************************************************************************************************************
 Molpro calculation terminated
