
 Working directory              : /var/folders/2v/xbgp75_9785319ghcgb4zr4r0000gp/T//molpro.O5QegSWDTJ/
 Global scratch directory       : /var/folders/2v/xbgp75_9785319ghcgb4zr4r0000gp/T//molpro.O5QegSWDTJ/
 Wavefunction directory         : /Users/sacpjk/wfu/
 Main file repository           : /var/folders/2v/xbgp75_9785319ghcgb4zr4r0000gp/T//molpro.O5QegSWDTJ/

 id        : peterk

 Nodes                        nprocs
 Cardiff-University-G34YLXT77Y    1
 GA implementation: MPI file
 GA implementation (serial work in mppx): MPI file

 Using customized tuning parameters: mindgm=1; mindgv=20; mindgc=4; mindgr=1; noblas=0; minvec=7
 default implementation of scratch files=df  


 Variables initialized (1032), CPU time= 0.00 sec
 
 symmetry,nosym
 
 
 geometry={
 7
  n          0.359011992707    0.182100579047   -0.826971520423
  h          1.187607731412   -0.402752954475   -0.877313602017
  h         -0.302815572360   -0.207558990448   -1.485208477152
  c         -0.201005447520    0.102582784531    0.520406601472
  h         -1.095084398408    0.720428922492    0.581627497827
  h         -0.465092139202   -0.904659460390    0.857912192878
  h          0.517377833318    0.509859119244    1.229547307467
 }
 basis=aug-cc-pVTZ
 
 
 
 hf; mp3; counterpoise
 
 
 
 {put,xml;noorbitals,nobasis}
 Commands initialized (841), CPU time= 0.01 sec, 704 directives.
 Default parameters read. Elapsed time= 0.06 sec

 Checking input...
 Passed
1


                                         ***  PROGRAM SYSTEM MOLPRO  ***
                                       Copyright, TTI GmbH Stuttgart, 2015
                                    Version 2023.1 linked Tue Jun  6 09:54:11 2023


 **********************************************************************************************************************************
 LABEL *                                                                                                                                                                 
  64 bit serial version                                                                  DATE: 07-Jun-23          TIME: 08:03:29  
 **********************************************************************************************************************************

 SHA1:             8ebb0dd001088a5c915591db1a321413035db0b1
 **********************************************************************************************************************************

 Memory per process:       805 MW
 Total memory per node:   1074 MW
 Total GA space:           268 MW

 GA preallocation disabled
 GA check enabled

 Variable memory set to 805.3 MW

 ZSYMEL=NOSYM


 Geometry recognized as XYZ

 SETTING BASIS          =    AUG-CC-PVTZ


 Recomputing integrals since basis changed


 Using spherical harmonics

 Library entry N      S aug-cc-pVTZ          selected for orbital group  1
 Library entry N      P aug-cc-pVTZ          selected for orbital group  1
 Library entry N      D aug-cc-pVTZ          selected for orbital group  1
 Library entry N      F aug-cc-pVTZ          selected for orbital group  1
 Library entry H      S aug-cc-pVTZ          selected for orbital group  2
 Library entry H      P aug-cc-pVTZ          selected for orbital group  2
 Library entry H      D aug-cc-pVTZ          selected for orbital group  2
 Library entry C      S aug-cc-pVTZ          selected for orbital group  3
 Library entry C      P aug-cc-pVTZ          selected for orbital group  3
 Library entry C      D aug-cc-pVTZ          selected for orbital group  3
 Library entry C      F aug-cc-pVTZ          selected for orbital group  3


 PROGRAM * SEWARD (Integral evaluation for generally contracted gaussian basis sets)     Author: Roland Lindh, 1990

 Geometry written to block  1 of record 700


 Point group  C1  



 ATOMIC COORDINATES

 NR  ATOM    CHARGE       X              Y              Z

   1  N       7.00    0.678434342    0.344120222   -1.562749686
   2  H       1.00    2.244253356   -0.761092780   -1.657882433
   3  H       1.00   -0.572238498   -0.392229647   -2.806637260
   4  C       6.00   -0.379845245    0.193853368    0.983425950
   5  H       1.00   -2.069409596    1.361413356    1.099116677
   6  H       1.00   -0.878896766   -1.709558616    1.621219084
   7  H       1.00    0.977702408    0.963494098    2.323507668

 Bond lengths in Bohr (Angstrom)

 1-2  1.918941167  1-3  1.911452321  1-4  2.761439151  4-5  2.056990123  4-6  2.068528386
     ( 1.015459935)     ( 1.011497008)     ( 1.461290668)     ( 1.088512296)     ( 1.094618082)

 4-7  2.056964145
     ( 1.088498549)

 Bond angles

  1-4-5  109.61825692   1-4-6  115.26640672   1-4-7  109.11184885   2-1-3  106.24620119

  2-1-4  109.09178005   3-1-4  109.16631861   5-4-6  107.86599269   5-4-7  107.04188173

  6-4-7  107.61673372

 NUCLEAR CHARGE:                   18
 NUMBER OF PRIMITIVE AOS:         269
 NUMBER OF SYMMETRY AOS:          241
 NUMBER OF CONTRACTIONS:          207   (  207A   )
 NUMBER OF INNER CORE ORBITALS:     0   (    0A   )
 NUMBER OF OUTER CORE ORBITALS:     2   (    2A   )
 NUMBER OF VALENCE ORBITALS:       13   (   13A   )


 NUCLEAR REPULSION ENERGY   42.09217567

 Eigenvalues of metric

         1 0.394E-04 0.619E-04 0.643E-04 0.136E-03 0.157E-03 0.246E-03 0.392E-03 0.649E-03


 Contracted 2-electron integrals neglected if value below      1.0D-12
 AO integral compression algorithm  1   Integral accuracy      1.0D-12

     1337.721 MB (compressed) written to integral file ( 62.5%)


 NUMBER OF SORTED TWO-ELECTRON INTEGRALS:  231738156.     BUFFER LENGTH:  32768
 NUMBER OF SEGMENTS:  15  SEGMENT LENGTH:   15999503      RECORD LENGTH: 524288

 Memory used in sort:      16.56 MW

 SORT1 READ   267401021. AND WROTE   230480978. INTEGRALS IN    665 RECORDS. CPU TIME:     2.01 SEC, REAL TIME:     4.70 SEC
 SORT2 READ   230480978. AND WROTE   231738156. INTEGRALS IN   5103 RECORDS. CPU TIME:     1.46 SEC, REAL TIME:     4.51 SEC

 FILE SIZES:   FILE 1:  1369.4 MBYTE,  FILE 4:  2789.3 MBYTE,   TOTAL:   4158.7 MBYTE

 OPERATOR DM      FOR CENTER  0  COORDINATES:    0.000000    0.000000    0.000000


 **********************************************************************************************************************************
 DATASETS  * FILE   NREC   LENGTH (MB)   RECORD NAMES
              1      19     1162.24       500      610      700      900      950      970     1000      129      960     1100   
                                          VAR    BASINP    GEOM    SYMINP    ZMAT    AOBASIS   BASIS     P2S    ABASIS      S 
                                         1400     1410     1200     1210     1080     1600     1650     1300     1700   
                                           T        V       H0       H01     AOSYM     SMH    MOLCAS    ERIS     OPER   

 PROGRAMS   *        TOTAL       INT
 CPU TIMES  *         8.81      8.71
 REAL TIME  *        19.78 SEC
 DISK USED  *         3.87 GB
 **********************************************************************************************************************************


 Program * Restricted Hartree-Fock

 Orbital guess generated from atomic densities. Full valence occupancy:   15

 Initial occupancy:   9

 NELEC=   18   SYM=1   MS2= 0   THRE=1.0D-08   THRD=3.2D-06   THRG=3.2D-06  HFMA2=F  DIIS_START=2   DIIS_MAX=10   DIIS_INCORE=F

 Level shifts:    0.00 (CLOSED)    0.00 (OPEN)    0.30 (GAP_MIN)

 ITER           ETOT              DE          GRAD        DDIFF     DIIS  NEXP   TIME(IT)  TIME(TOT)  DIAG
   1      -95.22533912     -95.22533912     0.00D+00     0.41D-01     0     0       1.07      2.04    start
   2      -95.25101317      -0.02567405     0.37D-02     0.43D-02     1     0       1.12      3.16    diag
   3      -95.25477979      -0.00376663     0.16D-02     0.12D-02     2     0       1.15      4.31    diag
   4      -95.25530175      -0.00052195     0.46D-03     0.42D-03     3     0       1.16      5.47    diag
   5      -95.25532817      -0.00002643     0.90D-04     0.79D-04     4     0       1.17      6.64    diag
   6      -95.25532989      -0.00000171     0.21D-04     0.24D-04     5     0       1.10      7.74    diag
   7      -95.25533001      -0.00000012     0.60D-05     0.65D-05     6     0       1.05      8.79    diag
   8      -95.25533003      -0.00000001     0.16D-05     0.27D-05     7     0       1.17      9.96    fixocc
   9      -95.25533003      -0.00000000     0.41D-06     0.77D-06     8     0       1.23     11.19    diag
  10      -95.25533003      -0.00000000     0.88D-07     0.90D-07     0     0       1.20     12.39    diag/orth

 Final occupancy:   9

 !RHF STATE 1.1 Energy                -95.255330026680
  RHF One-electron energy            -211.533928878981
  RHF Two-electron energy              74.186423183844
  RHF Kinetic energy                   95.122289352631
  RHF Nuclear energy                   42.092175668458
  RHF Virial quotient                  -1.001398627755

 !RHF STATE 1.1 Dipole moment          -0.11657166    -0.54458879     0.11439913
 Dipole moment /Debye                  -0.29629560    -1.38420664     0.29077359

 Orbital energies:

           1.1          2.1          3.1          4.1          5.1          6.1          7.1          8.1          9.1         10.1
    -15.540735   -11.240247    -1.171599    -0.895580    -0.662798    -0.604120    -0.555536    -0.516177    -0.393749     0.029443

          11.1
      0.042829


 HOMO      9.1    -0.393749 =     -10.7145eV
 LUMO     10.1     0.029443 =       0.8012eV
 LUMO-HOMO         0.423192 =      11.5156eV

 Orbitals saved in record  2100.2


 **********************************************************************************************************************************
 DATASETS  * FILE   NREC   LENGTH (MB)   RECORD NAMES
              1      19     1162.24       500      610      700      900      950      970     1000      129      960     1100   
                                          VAR    BASINP    GEOM    SYMINP    ZMAT    AOBASIS   BASIS     P2S    ABASIS      S 
                                         1400     1410     1200     1210     1080     1600     1650     1300     1700   
                                           T        V       H0       H01     AOSYM     SMH    MOLCAS    ERIS     OPER   

              2       4        1.16       700     1000      520     2100   
                                         GEOM     BASIS   MCVARS     RHF  

 PROGRAMS   *        TOTAL    HF-SCF       INT
 CPU TIMES  *        21.20     12.39      8.71
 REAL TIME  *        37.73 SEC
 DISK USED  *         3.87 GB
 **********************************************************************************************************************************


 PROGRAM * MP3 (Closed-shell)     Authors: C. Hampel, H.-J. Werner, 1991, M. Deegan, P.J. Knowles, 1992


 Convergence thresholds:  THRVAR = 1.00D-08  THRDEN = 1.00D-06

 Number of core orbitals:           2 (   2 )
 Number of closed-shell orbitals:   7 (   7 )
 Number of external orbitals:     198 ( 198 )

 Molecular orbitals read from record     2100.2  Type=RHF/CANONICAL  

 Number of N-1 electron functions:               7
 Number of N-2 electron functions:              28
 Number of singly external CSFs:              1386
 Number of doubly external CSFs:            961191
 Total number of CSFs:                      962578

 Length of J-op  integral file:               0.00 MB
 Length of K-op  integral file:               3.00 MB

 Integral transformation finished. Total CPU:   1.56 sec, npass=  1  Memory used:   2.95 MW

 Reference energy:                    -95.25533003

                        CORR.ENERGY   TOTAL ENERGY   ENERGY CHANGE
 MP2:                   -0.41175936   -95.66708939    -0.41175936

 SCS-MP2 correlation energy:           -0.41619331   (PS=  1.200000  PT=  0.333333)
 SCS-MP2 total energy:                -95.67152334

 MP3(D):                -0.43299079   -95.68832081    -0.02123143



 RESULTS
 =======

  Reference energy                    -95.255330026680
  MP3 singlet pair energy              -0.304355161775
  MP3 triplet pair energy              -0.128635624008
  MP3 correlation energy               -0.432990785783

 !MP3 total energy                    -95.688320812463

 Timing summary (sec):

 STEP                 CPU(USER)    SYS     CPU(TOT)    WALL
 Transformation          1.61      0.19      1.80      2.26
 CCSD iterations        23.66      0.17     23.83      3.06

 Program statistics:

 Available memory in ccsd:               805306163
 Min. memory needed in ccsd:               3040312
 Max. memory used in ccsd:                 3839467
 Max. memory used in cckext:               2734686 ( 1 integral passes)



 **********************************************************************************************************************************
 DATASETS  * FILE   NREC   LENGTH (MB)   RECORD NAMES
              1      20     1176.65       500      610      700      900      950      970     1000      129      960     1100   
                                          VAR    BASINP    GEOM    SYMINP    ZMAT    AOBASIS   BASIS     P2S    ABASIS      S 
                                         1400     1410     1200     1210     1080     1600     1650     1300     1700     1380   
                                           T        V       H0       H01     AOSYM     SMH    MOLCAS    ERIS     OPER     JKOP   

              2       4        1.16       700     1000      520     2100   
                                         GEOM     BASIS   MCVARS     RHF  

 PROGRAMS   *        TOTAL       MP3    HF-SCF       INT
 CPU TIMES  *        25.19      3.98     12.39      8.71
 REAL TIME  *        43.08 SEC
 DISK USED  *         3.87 GB
 **********************************************************************************************************************************

 Counterpoise: absolute minimum monomer separation=    -1.000 Bragg radius scale factor=     1.400 Number of monomers= 1
 Counterpoise skipped because only a single monomer


 **********************************************************************************************************************************
 DATASETS  * FILE   NREC   LENGTH (MB)   RECORD NAMES
              1      20     1176.65       500      610      700      900      950      970     1000      129      960     1100   
                                          VAR    BASINP    GEOM    SYMINP    ZMAT    AOBASIS   BASIS     P2S    ABASIS      S 
                                         1400     1410     1200     1210     1080     1600     1650     1300     1700     1380   
                                           T        V       H0       H01     AOSYM     SMH    MOLCAS    ERIS     OPER     JKOP   

              2       4        1.16       700     1000      520     2100   
                                         GEOM     BASIS   MCVARS     RHF  

 PROGRAMS   *        TOTALCOUNTERPOI       MP3    HF-SCF       INT
 CPU TIMES  *        25.19      0.00      3.98     12.39      8.71
 REAL TIME  *        43.08 SEC
 DISK USED  *         3.87 GB
 **********************************************************************************************************************************

 Dump information in style XML to xml output                                                                      

 Orbitals will not be exported.

 **********************************************************************************************************************************

 MP3/aug-cc-pVTZ energy=    -95.688320812463

             MP3          HF-SCF
    -95.68832081    -95.25533003
 **********************************************************************************************************************************
 Molpro calculation terminated
