
 Working directory              : /var/folders/2v/xbgp75_9785319ghcgb4zr4r0000gp/T//molpro.97d587g9tP/
 Global scratch directory       : /var/folders/2v/xbgp75_9785319ghcgb4zr4r0000gp/T//molpro.97d587g9tP/
 Wavefunction directory         : /Users/sacpjk/wfu/
 Main file repository           : /var/folders/2v/xbgp75_9785319ghcgb4zr4r0000gp/T//molpro.97d587g9tP/

 id        : peterk

 Nodes                        nprocs
 Cardiff-University-G34YLXT77Y    1
 GA implementation: MPI file
 GA implementation (serial work in mppx): MPI file

 Using customized tuning parameters: mindgm=1; mindgv=20; mindgc=4; mindgr=1; noblas=0; minvec=7
 default implementation of scratch files=df  


 Variables initialized (1032), CPU time= 0.00 sec
 
 symmetry,nosym
 
 
 geometry={
            9
     C         -0.71731126      0.00000000      0.73536428
     C         -1.09398697      0.00000000     -0.56903173
     O          0.00000000      0.00000000     -1.38121434
     C          1.09398697      0.00000000     -0.56903173
     C          0.71731126      0.00000000      0.73536428
     H         -1.37199245      0.00000000      1.59213938
     H         -2.04808591      0.00000000     -1.06786475
     H          2.04808591      0.00000000     -1.06786475
     H          1.37199245      0.00000000      1.59213938
 }
 basis=cc-pVTZ
 
 
 
 hf; hf; papt; mp3
 
 
 
 {put,xml;noorbitals,nobasis}
 Commands initialized (841), CPU time= 0.01 sec, 704 directives.
 Default parameters read. Elapsed time= 0.91 sec

 Checking input...
 Passed
1


                                         ***  PROGRAM SYSTEM MOLPRO  ***
                                       Copyright, TTI GmbH Stuttgart, 2015
                                    Version 2023.1 linked Tue Jun  6 09:54:11 2023


 **********************************************************************************************************************************
 LABEL *                                                                                                                                                                 
  64 bit serial version                                                                  DATE: 11-Jun-23          TIME: 12:48:54  
 **********************************************************************************************************************************

 SHA1:             8ebb0dd001088a5c915591db1a321413035db0b1
 **********************************************************************************************************************************

 Memory per process:       393 MW
 Total memory per node:    524 MW
 Total GA space:           131 MW

 GA preallocation disabled
 GA check enabled

 Variable memory set to 393.2 MW

 ZSYMEL=NOSYM


 Geometry recognized as XYZ

 SETTING BASIS          =    CC-PVTZ


 Recomputing integrals since basis changed


 Using spherical harmonics

 Library entry C      S cc-pVTZ              selected for orbital group  1
 Library entry C      P cc-pVTZ              selected for orbital group  1
 Library entry C      D cc-pVTZ              selected for orbital group  1
 Library entry C      F cc-pVTZ              selected for orbital group  1
 Library entry O      S cc-pVTZ              selected for orbital group  2
 Library entry O      P cc-pVTZ              selected for orbital group  2
 Library entry O      D cc-pVTZ              selected for orbital group  2
 Library entry O      F cc-pVTZ              selected for orbital group  2
 Library entry H      S cc-pVTZ              selected for orbital group  4
 Library entry H      P cc-pVTZ              selected for orbital group  4
 Library entry H      D cc-pVTZ              selected for orbital group  4


 PROGRAM * SEWARD (Integral evaluation for generally contracted gaussian basis sets)     Author: Roland Lindh, 1990

 Geometry written to block  1 of record 700


 Point group  C1  



 ATOMIC COORDINATES

 NR  ATOM    CHARGE       X              Y              Z

   1  C       6.00   -1.355521828    0.000000000    1.389637091
   2  C       6.00   -2.067335757    0.000000000   -1.075314126
   3  O       8.00    0.000000000    0.000000000   -2.610116822
   4  C       6.00    2.067335757    0.000000000   -1.075314126
   5  C       6.00    1.355521828    0.000000000    1.389637091
   6  H       1.00   -2.592689976    0.000000000    3.008707380
   7  H       1.00   -3.870321450    0.000000000   -2.017971916
   8  H       1.00    3.870321450    0.000000000   -2.017971916
   9  H       1.00    2.592689976    0.000000000    3.008707380

 Bond lengths in Bohr (Angstrom)

 1-2  2.565670199  1-5  2.711043655  1-6  2.037639229  2-3  2.574780855  2-7  2.034541992
     ( 1.357694200)     ( 1.434622520)     ( 1.078272244)     ( 1.362515351)     ( 1.076633257)

 3-4  2.574780855  4-5  2.565670199  4-8  2.034541992  5-9  2.037639229
     ( 1.362515351)     ( 1.357694200)     ( 1.076633257)     ( 1.078272244)

 Bond angles

  1-2-3  110.48307374   1-2-7  133.70933251   1-5-4  106.10734474   1-5-9  127.38426163

  2-1-5  106.10734474   2-1-6  126.50839363   2-3-4  106.81916303   3-2-7  115.80759375

  3-4-5  110.48307374   3-4-8  115.80759375   4-5-9  126.50839363   5-1-6  127.38426163

  5-4-8  133.70933251

 NUCLEAR CHARGE:                   36
 NUMBER OF PRIMITIVE AOS:         303
 NUMBER OF SYMMETRY AOS:          274
 NUMBER OF CONTRACTIONS:          206   (  206A   )
 NUMBER OF INNER CORE ORBITALS:     0   (    0A   )
 NUMBER OF OUTER CORE ORBITALS:     5   (    5A   )
 NUMBER OF VALENCE ORBITALS:       24   (   24A   )


 NUCLEAR REPULSION ENERGY  160.96170046

 EXTRA SYMMETRY OF AOS IN SYMMETRY 1:   1 1 1 1 1 2 1 1 2 1   1 2 1 1 2 1 1 2 1 2   1 1 2 1 2 1 1 2 2 1   1 1 1 1 1 2 1 1 2 1
                                        1 2 1 1 2 1 1 2 1 2   1 1 2 1 2 1 1 2 2 1   1 1 1 1 1 2 1 1 2 1   1 2 1 1 2 1 1 2 1 2
                                        1 1 2 1 2 1 1 2 2 1   1 1 1 1 1 2 1 1 2 1   1 2 1 1 2 1 1 2 1 2   1 1 2 1 2 1 1 2 2 1
                                        1 1 1 1 1 2 1 1 2 1   1 2 1 1 2 1 1 2 1 2   1 1 2 1 2 1 1 2 2 1   1 1 1 1 2 1 1 2 1 1
                                        2 1 1 2 1 1 1 1 2 1   1 2 1 1 2 1 1 2 1 1   1 1 2 1 1 2 1 1 2 1   1 2 1 1 1 1 2 1 1 2
                                        1 1 2 1 1 2

 Eigenvalues of metric

         1 0.123E-03 0.744E-03 0.999E-03 0.110E-02 0.117E-02 0.134E-02 0.141E-02 0.144E-02


 Contracted 2-electron integrals neglected if value below      1.0D-11
 AO integral compression algorithm  1   Integral accuracy      1.0D-11

     504.889 MB (compressed) written to integral file ( 25.4%)


 NUMBER OF SORTED TWO-ELECTRON INTEGRALS:  227303181.     BUFFER LENGTH:  32768
 NUMBER OF SEGMENTS:  15  SEGMENT LENGTH:   15999503      RECORD LENGTH: 524288

 Memory used in sort:      16.56 MW

 SORT1 READ   248681748. AND WROTE   108305472. INTEGRALS IN    317 RECORDS. CPU TIME:     1.51 SEC, REAL TIME:     1.89 SEC
 SORT2 READ   108305472. AND WROTE   227303181. INTEGRALS IN   1926 RECORDS. CPU TIME:     1.07 SEC, REAL TIME:     1.33 SEC

 FILE SIZES:   FILE 1:   536.6 MBYTE,  FILE 4:  1329.7 MBYTE,   TOTAL:   1866.3 MBYTE

 OPERATOR DM      FOR CENTER  0  COORDINATES:    0.000000    0.000000    0.000000


 **********************************************************************************************************************************
 DATASETS  * FILE   NREC   LENGTH (MB)   RECORD NAMES
              1      19      456.73       500      610      700      900      950      970     1000      129      960     1100   
                                          VAR    BASINP    GEOM    SYMINP    ZMAT    AOBASIS   BASIS     P2S    ABASIS      S 
                                         1400     1410     1200     1210     1080     1600     1650     1300     1700   
                                           T        V       H0       H01     AOSYM     SMH    MOLCAS    ERIS     OPER   

 PROGRAMS   *        TOTAL       INT
 CPU TIMES  *         8.30      8.20
 REAL TIME  *        13.29 SEC
 DISK USED  *         1.74 GB
 **********************************************************************************************************************************


 Program * Restricted Hartree-Fock

 Orbital guess generated from atomic densities. Full valence occupancy:   29

 Initial occupancy:  18

 NELEC=   36   SYM=1   MS2= 0   THRE=1.0D-08   THRD=3.2D-06   THRG=3.2D-06  HFMA2=F  DIIS_START=2   DIIS_MAX=10   DIIS_INCORE=F

 Level shifts:    0.00 (CLOSED)    0.00 (OPEN)    0.30 (GAP_MIN)

 ITER           ETOT              DE          GRAD        DDIFF     DIIS  NEXP   TIME(IT)  TIME(TOT)  DIAG
   1     -228.65600451    -228.65600451     0.00D+00     0.55D-01     0     0       1.03      1.84    start
   2     -228.69769754      -0.04169303     0.34D-02     0.47D-02     1     0       0.99      2.83    diag
   3     -228.70520468      -0.00750714     0.15D-02     0.18D-02     2     0       0.89      3.72    diag
   4     -228.70664324      -0.00143856     0.58D-03     0.69D-03     3     0       1.05      4.77    diag
   5     -228.70674438      -0.00010114     0.17D-03     0.18D-03     4     0       0.97      5.74    diag
   6     -228.70676324      -0.00001886     0.49D-04     0.71D-04     5     0       1.08      6.82    diag
   7     -228.70676887      -0.00000563     0.21D-04     0.46D-04     6     0       1.01      7.83    diag
   8     -228.70676935      -0.00000048     0.61D-05     0.14D-04     7     0       1.07      8.90    fixocc
   9     -228.70676939      -0.00000004     0.21D-05     0.42D-05     8     0       1.10     10.00    diag
  10     -228.70676939      -0.00000000     0.37D-06     0.81D-06     9     0       0.98     10.98    diag/orth
  11     -228.70676939      -0.00000000     0.85D-07     0.16D-06     0     0       0.98     11.96    diag

 Final occupancy:  18

 !RHF STATE 1.1 Energy               -228.706769393376
  RHF One-electron energy            -629.049938275132
  RHF Two-electron energy             239.381468420772
  RHF Kinetic energy                  228.317617687837
  RHF Nuclear energy                  160.961700460983
  RHF Virial quotient                  -1.001704431351

 !RHF STATE 1.1 Dipole moment           0.00000000    -0.00000000     0.29673186
 Dipole moment /Debye                   0.00000000    -0.00000000     0.75421717

 Orbital energies:

           1.1          2.1          3.1          4.1          5.1          6.1          7.1          8.1          9.1         10.1
    -20.620940   -11.286068   -11.286020   -11.229567   -11.228598    -1.455122    -1.081919    -1.002487    -0.804732    -0.779576

          11.1         12.1         13.1         14.1         15.1         16.1         17.1         18.1         19.1         20.1
     -0.737534    -0.631043    -0.607586    -0.575442    -0.562911    -0.538314    -0.396513    -0.319133     0.149647     0.158427


 HOMO     18.1    -0.319133 =      -8.6841eV
 LUMO     19.1     0.149647 =       4.0721eV
 LUMO-HOMO         0.468780 =      12.7562eV

 Orbitals saved in record  2100.2


 **********************************************************************************************************************************
 DATASETS  * FILE   NREC   LENGTH (MB)   RECORD NAMES
              1      19      456.73       500      610      700      900      950      970     1000      129      960     1100   
                                          VAR    BASINP    GEOM    SYMINP    ZMAT    AOBASIS   BASIS     P2S    ABASIS      S 
                                         1400     1410     1200     1210     1080     1600     1650     1300     1700   
                                           T        V       H0       H01     AOSYM     SMH    MOLCAS    ERIS     OPER   

              2       4        1.19       700     1000      520     2100   
                                         GEOM     BASIS   MCVARS     RHF  

 PROGRAMS   *        TOTAL    HF-SCF       INT
 CPU TIMES  *        20.26     11.96      8.20
 REAL TIME  *        27.44 SEC
 DISK USED  *         1.74 GB
 **********************************************************************************************************************************


 Program * Restricted Hartree-Fock

 Molecular orbitals read from record     2100.2  Type=RHF/CANONICAL  

 Initial occupancy:  18

 NELEC=   36   SYM=1   MS2= 0   THRE=1.0D-08   THRD=3.2D-06   THRG=3.2D-06  HFMA2=F  DIIS_START=2   DIIS_MAX=10   DIIS_INCORE=F

 Level shifts:    0.00 (CLOSED)    0.00 (OPEN)    0.30 (GAP_MIN)

 ITER           ETOT              DE          GRAD        DDIFF     DIIS  NEXP   TIME(IT)  TIME(TOT)  DIAG
   1     -228.70676939    -228.70676939     0.00D+00     0.55D-01     0     0       1.09      1.10    start
   2     -228.70676939      -0.00000000     0.39D-07     0.68D-07     1     0       1.02      2.12    diag

 Final occupancy:  18

 !RHF STATE 1.1 Energy               -228.706769393384
  RHF One-electron energy            -629.049927470698
  RHF Two-electron energy             239.381457616331
  RHF Kinetic energy                  228.317610463107
  RHF Nuclear energy                  160.961700460983
  RHF Virial quotient                  -1.001704463048

 !RHF STATE 1.1 Dipole moment          -0.00000000    -0.00000000     0.29671941
 Dipole moment /Debye                  -0.00000000    -0.00000000     0.75418553

 Orbital energies:

           1.1          2.1          3.1          4.1          5.1          6.1          7.1          8.1          9.1         10.1
    -20.620937   -11.286067   -11.286019   -11.229568   -11.228599    -1.455121    -1.081919    -1.002486    -0.804732    -0.779576

          11.1         12.1         13.1         14.1         15.1         16.1         17.1         18.1         19.1         20.1
     -0.737534    -0.631042    -0.607585    -0.575443    -0.562911    -0.538314    -0.396513    -0.319133     0.149647     0.158427


 HOMO     18.1    -0.319133 =      -8.6840eV
 LUMO     19.1     0.149647 =       4.0721eV
 LUMO-HOMO         0.468780 =      12.7562eV

 Orbitals saved in record  2101.2


 **********************************************************************************************************************************
 DATASETS  * FILE   NREC   LENGTH (MB)   RECORD NAMES
              1      19      456.73       500      610      700      900      950      970     1000      129      960     1100   
                                          VAR    BASINP    GEOM    SYMINP    ZMAT    AOBASIS   BASIS     P2S    ABASIS      S 
                                         1400     1410     1200     1210     1080     1600     1650     1300     1700   
                                           T        V       H0       H01     AOSYM     SMH    MOLCAS    ERIS     OPER   

              2       5        2.43       700     1000      520     2100     2101   
                                         GEOM     BASIS   MCVARS     RHF      RHF  

 PROGRAMS   *        TOTAL    HF-SCF    HF-SCF       INT
 CPU TIMES  *        22.39      2.12     11.96      8.20
 REAL TIME  *        30.14 SEC
 DISK USED  *         1.74 GB
 **********************************************************************************************************************************


 PROGRAM * PAPT (Closed-shell)     Authors: C. Hampel, H.-J. Werner, 1991, P.J. Knowles, 2021


 Convergence thresholds:  THRVAR = 1.00D-08  THRDEN = 1.00D-06

 Number of core orbitals:           5 (   5 )
 Number of closed-shell orbitals:  13 (  13 )
 Number of external orbitals:     188 ( 188 )

 Molecular orbitals read from record     2101.2  Type=RHF/CANONICAL  

 Number of N-1 electron functions:              13
 Number of N-2 electron functions:              91
 Number of singly external CSFs:              2444
 Number of doubly external CSFs:           2987790
 Total number of CSFs:                     2990235

 Length of J-op  integral file:               0.00 MB
 Length of K-op  integral file:               2.98 MB

 Integral transformation finished. Total CPU:   2.05 sec, npass=  1  Memory used:   7.32 MW

 Reference energy:                   -228.70676939

                        CORR.ENERGY   TOTAL ENERGY   ENERGY CHANGE
 MP2:                   -0.86933317  -229.57610256    -0.86933317

 SCS-MP2 correlation energy:           -0.85183475   (PS=  1.200000  PT=  0.333333)
 SCS-MP2 total energy:               -229.55860415
 Iteration:   1     0.2923D+00
 Iteration:   2     0.4409D+00
 Iteration:   3     0.8998D-01
 Iteration:   4     0.9178D-01
 Iteration:   5     0.5264D-01
 Iteration:   6     0.2682D-01
 Iteration:   7     0.2385D+00
 Iteration:   8     0.7704D-02
 Iteration:   9     0.1022D-01
 Iteration:  10     0.3408D-02
 Iteration:  11     0.1169D-02
 Iteration:  12     0.7916D-01
 Iteration:  13     0.3062D-03
 Iteration:  14     0.4612D-03
 Iteration:  15     0.1249D-03
 Iteration:  16     0.1096D-03
 Iteration:  17     0.1028D-03
 Iteration:  18     0.2724D-04
 PAPT operator written to  7000.1
 PAPT orbitals and eigenvalues written to  7000.2

 MP3(D):                -0.88173022  -229.58849961    -0.01239705



 RESULTS
 =======

  Reference energy                   -228.706769393385
  MP3 singlet pair energy              -0.579663489020
  MP3 triplet pair energy              -0.302066732298
  MP3 correlation energy               -0.881730221318

 !MP3 total energy                   -229.588499614703

 Timing summary (sec):

 STEP                 CPU(USER)    SYS     CPU(TOT)    WALL
 Transformation          2.17      0.23      2.40      2.62
 CCSD iterations        35.15      0.49     35.64     15.00

 Program statistics:

 Available memory in ccsd:               393215306
 Min. memory needed in ccsd:               7710861
 Max. memory used in ccsd:                10377941
 Max. memory used in cckext:               8130696 ( 1 integral passes)



 **********************************************************************************************************************************
 DATASETS  * FILE   NREC   LENGTH (MB)   RECORD NAMES
              1      21      501.81       500      610      700      900      950      970     1000      129      960     1100   
                                          VAR    BASINP    GEOM    SYMINP    ZMAT    AOBASIS   BASIS     P2S    ABASIS      S 
                                         1400     1410     1200     1210     1080     1600     1650     1300     1700     1380   
                                           T        V       H0       H01     AOSYM     SMH    MOLCAS    ERIS     OPER     JKOP   
                                         7000   
                                        PAPT AO    

              2       6        3.50       700     1000      520     2100     2101     7000   
                                         GEOM     BASIS   MCVARS     RHF      RHF     PAPT   

 PROGRAMS   *        TOTAL      PAPT    HF-SCF    HF-SCF       INT
 CPU TIMES  *        37.22     14.83      2.12     11.96      8.20
 REAL TIME  *        48.11 SEC
 DISK USED  *         1.74 GB
 **********************************************************************************************************************************


 PROGRAM * MP3 (Closed-shell)     Authors: C. Hampel, H.-J. Werner, 1991, M. Deegan, P.J. Knowles, 1992


 Convergence thresholds:  THRVAR = 1.00D-08  THRDEN = 1.00D-06

 Number of core orbitals:           5 (   5 )
 Number of closed-shell orbitals:  13 (  13 )
 Number of external orbitals:     188 ( 188 )

 Molecular orbitals read from record     7000.2  Type=PAPT/CANONICAL (state 1.1)

 Number of N-1 electron functions:              13
 Number of N-2 electron functions:              91
 Number of singly external CSFs:              2444
 Number of doubly external CSFs:           2987790
 Total number of CSFs:                     2990235

 Length of J-op  integral file:               0.00 MB
 Length of K-op  integral file:               2.98 MB

 Integral transformation finished. Total CPU:   1.86 sec, npass=  1  Memory used:   7.32 MW
 Orbital energies read from record       7000.2  Type=PAPT/CANONICAL (state 1.1)

 Reference energy:                   -228.70676939

                        CORR.ENERGY   TOTAL ENERGY   ENERGY CHANGE
 MP2:                   -0.88949638  -229.59626577    -0.88949638

 SCS-MP2 correlation energy:           -0.87654709   (PS=  1.200000  PT=  0.333333)
 SCS-MP2 total energy:               -229.58331649

 MP3(D):                -0.88986280  -229.59663219    -0.00036642



 RESULTS
 =======

  Reference energy                   -228.706769393385
  MP3 singlet pair energy              -0.586686545355
  MP3 triplet pair energy              -0.303176253985
  MP3 correlation energy               -0.889862799340

 !MP3 total energy                   -229.596632192725

 Timing summary (sec):

 STEP                 CPU(USER)    SYS     CPU(TOT)    WALL
 Transformation          3.03      0.33      3.36      3.62
 CCSD iterations        42.88      0.24     43.12      6.64

 Program statistics:

 Available memory in ccsd:               393215306
 Min. memory needed in ccsd:               7710861
 Max. memory used in ccsd:                10377941
 Max. memory used in cckext:               8130696 ( 1 integral passes)



 **********************************************************************************************************************************
 DATASETS  * FILE   NREC   LENGTH (MB)   RECORD NAMES
              1      21      501.81       500      610      700      900      950      970     1000      129      960     1100   
                                          VAR    BASINP    GEOM    SYMINP    ZMAT    AOBASIS   BASIS     P2S    ABASIS      S 
                                         1400     1410     1200     1210     1080     1600     1650     1300     1700     1380   
                                           T        V       H0       H01     AOSYM     SMH    MOLCAS    ERIS     OPER     JKOP   
                                         7000   
                                        PAPT AO    

              2       6        3.50       700     1000      520     2100     2101     7000   
                                         GEOM     BASIS   MCVARS     RHF      RHF     PAPT   

 PROGRAMS   *        TOTAL       MP3      PAPT    HF-SCF    HF-SCF       INT
 CPU TIMES  *        45.81      8.59     14.83      2.12     11.96      8.20
 REAL TIME  *        58.66 SEC
 DISK USED  *         1.74 GB
 **********************************************************************************************************************************

 Dump information in style XML to xml output                                                                      

 Orbitals will not be exported.

 **********************************************************************************************************************************

 MP3/cc-pVTZ energy=   -229.596632192725

             MP3            PAPT          HF-SCF          HF-SCF
   -229.59663219   -229.58849961   -228.70676939   -228.70676939
 **********************************************************************************************************************************
 Molpro calculation terminated
