
 Working directory              : /tmp/peterk/molpro.rismXAMXEZ/
 Global scratch directory       : /tmp/peterk/molpro.rismXAMXEZ/
 Wavefunction directory         : /home/peterk/wfu/
 Main file repository           : /tmp/peterk/molpro.rismXAMXEZ/

 id        : peterk

 Nodes     nprocs
 marat        1
 GA implementation: MPI file
 GA implementation (serial work in mppx): MPI file

 Using customized tuning parameters: mindgm=1; mindgv=20; mindgc=4; mindgr=1; noblas=0; minvec=7
 default implementation of scratch files=df  


 Variables initialized (1032), CPU time= 0.00 sec
 
 core,small
 angstrom
 
 geometry={
 H;C,H,1.06553056;N,C,1.15383982,H,180
 }
 basis=cc-pCVTZ
 
 
 
 hf; mp4
 
 
 
 {put,xml;noorbitals,nobasis}
 Commands initialized (841), CPU time= 0.00 sec, 708 directives.
 Default parameters read. Elapsed time= 0.05 sec

 Checking input...
 Passed
1


                                         ***  PROGRAM SYSTEM MOLPRO  ***
                                       Copyright, TTI GmbH Stuttgart, 2015
                                    Version 2023.1 linked Sat Jun 10 08:01:27 2023


 **********************************************************************************************************************************
 LABEL *                                                                                                                                                                 
  (16 PROC) 64 bit serial version                                                        DATE: 12-Jun-23          TIME: 10:25:55  
 **********************************************************************************************************************************

 SHA1:             8376d659ba1296ca7ee514c57770fe2c96af278c
 **********************************************************************************************************************************

 Memory per process:      1074 MW
 Total memory per node:   1074 MW

 GA preallocation disabled
 GA check disabled

 Variable memory set to 1073.7 MW

 ZUNIT=ANG

 SETTING BASIS          =    CC-PCVTZ


 Recomputing integrals since basis changed


 Using spherical harmonics

 Library entry H      S cc-pVTZ              selected for orbital group  1
 Library entry H      P cc-pVTZ              selected for orbital group  1
 Library entry H      D cc-pVTZ              selected for orbital group  1
 Library entry C      S cc-pCVTZ             selected for orbital group  2
 Library entry C      P cc-pCVTZ             selected for orbital group  2
 Library entry C      D cc-pCVTZ             selected for orbital group  2
 Library entry C      F cc-pCVTZ             selected for orbital group  2
 Library entry N      S cc-pCVTZ             selected for orbital group  3
 Library entry N      P cc-pCVTZ             selected for orbital group  3
 Library entry N      D cc-pCVTZ             selected for orbital group  3
 Library entry N      F cc-pCVTZ             selected for orbital group  3


 PROGRAM * SEWARD (Integral evaluation for generally contracted gaussian basis sets)     Author: Roland Lindh, 1990

 Geometry written to block  1 of record 700

 Orientation using atomic masses  
 Molecule type: Linear
 Symmetry elements: X,Y
 Rotational constants:      44.4511927     44.4511927      0.0000000 GHz  (calculated with average atomic masses)

 Point group  C2v 



 ATOMIC COORDINATES

 NR  ATOM    CHARGE       X              Y              Z

   1  H       1.00    0.000000000    0.000000000   -3.068530878
   2  C       6.00    0.000000000    0.000000000   -1.054969942
   3  N       7.00    0.000000000    0.000000000    1.125471309

 Bond lengths in Bohr (Angstrom)

 1-2  2.013560936  2-3  2.180441251
     ( 1.065530560)     ( 1.153839820)

 Bond angles

  1-2-3  179.99999879

 NUCLEAR CHARGE:                   14
 NUMBER OF PRIMITIVE AOS:         139
 NUMBER OF SYMMETRY AOS:          126
 NUMBER OF CONTRACTIONS:          100   (   45A1  +   23B1  +   23B2  +    9A2  )
 NUMBER OF INNER CORE ORBITALS:     0   (    0A1  +    0B1  +    0B2  +    0A2  )
 NUMBER OF OUTER CORE ORBITALS:     2   (    2A1  +    0B1  +    0B2  +    0A2  )
 NUMBER OF VALENCE ORBITALS:        9   (    5A1  +    2B1  +    2B2  +    0A2  )


 NUCLEAR REPULSION ENERGY   23.91100196

 EXTRA SYMMETRY OF AOS IN SYMMETRY 1:   1 1 1 1 1 1 2 1 1 1   1 1 1 1 1 1 1 1 1 2   1 2 1 2 1 2 1 1 1 1   1 1 1 1 1 1 1 1 2 1
                                        2 1 2 1 2
 EXTRA SYMMETRY OF AOS IN SYMMETRY 2:   1 1 1 1 1 1 1 1 1 1   1 1 2 1 1 1 1 1 1 1   1 1 2
 EXTRA SYMMETRY OF AOS IN SYMMETRY 3:   1 1 1 1 1 1 1 1 1 1   1 1 2 1 1 1 1 1 1 1   1 1 2

 Eigenvalues of metric

         1 0.574E-03 0.101E-02 0.167E-02 0.536E-02 0.816E-02 0.110E-01 0.127E-01 0.136E-01
         2 0.120E-01 0.233E-01 0.513E-01 0.732E-01 0.128E+00 0.280E+00 0.350E+00 0.381E+00
         3 0.120E-01 0.233E-01 0.513E-01 0.732E-01 0.128E+00 0.280E+00 0.350E+00 0.381E+00
         4 0.289E+00 0.450E+00 0.549E+00 0.827E+00 0.988E+00 0.101E+01 0.129E+01 0.156E+01


 Contracted 2-electron integrals neglected if value below      1.0D-11
 AO integral compression algorithm  1   Integral accuracy      1.0D-11

     15.466 MB (compressed) written to integral file ( 43.2%)


 NUMBER OF SORTED TWO-ELECTRON INTEGRALS:    3413085.     BUFFER LENGTH:  32768
 NUMBER OF SEGMENTS:   1  SEGMENT LENGTH:    3413085      RECORD LENGTH: 524288

 Memory used in sort:       3.97 MW

 SORT1 READ     4416514. AND WROTE     2569642. INTEGRALS IN      8 RECORDS. CPU TIME:     0.05 SEC, REAL TIME:     0.07 SEC
 SORT2 READ     2569642. AND WROTE     3413085. INTEGRALS IN     59 RECORDS. CPU TIME:     0.06 SEC, REAL TIME:     0.08 SEC

 FILE SIZES:   FILE 1:    45.7 MBYTE,  FILE 4:    33.6 MBYTE,   TOTAL:     79.3 MBYTE

 OPERATOR DM      FOR CENTER  0  COORDINATES:    0.000000    0.000000    0.000000


 **********************************************************************************************************************************
 DATASETS  * FILE   NREC   LENGTH (MB)   RECORD NAMES
              1      19       39.98       500      610      700      900      950      970     1000      129      960     1100   
                                          VAR    BASINP    GEOM    SYMINP    ZMAT    AOBASIS   BASIS     P2S    ABASIS      S 
                                         1400     1410     1200     1210     1080     1600     1650     1300     1700   
                                           T        V       H0       H01     AOSYM     SMH    MOLCAS    ERIS     OPER   

 PROGRAMS   *        TOTAL       INT
 CPU TIMES  *         1.00      0.88
 REAL TIME  *         1.67 SEC
 DISK USED  *        76.01 MB
 **********************************************************************************************************************************


 Program * Restricted Hartree-Fock

 Orbital guess generated from atomic densities. Full valence occupancy:    7   2   2   0

 Initial occupancy:   5   1   1   0

 NELEC=   14   SYM=1   MS2= 0   THRE=1.0D-08   THRD=3.2D-06   THRG=3.2D-06  HFMA2=F  DIIS_START=2   DIIS_MAX=10   DIIS_INCORE=F

 Level shifts:    0.00 (CLOSED)    0.00 (OPEN)    0.30 (GAP_MIN)

 ITER           ETOT              DE          GRAD        DDIFF     DIIS  NEXP   TIME(IT)  TIME(TOT)  DIAG
   1      -92.88448664     -92.88448664     0.00D+00     0.12D+00     0     0       0.01      0.02    start
   2      -92.89350029      -0.00901365     0.98D-02     0.14D-01     1     0       0.01      0.03    diag
   3      -92.90857166      -0.01507137     0.87D-02     0.71D-02     2     0       0.01      0.04    diag
   4      -92.90879570      -0.00022405     0.72D-03     0.11D-02     3     0       0.01      0.05    diag
   5      -92.90880842      -0.00001271     0.16D-03     0.31D-03     4     0       0.01      0.06    diag
   6      -92.90880917      -0.00000076     0.43D-04     0.68D-04     5     0       0.02      0.08    diag
   7      -92.90880925      -0.00000007     0.15D-04     0.23D-04     6     0       0.01      0.09    diag
   8      -92.90880925      -0.00000000     0.33D-05     0.47D-05     7     0       0.01      0.10    fixocc
   9      -92.90880925      -0.00000000     0.36D-06     0.76D-06     8     0       0.01      0.11    diag
  10      -92.90880925      -0.00000000     0.42D-07     0.58D-07     0     0       0.01      0.12    diag/orth

 Final occupancy:   5   1   1   0

 !RHF STATE 1.1 Energy                -92.908809251740
  RHF One-electron energy            -172.625586091595
  RHF Two-electron energy              55.805774880165
  RHF Kinetic energy                   92.719408770512
  RHF Nuclear energy                   23.911001959690
  RHF Virial quotient                  -1.002042727448

 !RHF STATE 1.1 Dipole moment           0.00000000     0.00000000    -1.28184112
 Dipole moment /Debye                   0.00000000     0.00000000    -3.25811513

 Orbital energies:

           1.1          2.1          3.1          4.1          5.1          6.1          7.1
    -15.597443   -11.290155    -1.235273    -0.812008    -0.581244     0.140928     0.235826

           1.2          2.2          3.2
     -0.495448     0.166591     0.444803

           1.3          2.3          3.3
     -0.495448     0.166591     0.444803

           1.4          2.4
      0.810120     1.419157


 HOMO      1.3    -0.495448 =     -13.4818eV
 LUMO      6.1     0.140928 =       3.8348eV
 LUMO-HOMO         0.636375 =      17.3167eV

 Orbitals saved in record  2100.2


 **********************************************************************************************************************************
 DATASETS  * FILE   NREC   LENGTH (MB)   RECORD NAMES
              1      19       39.98       500      610      700      900      950      970     1000      129      960     1100   
                                          VAR    BASINP    GEOM    SYMINP    ZMAT    AOBASIS   BASIS     P2S    ABASIS      S 
                                         1400     1410     1200     1210     1080     1600     1650     1300     1700   
                                           T        V       H0       H01     AOSYM     SMH    MOLCAS    ERIS     OPER   

              2       4        0.45       700     1000      520     2100   
                                         GEOM     BASIS   MCVARS     RHF  

 PROGRAMS   *        TOTAL    HF-SCF       INT
 CPU TIMES  *         1.12      0.12      0.88
 REAL TIME  *         1.80 SEC
 DISK USED  *        76.01 MB
 **********************************************************************************************************************************


 PROGRAM * MP4 (Closed-shell)     Authors: C. Hampel, H.-J. Werner, 1991, M. Deegan, P.J. Knowles, 1992


 CORETYPE=SMALL

 Convergence thresholds:  THRVAR = 1.00D-08  THRDEN = 1.00D-06

 MP4(T)     terms to be evaluated (factor= 0.000)


 Number of closed-shell orbitals:   7 (   5   1   1   0 )
 Number of external orbitals:      93 (  40  22  22   9 )

 Molecular orbitals read from record     2100.2  Type=RHF/CANONICAL  

 Number of N-1 electron functions:               7
 Number of N-2 electron functions:              28
 Number of singly external CSFs:               244
 Number of doubly external CSFs:             59335
 Total number of CSFs:                       59580

 Length of J-op  integral file:               0.00 MB
 Length of K-op  integral file:               0.28 MB

 Memory could be reduced to 2.15 Mwords without degradation in triples

 Integral transformation finished. Total CPU:   0.05 sec, npass=  1  Memory used:   0.43 MW

 Reference energy:                    -92.90880925

                        CORR.ENERGY   TOTAL ENERGY   ENERGY CHANGE
 MP2:                   -0.44585865   -93.35466791    -0.44585865

 SCS-MP2 correlation energy:           -0.45270762   (PS=  1.200000  PT=  0.333333)
 SCS-MP2 total energy:                -93.36151687

 MP3(D):                -0.44798263   -93.35679188    -0.00212397
 MP4(DQ):               -0.44813443   -93.35694368    -0.00015181
 MP4(SDQ):              -0.45392461   -93.36273386    -0.00579018

 Norm of t1 vector:      0.05893719      S-energy:    -0.00579018      T1 diagnostic:  0.01113808


 Total CPU time for triples:      0.31 sec


 RESULTS
 =======

  Reference energy                    -92.908809251740

  Correlated core orbitals:             1.1       2.1
  Orbital energies:                   -15.5974  -11.2902

  MP4(SDQ) core-core energy            -0.076245923849
  MP4(SDQ) core-valence energy         -0.025403309446
  MP4(SDQ) valence correlation ener    -0.352275373870

  MP4(SDQ) singlet pair energy         -0.319883443093
  MP4(SDQ) triplet pair energy         -0.128250988764
  MP4(SDQ) correlation energy          -0.453924607165

  Triples contribution                 -0.022187544531
  Total correlation energy             -0.476112151696

  MP4(SDQ) total energy               -93.362733858905
 !MP4(SDTQ) total energy              -93.384921403436

 Timing summary (sec):

 STEP                 CPU(USER)    SYS     CPU(TOT)    WALL
 Transformation          0.05      0.01      0.06      0.06
 CCSD iterations         1.49      0.00      1.49      0.08
 Triples                 0.31      0.02      0.33      0.33

 Program statistics:

 Available memory in ccsd:              1073741623
 Min. memory needed in ccsd:                201324
 Max. memory used in ccsd:                  249061
 Max. memory used in cckext:                259281 ( 1 integral passes)



 **********************************************************************************************************************************
 DATASETS  * FILE   NREC   LENGTH (MB)   RECORD NAMES
              1      20       46.71       500      610      700      900      950      970     1000      129      960     1100   
                                          VAR    BASINP    GEOM    SYMINP    ZMAT    AOBASIS   BASIS     P2S    ABASIS      S 
                                         1400     1410     1200     1210     1080     1600     1650     1300     1700     1380   
                                           T        V       H0       H01     AOSYM     SMH    MOLCAS    ERIS     OPER     JKOP   

              2       4        0.45       700     1000      520     2100   
                                         GEOM     BASIS   MCVARS     RHF  

 PROGRAMS   *        TOTAL       MP4    HF-SCF       INT
 CPU TIMES  *         1.58      0.46      0.12      0.88
 REAL TIME  *         2.30 SEC
 DISK USED  *        76.01 MB
 **********************************************************************************************************************************

 Dump information in style XML to xml output                                                                      

 Orbitals will not be exported.

 **********************************************************************************************************************************

 MP4/cc-pCVTZ energy=    -93.384921403436

             MP4          HF-SCF
    -93.38492140    -92.90880925
 **********************************************************************************************************************************
 Molpro calculation terminated
