
 Working directory              : /var/folders/2v/xbgp75_9785319ghcgb4zr4r0000gp/T//molpro.cbbDMKBV5H/
 Global scratch directory       : /var/folders/2v/xbgp75_9785319ghcgb4zr4r0000gp/T//molpro.cbbDMKBV5H/
 Wavefunction directory         : /Users/sacpjk/wfu/
 Main file repository           : /var/folders/2v/xbgp75_9785319ghcgb4zr4r0000gp/T//molpro.cbbDMKBV5H/

 id        : peterk

 Nodes                        nprocs
 Cardiff-University-G34YLXT77Y    1
 GA implementation: MPI file
 GA implementation (serial work in mppx): MPI file

 Using customized tuning parameters: mindgm=1; mindgv=20; mindgc=4; mindgr=1; noblas=0; minvec=7
 default implementation of scratch files=df  


 Variables initialized (1032), CPU time= 0.00 sec
 
 core,small
 angstrom
 
 geometry={
 H;F,H,0.91576748
 }
 basis=cc-pCVQZ
 
 
 
 hf
 
 
 
 {put,xml;noorbitals,nobasis}
 Commands initialized (841), CPU time= 0.01 sec, 704 directives.
 Default parameters read. Elapsed time= 1.95 sec

 Checking input...
 Passed
1


                                         ***  PROGRAM SYSTEM MOLPRO  ***
                                       Copyright, TTI GmbH Stuttgart, 2015
                                    Version 2023.1 linked Tue Jun  6 09:54:11 2023


 **********************************************************************************************************************************
 LABEL *                                                                                                                                                                 
  64 bit serial version                                                                  DATE: 12-Jun-23          TIME: 10:36:57  
 **********************************************************************************************************************************

 SHA1:             8ebb0dd001088a5c915591db1a321413035db0b1
 **********************************************************************************************************************************

 Memory per process:       393 MW
 Total memory per node:    524 MW
 Total GA space:           131 MW

 GA preallocation disabled
 GA check enabled

 Variable memory set to 393.2 MW

 ZUNIT=ANG

 SETTING BASIS          =    CC-PCVQZ


 Recomputing integrals since basis changed


 Using spherical harmonics

 Library entry H      S cc-pVQZ              selected for orbital group  1
 Library entry H      P cc-pVQZ              selected for orbital group  1
 Library entry H      D cc-pVQZ              selected for orbital group  1
 Library entry H      F cc-pVQZ              selected for orbital group  1
 Library entry F      S cc-pCVQZ             selected for orbital group  2
 Library entry F      P cc-pCVQZ             selected for orbital group  2
 Library entry F      D cc-pCVQZ             selected for orbital group  2
 Library entry F      F cc-pCVQZ             selected for orbital group  2
 Library entry F      G cc-pCVQZ             selected for orbital group  2


 PROGRAM * SEWARD (Integral evaluation for generally contracted gaussian basis sets)     Author: Roland Lindh, 1990

 Geometry written to block  1 of record 700

 Orientation using atomic masses  
 Molecule type: Linear
 Symmetry elements: X,Y
 Rotational constants:     629.5970564    629.5970564      0.0000000 GHz  (calculated with average atomic masses)

 Point group  C2v 



 ATOMIC COORDINATES

 NR  ATOM    CHARGE       X              Y              Z

   1  H       1.00    0.000000000    0.000000000   -1.643362868
   2  F       9.00    0.000000000    0.000000000    0.087186863

 Bond lengths in Bohr (Angstrom)

 1-2  1.730549731
     ( 0.915767480)

 NUCLEAR CHARGE:                   10
 NUMBER OF PRIMITIVE AOS:         154
 NUMBER OF SYMMETRY AOS:          129
 NUMBER OF CONTRACTIONS:          114   (   47A1  +   27B1  +   27B2  +   13A2  )
 NUMBER OF INNER CORE ORBITALS:     0   (    0A1  +    0B1  +    0B2  +    0A2  )
 NUMBER OF OUTER CORE ORBITALS:     1   (    1A1  +    0B1  +    0B2  +    0A2  )
 NUMBER OF VALENCE ORBITALS:        5   (    3A1  +    1B1  +    1B2  +    0A2  )


 NUCLEAR REPULSION ENERGY    5.20065956

 EXTRA SYMMETRY OF AOS IN SYMMETRY 1:   1 1 1 1 1 1 1 1 2 1   2 1 2 1 1 1 1 1 1 1   1 1 1 1 1 1 1 1 1 2   1 2 1 2 1 2 1 2 1 2
                                        1 2 1 2 1 3 2
 EXTRA SYMMETRY OF AOS IN SYMMETRY 2:   1 1 1 1 1 1 2 1 1 1   1 1 1 1 1 1 1 1 1 1   2 1 2 1 2 1 2
 EXTRA SYMMETRY OF AOS IN SYMMETRY 3:   1 1 1 1 1 1 2 1 1 1   1 1 1 1 1 1 1 1 1 1   2 1 2 1 2 1 2
 EXTRA SYMMETRY OF AOS IN SYMMETRY 4:   1 1 1 1 1 1 1 1 1 1   1 1 2

 Eigenvalues of metric

         1 0.256E-04 0.378E-03 0.138E-02 0.192E-02 0.257E-02 0.663E-02 0.152E-01 0.394E-01
         2 0.271E-02 0.129E-01 0.695E-01 0.117E+00 0.129E+00 0.164E+00 0.248E+00 0.366E+00
         3 0.271E-02 0.129E-01 0.695E-01 0.117E+00 0.129E+00 0.164E+00 0.248E+00 0.366E+00
         4 0.152E+00 0.215E+00 0.401E+00 0.453E+00 0.624E+00 0.852E+00 0.992E+00 0.100E+01


 Contracted 2-electron integrals neglected if value below      1.0D-12
 AO integral compression algorithm  1   Integral accuracy      1.0D-12

     31.719 MB (compressed) written to integral file ( 56.8%)


 NUMBER OF SORTED TWO-ELECTRON INTEGRALS:    5621749.     BUFFER LENGTH:  32768
 NUMBER OF SEGMENTS:   1  SEGMENT LENGTH:    5621749      RECORD LENGTH: 524288

 Memory used in sort:       6.18 MW

 SORT1 READ     7034291. AND WROTE     3813839. INTEGRALS IN     11 RECORDS. CPU TIME:     0.05 SEC, REAL TIME:     0.07 SEC
 SORT2 READ     3813839. AND WROTE     5621749. INTEGRALS IN    121 RECORDS. CPU TIME:     0.08 SEC, REAL TIME:     0.09 SEC

 FILE SIZES:   FILE 1:    62.0 MBYTE,  FILE 4:    46.2 MBYTE,   TOTAL:    108.2 MBYTE

 OPERATOR DM      FOR CENTER  0  COORDINATES:    0.000000    0.000000    0.000000


 **********************************************************************************************************************************
 DATASETS  * FILE   NREC   LENGTH (MB)   RECORD NAMES
              1      19       49.84       500      610      700      900      950      970     1000      129      960     1100   
                                          VAR    BASINP    GEOM    SYMINP    ZMAT    AOBASIS   BASIS     P2S    ABASIS      S 
                                         1400     1410     1200     1210     1080     1600     1650     1300     1700   
                                           T        V       H0       H01     AOSYM     SMH    MOLCAS    ERIS     OPER   

 PROGRAMS   *        TOTAL       INT
 CPU TIMES  *         0.65      0.56
 REAL TIME  *         4.47 SEC
 DISK USED  *       103.56 MB
 **********************************************************************************************************************************


 Program * Restricted Hartree-Fock

 Orbital guess generated from atomic densities. Full valence occupancy:    4   1   1   0

 Initial occupancy:   3   1   1   0

 NELEC=   10   SYM=1   MS2= 0   THRE=1.0D-08   THRD=3.2D-06   THRG=3.2D-06  HFMA2=F  DIIS_START=2   DIIS_MAX=10   DIIS_INCORE=F

 Level shifts:    0.00 (CLOSED)    0.00 (OPEN)    0.30 (GAP_MIN)

 ITER           ETOT              DE          GRAD        DDIFF     DIIS  NEXP   TIME(IT)  TIME(TOT)  DIAG
   1     -100.04121546    -100.04121546     0.00D+00     0.10D+00     0     0       0.02      0.03    start
   2     -100.06154715      -0.02033169     0.14D-01     0.13D-01     1     0       0.01      0.04    diag
   3     -100.06770940      -0.00616225     0.85D-02     0.42D-02     2     0       0.01      0.05    diag
   4     -100.06782952      -0.00012012     0.83D-03     0.63D-03     3     0       0.01      0.06    diag
   5     -100.06784671      -0.00001720     0.26D-03     0.25D-03     4     0       0.01      0.07    diag
   6     -100.06784808      -0.00000137     0.58D-04     0.70D-04     5     0       0.02      0.09    diag
   7     -100.06784812      -0.00000004     0.97D-05     0.13D-04     6     0       0.01      0.10    diag
   8     -100.06784812      -0.00000000     0.10D-05     0.18D-05     7     0       0.01      0.11    fixocc
   9     -100.06784812      -0.00000000     0.11D-06     0.12D-06     0     0       0.01      0.12    diag

 Final occupancy:   3   1   1   0

 !RHF STATE 1.1 Energy               -100.067848124376
  RHF One-electron energy            -150.633003285352
  RHF Two-electron energy              45.364495602584
  RHF Kinetic energy                  100.035707289622
  RHF Nuclear energy                    5.200659558392
  RHF Virial quotient                  -1.000321293622

 !RHF STATE 1.1 Dipole moment           0.00000000     0.00000000    -0.75978013
 Dipole moment /Debye                   0.00000000     0.00000000    -1.93116845

 Orbital energies:

           1.1          2.1          3.1          4.1          5.1
    -26.291281    -1.598806    -0.765889     0.117136     0.465314

           1.2          2.2          3.2
     -0.648014     0.634991     0.738561

           1.3          2.3          3.3
     -0.648014     0.634991     0.738561

           1.4          2.4
      1.562827     2.272064


 HOMO      1.3    -0.648014 =     -17.6334eV
 LUMO      4.1     0.117136 =       3.1874eV
 LUMO-HOMO         0.765150 =      20.8208eV

 Orbitals saved in record  2100.2


 **********************************************************************************************************************************
 DATASETS  * FILE   NREC   LENGTH (MB)   RECORD NAMES
              1      19       49.84       500      610      700      900      950      970     1000      129      960     1100   
                                          VAR    BASINP    GEOM    SYMINP    ZMAT    AOBASIS   BASIS     P2S    ABASIS      S 
                                         1400     1410     1200     1210     1080     1600     1650     1300     1700   
                                           T        V       H0       H01     AOSYM     SMH    MOLCAS    ERIS     OPER   

              2       4        0.45       700     1000      520     2100   
                                         GEOM     BASIS   MCVARS     RHF  

 PROGRAMS   *        TOTAL    HF-SCF       INT
 CPU TIMES  *         0.77      0.12      0.56
 REAL TIME  *         5.50 SEC
 DISK USED  *       103.56 MB
 **********************************************************************************************************************************

 Dump information in style XML to xml output                                                                      

 Orbitals will not be exported.

 **********************************************************************************************************************************

 HF/cc-pCVQZ energy=   -100.067848124376

          HF-SCF
   -100.06784812
 **********************************************************************************************************************************
 Molpro calculation terminated
