
 Working directory              : /var/folders/2v/xbgp75_9785319ghcgb4zr4r0000gp/T//molpro.M5QMtlVUOT/
 Global scratch directory       : /var/folders/2v/xbgp75_9785319ghcgb4zr4r0000gp/T//molpro.M5QMtlVUOT/
 Wavefunction directory         : /Users/sacpjk/wfu/
 Main file repository           : /var/folders/2v/xbgp75_9785319ghcgb4zr4r0000gp/T//molpro.M5QMtlVUOT/

 id        : peterk

 Nodes                        nprocs
 Cardiff-University-G34YLXT77Y    1
 GA implementation: MPI file
 GA implementation (serial work in mppx): MPI file

 Using customized tuning parameters: mindgm=1; mindgv=20; mindgc=4; mindgr=1; noblas=0; minvec=7
 default implementation of scratch files=df  


 Variables initialized (1032), CPU time= 0.00 sec
 
 symmetry,nosym
 
 
 geometry={
            6
     F          0.00000000      0.00000000     -1.88993626
     C          0.00000000      0.00000000     -0.48156276
     H         -0.51236000      0.88743354     -0.12780248
     H         -0.51236000     -0.88743354     -0.12780248
     H          1.02471999      0.00000000     -0.12780248
     CL         0.00000000      0.00000000      2.75490646
 }
 basis=cc-pVDZ
 
 charge=-1
 
 hf; hf; papt; mp3
 
 
 
 {put,xml;noorbitals,nobasis}
 Commands initialized (841), CPU time= 0.00 sec, 704 directives.
 Default parameters read. Elapsed time= 0.33 sec

 Checking input...
 Passed
1


                                         ***  PROGRAM SYSTEM MOLPRO  ***
                                       Copyright, TTI GmbH Stuttgart, 2015
                                    Version 2023.1 linked Tue Jun  6 09:54:11 2023


 **********************************************************************************************************************************
 LABEL *                                                                                                                                                                 
  64 bit serial version                                                                  DATE: 09-Jun-23          TIME: 16:05:06  
 **********************************************************************************************************************************

 SHA1:             8ebb0dd001088a5c915591db1a321413035db0b1
 **********************************************************************************************************************************

 Memory per process:       805 MW
 Total memory per node:   1074 MW
 Total GA space:           268 MW

 GA preallocation disabled
 GA check enabled

 Variable memory set to 805.3 MW

 ZSYMEL=NOSYM


 Geometry recognized as XYZ

 SETTING BASIS          =    CC-PVDZ
 SETTING CHARGE         =        -1.00000000                                  


 Recomputing integrals since basis changed


 Using spherical harmonics

 Library entry F      S cc-pVDZ              selected for orbital group  1
 Library entry F      P cc-pVDZ              selected for orbital group  1
 Library entry F      D cc-pVDZ              selected for orbital group  1
 Library entry C      S cc-pVDZ              selected for orbital group  2
 Library entry C      P cc-pVDZ              selected for orbital group  2
 Library entry C      D cc-pVDZ              selected for orbital group  2
 Library entry H      S cc-pVDZ              selected for orbital group  3
 Library entry H      P cc-pVDZ              selected for orbital group  3
 Library entry CL     S cc-pVDZ              selected for orbital group  4
 Library entry CL     P cc-pVDZ              selected for orbital group  4
 Library entry CL     D cc-pVDZ              selected for orbital group  4


 PROGRAM * SEWARD (Integral evaluation for generally contracted gaussian basis sets)     Author: Roland Lindh, 1990

 Geometry written to block  1 of record 700


 Point group  C1  



 ATOMIC COORDINATES

 NR  ATOM    CHARGE       X              Y              Z

   1  F       9.00    0.000000000    0.000000000   -3.571461924
   2  C       6.00    0.000000000    0.000000000   -0.910021728
   3  H       1.00   -0.968220077    1.677006344   -0.241511685
   4  H       1.00   -0.968220077   -1.677006344   -0.241511685
   5  H       1.00    1.936440136    0.000000000   -0.241511685
   6  CL     17.00    0.000000000    0.000000000    5.206018708

 Bond lengths in Bohr (Angstrom)

 1-2  2.661440196  2-3  2.048586360  2-4  2.048586360  2-5  2.048586360
     ( 1.408373500)     ( 1.084065216)     ( 1.084065216)     ( 1.084065216)

 Bond angles

  1-2-3  109.04601992   1-2-4  109.04601992   1-2-5  109.04601992   3-2-4  109.89305339

  3-2-5  109.89305420   4-2-5  109.89305420

 NUCLEAR CHARGE:                   35
 NUMBER OF PRIMITIVE AOS:         117
 NUMBER OF SYMMETRY AOS:          114
 NUMBER OF CONTRACTIONS:           61   (   61A   )
 NUMBER OF INNER CORE ORBITALS:     1   (    1A   )
 NUMBER OF OUTER CORE ORBITALS:     6   (    6A   )
 NUMBER OF VALENCE ORBITALS:       15   (   15A   )


 NUCLEAR REPULSION ENERGY   79.90971378


 Eigenvalues of metric

         1 0.114E-01 0.228E-01 0.324E-01 0.362E-01 0.362E-01 0.458E-01 0.491E-01 0.491E-01


 Contracted 2-electron integrals neglected if value below      1.0D-11
 AO integral compression algorithm  1   Integral accuracy      1.0D-11

     5.767 MB (compressed) written to integral file ( 32.6%)


 NUMBER OF SORTED TWO-ELECTRON INTEGRALS:    1788886.     BUFFER LENGTH:  32768
 NUMBER OF SEGMENTS:   1  SEGMENT LENGTH:    1788886      RECORD LENGTH: 524288

 Memory used in sort:       2.35 MW

 SORT1 READ     2175153. AND WROTE     1123463. INTEGRALS IN      4 RECORDS. CPU TIME:     0.01 SEC, REAL TIME:     0.01 SEC
 SORT2 READ     1123463. AND WROTE     1788886. INTEGRALS IN     22 RECORDS. CPU TIME:     0.03 SEC, REAL TIME:     0.03 SEC

 FILE SIZES:   FILE 1:    36.0 MBYTE,  FILE 4:    16.8 MBYTE,   TOTAL:     52.8 MBYTE

 OPERATOR DM      FOR CENTER  0  COORDINATES:    0.000000    0.000000    0.000000


 **********************************************************************************************************************************
 DATASETS  * FILE   NREC   LENGTH (MB)   RECORD NAMES
              1      19       33.15       500      610      700      900      950      970     1000      129      960     1100   
                                          VAR    BASINP    GEOM    SYMINP    ZMAT    AOBASIS   BASIS     P2S    ABASIS      S 
                                         1400     1410     1200     1210     1080     1600     1650     1300     1700   
                                           T        V       H0       H01     AOSYM     SMH    MOLCAS    ERIS     OPER   

 PROGRAMS   *        TOTAL       INT
 CPU TIMES  *         0.30      0.21
 REAL TIME  *         1.21 SEC
 DISK USED  *        50.79 MB
 **********************************************************************************************************************************


 Program * Restricted Hartree-Fock

 Orbital guess generated from atomic densities. Full valence occupancy:   22

 Initial occupancy:  18

 NELEC=   36   SYM=1   MS2= 0   THRE=1.0D-08   THRD=3.2D-06   THRG=3.2D-06  HFMA2=F  DIIS_START=2   DIIS_MAX=10   DIIS_INCORE=F

 Level shifts:    0.00 (CLOSED)    0.00 (OPEN)    0.30 (GAP_MIN)

 ITER           ETOT              DE          GRAD        DDIFF     DIIS  NEXP   TIME(IT)  TIME(TOT)  DIAG
   1     -598.54759141    -598.54759141     0.00D+00     0.19D+00     0     0       0.01      0.02    start
   2     -598.59650216      -0.04891074     0.81D-02     0.28D-01     1     0       0.01      0.03    diag
   3     -598.60312672      -0.00662456     0.33D-02     0.66D-02     2     0       0.01      0.04    diag
   4     -598.60343619      -0.00030947     0.65D-03     0.14D-02     3     0       0.01      0.05    diag
   5     -598.60347206      -0.00003587     0.20D-03     0.46D-03     4     0       0.00      0.05    diag
   6     -598.60347300      -0.00000095     0.26D-04     0.82D-04     5     0       0.01      0.06    diag
   7     -598.60347303      -0.00000003     0.47D-05     0.19D-04     6     0       0.01      0.07    diag
   8     -598.60347303      -0.00000000     0.11D-05     0.32D-05     7     0       0.01      0.08    fixocc
   9     -598.60347303      -0.00000000     0.35D-06     0.12D-05     8     0       0.01      0.09    diag
  10     -598.60347303      -0.00000000     0.87D-07     0.20D-06     0     0       0.01      0.10    diag/orth

 Final occupancy:  18

 !RHF STATE 1.1 Energy               -598.603473034539
  RHF One-electron energy            -995.739598023782
  RHF Two-electron energy             317.226411214189
  RHF Kinetic energy                  598.575593646025
  RHF Nuclear energy                   79.909713775053
  RHF Virial quotient                  -1.000046576220

 !RHF STATE 1.1 Dipole moment          -0.00000000     0.00000000    -3.88238690
 Dipole moment /Debye                  -0.00000001     0.00000000    -9.86804321

 Orbital energies:

           1.1          2.1          3.1          4.1          5.1          6.1          7.1          8.1          9.1         10.1
   -104.484194   -26.121788   -11.146737   -10.205462    -7.671774    -7.671646    -7.671646    -1.427410    -0.792606    -0.718451

          11.1         12.1         13.1         14.1         15.1         16.1         17.1         18.1         19.1         20.1
     -0.533025    -0.533025    -0.508206    -0.371334    -0.371334    -0.138851    -0.137947    -0.137947     0.353026     0.420811


 HOMO     18.1    -0.137947 =      -3.7537eV
 LUMO     19.1     0.353026 =       9.6063eV
 LUMO-HOMO         0.490972 =      13.3600eV

 Orbitals saved in record  2100.2


 **********************************************************************************************************************************
 DATASETS  * FILE   NREC   LENGTH (MB)   RECORD NAMES
              1      19       33.15       500      610      700      900      950      970     1000      129      960     1100   
                                          VAR    BASINP    GEOM    SYMINP    ZMAT    AOBASIS   BASIS     P2S    ABASIS      S 
                                         1400     1410     1200     1210     1080     1600     1650     1300     1700   
                                           T        V       H0       H01     AOSYM     SMH    MOLCAS    ERIS     OPER   

              2       4        0.52       700     1000      520     2100   
                                         GEOM     BASIS   MCVARS     RHF  

 PROGRAMS   *        TOTAL    HF-SCF       INT
 CPU TIMES  *         0.40      0.10      0.21
 REAL TIME  *         1.47 SEC
 DISK USED  *        50.79 MB
 **********************************************************************************************************************************


 Program * Restricted Hartree-Fock

 Molecular orbitals read from record     2100.2  Type=RHF/CANONICAL  

 Initial occupancy:  18

 NELEC=   36   SYM=1   MS2= 0   THRE=1.0D-08   THRD=3.2D-06   THRG=3.2D-06  HFMA2=F  DIIS_START=2   DIIS_MAX=10   DIIS_INCORE=F

 Level shifts:    0.00 (CLOSED)    0.00 (OPEN)    0.30 (GAP_MIN)

 ITER           ETOT              DE          GRAD        DDIFF     DIIS  NEXP   TIME(IT)  TIME(TOT)  DIAG
   1     -598.60347303    -598.60347303     0.00D+00     0.18D+00     0     0       0.01      0.01    start
   2     -598.60347303      -0.00000000     0.36D-07     0.80D-07     1     0       0.00      0.01    diag

 Final occupancy:  18

 !RHF STATE 1.1 Energy               -598.603473034541
  RHF One-electron energy            -995.739603936437
  RHF Two-electron energy             317.226417126843
  RHF Kinetic energy                  598.575598381617
  RHF Nuclear energy                   79.909713775053
  RHF Virial quotient                  -1.000046568308

 !RHF STATE 1.1 Dipole moment          -0.00000000    -0.00000000    -3.88238412
 Dipole moment /Debye                  -0.00000001    -0.00000000    -9.86803615

 Orbital energies:

           1.1          2.1          3.1          4.1          5.1          6.1          7.1          8.1          9.1         10.1
   -104.484195   -26.121788   -11.146737   -10.205463    -7.671775    -7.671647    -7.671647    -1.427410    -0.792606    -0.718452

          11.1         12.1         13.1         14.1         15.1         16.1         17.1         18.1         19.1         20.1
     -0.533025    -0.533025    -0.508206    -0.371334    -0.371334    -0.138851    -0.137947    -0.137947     0.353026     0.420811


 HOMO     18.1    -0.137947 =      -3.7537eV
 LUMO     19.1     0.353026 =       9.6063eV
 LUMO-HOMO         0.490973 =      13.3600eV

 Orbitals saved in record  2101.2


 **********************************************************************************************************************************
 DATASETS  * FILE   NREC   LENGTH (MB)   RECORD NAMES
              1      19       33.15       500      610      700      900      950      970     1000      129      960     1100   
                                          VAR    BASINP    GEOM    SYMINP    ZMAT    AOBASIS   BASIS     P2S    ABASIS      S 
                                         1400     1410     1200     1210     1080     1600     1650     1300     1700   
                                           T        V       H0       H01     AOSYM     SMH    MOLCAS    ERIS     OPER   

              2       5        0.72       700     1000      520     2100     2101   
                                         GEOM     BASIS   MCVARS     RHF      RHF  

 PROGRAMS   *        TOTAL    HF-SCF    HF-SCF       INT
 CPU TIMES  *         0.43      0.02      0.10      0.21
 REAL TIME  *         1.64 SEC
 DISK USED  *        50.79 MB
 **********************************************************************************************************************************


 PROGRAM * PAPT (Closed-shell)     Authors: C. Hampel, H.-J. Werner, 1991, P.J. Knowles, 2021


 Convergence thresholds:  THRVAR = 1.00D-08  THRDEN = 1.00D-06

 Number of core orbitals:           7 (   7 )
 Number of closed-shell orbitals:  11 (  11 )
 Number of external orbitals:      43 (  43 )

 Molecular orbitals read from record     2101.2  Type=RHF/CANONICAL  

 Number of N-1 electron functions:              11
 Number of N-2 electron functions:              66
 Number of singly external CSFs:               473
 Number of doubly external CSFs:            112101
 Total number of CSFs:                      112575

 Length of J-op  integral file:               0.00 MB
 Length of K-op  integral file:               0.32 MB

 Integral transformation finished. Total CPU:   0.02 sec, npass=  1  Memory used:   0.53 MW

 Reference energy:                   -598.60347303

                        CORR.ENERGY   TOTAL ENERGY   ENERGY CHANGE
 MP2:                   -0.46986394  -599.07333697    -0.46986394

 SCS-MP2 correlation energy:           -0.46196642   (PS=  1.200000  PT=  0.333333)
 SCS-MP2 total energy:               -599.06543946
 Iteration:   1     0.2628D+00
 Iteration:   2     0.1128D+01
 Iteration:   3     0.1743D+00
 Iteration:   4     0.1424D+00
 Iteration:   5     0.6065D+00
 Iteration:   6     0.8242D-01
 Iteration:   7     0.2259D+00
 Iteration:   8     0.1206D+00
 Iteration:   9     0.7386D-01
 Iteration:  10     0.1770D+00
 Iteration:  11     0.4925D-01
 Iteration:  12     0.2491D-01
 Iteration:  13     0.6086D-01
 Iteration:  14     0.1486D-01
 Iteration:  15     0.9640D-01
 Iteration:  16     0.7139D-02
 Iteration:  17     0.1813D-01
 Iteration:  18     0.2507D-02
 Iteration:  19     0.2658D-02
 Iteration:  20     0.1655D-02
 Iteration:  21     0.5367D-03
 Iteration:  22     0.2096D-02
 Iteration:  23     0.8541D-04
 PAPT operator written to  7000.1
 PAPT orbitals and eigenvalues written to  7000.2

 MP3(D):                -0.49751084  -599.10098388    -0.02764691



 RESULTS
 =======

  Reference energy                   -598.603473034541
  MP3 singlet pair energy              -0.328699956788
  MP3 triplet pair energy              -0.168810887918
  MP3 correlation energy               -0.497510844707

 !MP3 total energy                   -599.100983879248

 Timing summary (sec):

 STEP                 CPU(USER)    SYS     CPU(TOT)    WALL
 Transformation          0.03      0.00      0.03      0.08
 CCSD iterations         0.92      0.03      0.95      1.01

 Program statistics:

 Available memory in ccsd:               805305866
 Min. memory needed in ccsd:                363005
 Max. memory used in ccsd:                  444581
 Max. memory used in cckext:                562262 ( 1 integral passes)



 **********************************************************************************************************************************
 DATASETS  * FILE   NREC   LENGTH (MB)   RECORD NAMES
              1      21       36.05       500      610      700      900      950      970     1000      129      960     1100   
                                          VAR    BASINP    GEOM    SYMINP    ZMAT    AOBASIS   BASIS     P2S    ABASIS      S 
                                         1400     1410     1200     1210     1080     1600     1650     1300     1700     1380   
                                           T        V       H0       H01     AOSYM     SMH    MOLCAS    ERIS     OPER     JKOP   
                                         7000   
                                        PAPT AO    

              2       6        0.91       700     1000      520     2100     2101     7000   
                                         GEOM     BASIS   MCVARS     RHF      RHF     PAPT   

 PROGRAMS   *        TOTAL      PAPT    HF-SCF    HF-SCF       INT
 CPU TIMES  *         0.86      0.43      0.02      0.10      0.21
 REAL TIME  *         2.81 SEC
 DISK USED  *        50.79 MB
 **********************************************************************************************************************************


 PROGRAM * MP3 (Closed-shell)     Authors: C. Hampel, H.-J. Werner, 1991, M. Deegan, P.J. Knowles, 1992


 Convergence thresholds:  THRVAR = 1.00D-08  THRDEN = 1.00D-06

 Number of core orbitals:           7 (   7 )
 Number of closed-shell orbitals:  11 (  11 )
 Number of external orbitals:      43 (  43 )

 Molecular orbitals read from record     7000.2  Type=PAPT/CANONICAL (state 1.1)

 Number of N-1 electron functions:              11
 Number of N-2 electron functions:              66
 Number of singly external CSFs:               473
 Number of doubly external CSFs:            112101
 Total number of CSFs:                      112575

 Length of J-op  integral file:               0.00 MB
 Length of K-op  integral file:               0.32 MB

 Integral transformation finished. Total CPU:   0.02 sec, npass=  1  Memory used:   0.53 MW
 Orbital energies read from record       7000.2  Type=PAPT/CANONICAL (state 1.1)

 Reference energy:                   -598.60347303

                        CORR.ENERGY   TOTAL ENERGY   ENERGY CHANGE
 MP2:                   -0.50285980  -599.10633283    -0.50285980

 SCS-MP2 correlation energy:           -0.49670941   (PS=  1.200000  PT=  0.333333)
 SCS-MP2 total energy:               -599.10018244

 MP3(D):                -0.50304635  -599.10651938    -0.00018655



 RESULTS
 =======

  Reference energy                   -598.603473034541
  MP3 singlet pair energy              -0.334710752535
  MP3 triplet pair energy              -0.168335593225
  MP3 correlation energy               -0.503046345760

 !MP3 total energy                   -599.106519380301

 Timing summary (sec):

 STEP                 CPU(USER)    SYS     CPU(TOT)    WALL
 Transformation          0.03      0.00      0.03      0.15
 CCSD iterations         1.06      0.01      1.07      0.23

 Program statistics:

 Available memory in ccsd:               805305866
 Min. memory needed in ccsd:                363005
 Max. memory used in ccsd:                  444581
 Max. memory used in cckext:                562262 ( 1 integral passes)



 **********************************************************************************************************************************
 DATASETS  * FILE   NREC   LENGTH (MB)   RECORD NAMES
              1      21       36.05       500      610      700      900      950      970     1000      129      960     1100   
                                          VAR    BASINP    GEOM    SYMINP    ZMAT    AOBASIS   BASIS     P2S    ABASIS      S 
                                         1400     1410     1200     1210     1080     1600     1650     1300     1700     1380   
                                           T        V       H0       H01     AOSYM     SMH    MOLCAS    ERIS     OPER     JKOP   
                                         7000   
                                        PAPT AO    

              2       6        0.91       700     1000      520     2100     2101     7000   
                                         GEOM     BASIS   MCVARS     RHF      RHF     PAPT   

 PROGRAMS   *        TOTAL       MP3      PAPT    HF-SCF    HF-SCF       INT
 CPU TIMES  *         1.00      0.14      0.43      0.02      0.10      0.21
 REAL TIME  *         3.29 SEC
 DISK USED  *        50.79 MB
 **********************************************************************************************************************************

 Dump information in style XML to xml output                                                                      

 Orbitals will not be exported.

 **********************************************************************************************************************************

 MP3/cc-pVDZ energy=   -599.106519380301

             MP3            PAPT          HF-SCF          HF-SCF
   -599.10651938   -599.10098388   -598.60347303   -598.60347303
 **********************************************************************************************************************************
 Molpro calculation terminated
