
 Working directory              : /var/folders/2v/xbgp75_9785319ghcgb4zr4r0000gp/T//molpro.BPjy1Sbqmw/
 Global scratch directory       : /var/folders/2v/xbgp75_9785319ghcgb4zr4r0000gp/T//molpro.BPjy1Sbqmw/
 Wavefunction directory         : /Users/sacpjk/wfu/
 Main file repository           : /var/folders/2v/xbgp75_9785319ghcgb4zr4r0000gp/T//molpro.BPjy1Sbqmw/

 id        : peterk

 Nodes                        nprocs
 Cardiff-University-G34YLXT77Y    1
 GA implementation: MPI file
 GA implementation (serial work in mppx): MPI file

 Using customized tuning parameters: mindgm=1; mindgv=20; mindgc=4; mindgr=1; noblas=0; minvec=7
 default implementation of scratch files=df  


 Variables initialized (1032), CPU time= 0.00 sec
 
 symmetry,nosym
 
 
 geometry={
 7
  n         -0.229345409277   -0.708649435882   -0.535982633208
  h          0.066923260748   -0.434111700981   -1.463967876502
  h          0.394204257637   -1.456339751910   -0.260787770234
  c         -0.069115433328    0.426561156949    0.377692670847
  h         -0.339305737415    0.111865376710    1.383345779611
  h          0.938294877758    0.848337716107    0.414664404502
  h         -0.761655816229    1.212336638955    0.085035424878
 }
 basis=aug-cc-pVTZ
 
 
 
 hf; ccsd
 
 
 
 {put,xml;noorbitals,nobasis}
 Commands initialized (841), CPU time= 0.00 sec, 704 directives.
 Default parameters read. Elapsed time= 0.05 sec

 Checking input...
 Passed
1


                                         ***  PROGRAM SYSTEM MOLPRO  ***
                                       Copyright, TTI GmbH Stuttgart, 2015
                                    Version 2023.1 linked Tue Jun  6 09:54:11 2023


 **********************************************************************************************************************************
 LABEL *                                                                                                                                                                 
  64 bit serial version                                                                  DATE: 09-Jun-23          TIME: 00:36:06  
 **********************************************************************************************************************************

 SHA1:             8ebb0dd001088a5c915591db1a321413035db0b1
 **********************************************************************************************************************************

 Memory per process:       805 MW
 Total memory per node:   1074 MW
 Total GA space:           268 MW

 GA preallocation disabled
 GA check enabled

 Variable memory set to 805.3 MW

 ZSYMEL=NOSYM


 Geometry recognized as XYZ

 SETTING BASIS          =    AUG-CC-PVTZ


 Recomputing integrals since basis changed


 Using spherical harmonics

 Library entry N      S aug-cc-pVTZ          selected for orbital group  1
 Library entry N      P aug-cc-pVTZ          selected for orbital group  1
 Library entry N      D aug-cc-pVTZ          selected for orbital group  1
 Library entry N      F aug-cc-pVTZ          selected for orbital group  1
 Library entry H      S aug-cc-pVTZ          selected for orbital group  2
 Library entry H      P aug-cc-pVTZ          selected for orbital group  2
 Library entry H      D aug-cc-pVTZ          selected for orbital group  2
 Library entry C      S aug-cc-pVTZ          selected for orbital group  3
 Library entry C      P aug-cc-pVTZ          selected for orbital group  3
 Library entry C      D aug-cc-pVTZ          selected for orbital group  3
 Library entry C      F aug-cc-pVTZ          selected for orbital group  3


 PROGRAM * SEWARD (Integral evaluation for generally contracted gaussian basis sets)     Author: Roland Lindh, 1990

 Geometry written to block  1 of record 700


 Point group  C1  



 ATOMIC COORDINATES

 NR  ATOM    CHARGE       X              Y              Z

   1  N       7.00   -0.433400011   -1.339153352   -1.012860384
   2  H       1.00    0.126466634   -0.820352222   -2.766498342
   3  H       1.00    0.744938084   -2.752083276   -0.492817462
   4  C       6.00   -0.130609240    0.806083762    0.713735707
   5  H       1.00   -0.641194916    0.211394925    2.614144659
   6  H       1.00    1.773120343    1.603125945    0.783602158
   7  H       1.00   -1.439320894    2.290984218    0.160693664

 Bond lengths in Bohr (Angstrom)

 1-2  1.912551008  1-3  1.911882914  1-4  2.770353514  4-5  2.055701031  4-6  2.065028786
     ( 1.012078408)     ( 1.011724868)     ( 1.466007946)     ( 1.087830138)     ( 1.092766173)

 4-7  2.055118259
     ( 1.087521749)

 Bond angles

  1-4-5  108.96566473   1-4-6  114.88035324   1-4-7  108.79498984   2-1-3  105.63187802

  2-1-4  109.23286160   3-1-4  109.59570301   5-4-6  108.02032202   5-4-7  107.43539387

  6-4-7  108.49916730

 NUCLEAR CHARGE:                   18
 NUMBER OF PRIMITIVE AOS:         269
 NUMBER OF SYMMETRY AOS:          241
 NUMBER OF CONTRACTIONS:          207   (  207A   )
 NUMBER OF INNER CORE ORBITALS:     0   (    0A   )
 NUMBER OF OUTER CORE ORBITALS:     2   (    2A   )
 NUMBER OF VALENCE ORBITALS:       13   (   13A   )


 NUCLEAR REPULSION ENERGY   42.05982948

 Eigenvalues of metric

         1 0.389E-04 0.625E-04 0.645E-04 0.137E-03 0.160E-03 0.250E-03 0.392E-03 0.658E-03


 Contracted 2-electron integrals neglected if value below      1.0D-12
 AO integral compression algorithm  1   Integral accuracy      1.0D-12

     1347.158 MB (compressed) written to integral file ( 63.0%)


 NUMBER OF SORTED TWO-ELECTRON INTEGRALS:  231738156.     BUFFER LENGTH:  32768
 NUMBER OF SEGMENTS:  15  SEGMENT LENGTH:   15999503      RECORD LENGTH: 524288

 Memory used in sort:      16.56 MW

 SORT1 READ   267401021. AND WROTE   230454553. INTEGRALS IN    665 RECORDS. CPU TIME:     1.75 SEC, REAL TIME:     2.62 SEC
 SORT2 READ   230454553. AND WROTE   231738156. INTEGRALS IN   5139 RECORDS. CPU TIME:     1.33 SEC, REAL TIME:     1.89 SEC

 FILE SIZES:   FILE 1:  1378.8 MBYTE,  FILE 4:  2789.3 MBYTE,   TOTAL:   4168.1 MBYTE

 OPERATOR DM      FOR CENTER  0  COORDINATES:    0.000000    0.000000    0.000000


 **********************************************************************************************************************************
 DATASETS  * FILE   NREC   LENGTH (MB)   RECORD NAMES
              1      19     1170.14       500      610      700      900      950      970     1000      129      960     1100   
                                          VAR    BASINP    GEOM    SYMINP    ZMAT    AOBASIS   BASIS     P2S    ABASIS      S 
                                         1400     1410     1200     1210     1080     1600     1650     1300     1700   
                                           T        V       H0       H01     AOSYM     SMH    MOLCAS    ERIS     OPER   

 PROGRAMS   *        TOTAL       INT
 CPU TIMES  *         7.64      7.56
 REAL TIME  *        10.29 SEC
 DISK USED  *         3.88 GB
 **********************************************************************************************************************************


 Program * Restricted Hartree-Fock

 Orbital guess generated from atomic densities. Full valence occupancy:   15

 Initial occupancy:   9

 NELEC=   18   SYM=1   MS2= 0   THRE=1.0D-08   THRD=3.2D-06   THRG=3.2D-06  HFMA2=F  DIIS_START=2   DIIS_MAX=10   DIIS_INCORE=F

 Level shifts:    0.00 (CLOSED)    0.00 (OPEN)    0.30 (GAP_MIN)

 ITER           ETOT              DE          GRAD        DDIFF     DIIS  NEXP   TIME(IT)  TIME(TOT)  DIAG
   1      -95.22543176     -95.22543176     0.00D+00     0.41D-01     0     0       0.98      1.91    start
   2      -95.25109657      -0.02566481     0.37D-02     0.43D-02     1     0       1.00      2.91    diag
   3      -95.25486930      -0.00377273     0.16D-02     0.12D-02     2     0       0.99      3.90    diag
   4      -95.25539048      -0.00052119     0.46D-03     0.42D-03     3     0       1.05      4.95    diag
   5      -95.25541697      -0.00002648     0.90D-04     0.79D-04     4     0       1.03      5.98    diag
   6      -95.25541869      -0.00000173     0.21D-04     0.24D-04     5     0       1.11      7.09    diag
   7      -95.25541882      -0.00000013     0.60D-05     0.64D-05     6     0       1.12      8.21    diag
   8      -95.25541883      -0.00000002     0.16D-05     0.27D-05     7     0       1.20      9.41    fixocc
   9      -95.25541883      -0.00000000     0.41D-06     0.77D-06     8     0       1.14     10.55    diag
  10      -95.25541883      -0.00000000     0.89D-07     0.90D-07     0     0       1.22     11.77    diag/orth

 Final occupancy:   9

 !RHF STATE 1.1 Energy                -95.255418833827
  RHF One-electron energy            -211.471687098510
  RHF Two-electron energy              74.156438780137
  RHF Kinetic energy                   95.124991749254
  RHF Nuclear energy                   42.059829484546
  RHF Virial quotient                  -1.001371112703

 !RHF STATE 1.1 Dipole moment           0.54684284     0.16552858    -0.00767291
 Dipole moment /Debye                   1.38993587     0.42073168    -0.01950260

 Orbital energies:

           1.1          2.1          3.1          4.1          5.1          6.1          7.1          8.1          9.1         10.1
    -15.540067   -11.240419    -1.170509    -0.896362    -0.661681    -0.604299    -0.554945    -0.517162    -0.393960     0.029449

          11.1
      0.042849


 HOMO      9.1    -0.393960 =     -10.7202eV
 LUMO     10.1     0.029449 =       0.8013eV
 LUMO-HOMO         0.423409 =      11.5215eV

 Orbitals saved in record  2100.2


 **********************************************************************************************************************************
 DATASETS  * FILE   NREC   LENGTH (MB)   RECORD NAMES
              1      19     1170.14       500      610      700      900      950      970     1000      129      960     1100   
                                          VAR    BASINP    GEOM    SYMINP    ZMAT    AOBASIS   BASIS     P2S    ABASIS      S 
                                         1400     1410     1200     1210     1080     1600     1650     1300     1700   
                                           T        V       H0       H01     AOSYM     SMH    MOLCAS    ERIS     OPER   

              2       4        1.16       700     1000      520     2100   
                                         GEOM     BASIS   MCVARS     RHF  

 PROGRAMS   *        TOTAL    HF-SCF       INT
 CPU TIMES  *        19.41     11.77      7.56
 REAL TIME  *        26.08 SEC
 DISK USED  *         3.88 GB
 **********************************************************************************************************************************


 PROGRAM * CCSD (Closed-shell coupled cluster)     Authors: C. Hampel, H.-J. Werner, 1991, M. Deegan, P.J. Knowles, 1992


 Convergence thresholds:  THRVAR = 1.00D-08  THRDEN = 1.00D-06

 Number of core orbitals:           2 (   2 )
 Number of closed-shell orbitals:   7 (   7 )
 Number of external orbitals:     198 ( 198 )

 Molecular orbitals read from record     2100.2  Type=RHF/CANONICAL  

 Number of N-1 electron functions:               7
 Number of N-2 electron functions:              28
 Number of singly external CSFs:              1386
 Number of doubly external CSFs:            961191
 Total number of CSFs:                      962578

 Length of J-op  integral file:               0.00 MB
 Length of K-op  integral file:               3.00 MB
 Length of 3-ext integral record:             0.00 MB

 Integral transformation finished. Total CPU:   3.72 sec, npass=  1  Memory used:  38.60 MW

 Reference energy:                    -95.25541883

 MP2 singlet pair energy:              -0.27690202
 MP2 triplet pair energy:              -0.13481214
 MP2 correlation energy:               -0.41171416
 MP2 total energy:                    -95.66713299

 SCS-MP2 correlation energy:           -0.41616553   (PS=  1.200000  PT=  0.333333)
 SCS-MP2 total energy:                -95.67158437

 ITER.      SQ.NORM     CORR.ENERGY   TOTAL ENERGY   ENERGY CHANGE        DEN1      VAR(S)    VAR(P)  DIIS     TIME  TIME/IT
   1      1.12867745    -0.43330597   -95.68872480    -0.02159181    -0.01170403  0.11D-02  0.19D-02  1  1    26.04     3.17
   2      1.13733094    -0.43491186   -95.69033070    -0.00160590    -0.00942477  0.23D-04  0.20D-03  2  2    28.70     3.20
   3      1.14006810    -0.43498733   -95.69040616    -0.00007546    -0.00179382  0.73D-05  0.11D-04  3  3    31.41     3.19
   4      1.14079618    -0.43500827   -95.69042710    -0.00002094    -0.00031400  0.97D-06  0.84D-06  4  4    34.19     3.25
   5      1.14093796    -0.43500714   -95.69042597     0.00000113    -0.00004444  0.22D-06  0.94D-07  5  5    37.04     3.27
   6      1.14097869    -0.43500484   -95.69042368     0.00000230    -0.00000828  0.46D-07  0.11D-07  6  6    39.77     3.26
   7      1.14098894    -0.43500442   -95.69042325     0.00000042    -0.00000050  0.80D-08  0.22D-08  6  2    42.44     3.23
   8      1.14099368    -0.43500422   -95.69042305     0.00000020    -0.00000052  0.13D-08  0.34D-09  6  1    45.52     3.30

 Norm of t1 vector:      0.04554360      S-energy:    -0.00000012      T1 diagnostic:  0.00860693
                                                                       D1 diagnostic:  0.02012352
                                                                       D2 diagnostic:  0.14016557 (internal)


 RESULTS
 =======

  Reference energy                    -95.255418833826
  CCSD singlet pair energy             -0.310661219989
  CCSD triplet pair energy             -0.124342879280
  CCSD correlation energy              -0.435004216071

 !CCSD total energy                   -95.690423049897

 Timing summary (sec):

 STEP                 CPU(USER)    SYS     CPU(TOT)    WALL
 Transformation          3.78      0.45      4.23      4.87
 CCSD iterations        41.76      1.88     43.64     26.50

 Program statistics:

 Available memory in ccsd:               805306163
 Min. memory needed in ccsd:               3040312
 Max. memory used in ccsd:                 3839467
 Max. memory used in cckext:               2736135 ( 8 integral passes)



 **********************************************************************************************************************************
 DATASETS  * FILE   NREC   LENGTH (MB)   RECORD NAMES
              1      20     1392.87       500      610      700      900      950      970     1000      129      960     1100   
                                          VAR    BASINP    GEOM    SYMINP    ZMAT    AOBASIS   BASIS     P2S    ABASIS      S 
                                         1400     1410     1200     1210     1080     1600     1650     1300     1700     1380   
                                           T        V       H0       H01     AOSYM     SMH    MOLCAS    ERIS     OPER     JKOP   

              2       4        1.16       700     1000      520     2100   
                                         GEOM     BASIS   MCVARS     RHF  

 PROGRAMS   *        TOTAL      CCSD    HF-SCF       INT
 CPU TIMES  *        45.46     26.05     11.77      7.56
 REAL TIME  *        57.60 SEC
 DISK USED  *         3.88 GB
 **********************************************************************************************************************************

 Dump information in style XML to xml output                                                                      

 Orbitals will not be exported.

 **********************************************************************************************************************************

 CCSD/aug-cc-pVTZ energy=    -95.690423049897

            CCSD          HF-SCF
    -95.69042305    -95.25541883
 **********************************************************************************************************************************
 Molpro calculation terminated
