
 Working directory              : /var/folders/2v/xbgp75_9785319ghcgb4zr4r0000gp/T//molpro.aIbusFF8Fh/
 Global scratch directory       : /var/folders/2v/xbgp75_9785319ghcgb4zr4r0000gp/T//molpro.aIbusFF8Fh/
 Wavefunction directory         : /Users/sacpjk/wfu/
 Main file repository           : /var/folders/2v/xbgp75_9785319ghcgb4zr4r0000gp/T//molpro.aIbusFF8Fh/

 id        : peterk

 Nodes                        nprocs
 Cardiff-University-G34YLXT77Y    1
 GA implementation: MPI file
 GA implementation (serial work in mppx): MPI file

 Using customized tuning parameters: mindgm=1; mindgv=20; mindgc=4; mindgr=1; noblas=0; minvec=7
 default implementation of scratch files=df  


 Variables initialized (1032), CPU time= 0.00 sec
 
 symmetry,nosym
 
 
 geometry={
            6
     C          0.96745826     -0.11636709      0.00000000
     N         -0.30997205     -0.08985970      0.00000000
     C         -1.52110730     -0.22012413      0.00000000
     H          1.50098112     -0.12812485      0.94177700
     H          1.50098112     -0.12812485     -0.94177700
     H         -2.13834115      0.68260062      0.00000000
 }
 basis=cc-pVTZ
 
 
 
 hf; ccsd(t)
 
 
 
 {put,xml;noorbitals,nobasis}
 Commands initialized (841), CPU time= 0.01 sec, 704 directives.
 Default parameters read. Elapsed time= 1.68 sec

 Checking input...
 Passed
1


                                         ***  PROGRAM SYSTEM MOLPRO  ***
                                       Copyright, TTI GmbH Stuttgart, 2015
                                    Version 2023.1 linked Tue Jun  6 09:54:11 2023


 **********************************************************************************************************************************
 LABEL *                                                                                                                                                                 
  64 bit serial version                                                                  DATE: 12-Jun-23          TIME: 01:04:53  
 **********************************************************************************************************************************

 SHA1:             8ebb0dd001088a5c915591db1a321413035db0b1
 **********************************************************************************************************************************

 Memory per process:       393 MW
 Total memory per node:    524 MW
 Total GA space:           131 MW

 GA preallocation disabled
 GA check enabled

 Variable memory set to 393.2 MW

 ZSYMEL=NOSYM


 Geometry recognized as XYZ

 SETTING BASIS          =    CC-PVTZ


 Recomputing integrals since basis changed


 Using spherical harmonics

 Library entry C      S cc-pVTZ              selected for orbital group  1
 Library entry C      P cc-pVTZ              selected for orbital group  1
 Library entry C      D cc-pVTZ              selected for orbital group  1
 Library entry C      F cc-pVTZ              selected for orbital group  1
 Library entry N      S cc-pVTZ              selected for orbital group  2
 Library entry N      P cc-pVTZ              selected for orbital group  2
 Library entry N      D cc-pVTZ              selected for orbital group  2
 Library entry N      F cc-pVTZ              selected for orbital group  2
 Library entry H      S cc-pVTZ              selected for orbital group  4
 Library entry H      P cc-pVTZ              selected for orbital group  4
 Library entry H      D cc-pVTZ              selected for orbital group  4


 PROGRAM * SEWARD (Integral evaluation for generally contracted gaussian basis sets)     Author: Roland Lindh, 1990

 Geometry written to block  1 of record 700


 Point group  C1  



 ATOMIC COORDINATES

 NR  ATOM    CHARGE       X              Y              Z

   1  C       6.00    1.828231148   -0.219901930    0.000000000
   2  N       7.00   -0.585762281   -0.169810223    0.000000000
   3  C       6.00   -2.874476203   -0.415974319    0.000000000
   4  H       1.00    2.836443235   -0.242120876    1.779700600
   5  H       1.00    2.836443235   -0.242120876   -1.779700600
   6  H       1.00   -4.040879135    1.289928224    0.000000000

 Bond lengths in Bohr (Angstrom)

 1-2  2.414513089  1-4  2.045560931  1-5  2.045560931  2-3  2.301914026  3-6  2.066542834
     ( 1.277705302)     ( 1.082464228)     ( 1.082464228)     ( 1.218120444)     ( 1.093567373)

 Bond angles

  1-2-3  172.67236630   2-1-4  119.53777769   2-1-5  119.53777769   2-3-6  118.22330183

  4-1-5  120.92439085

 NUCLEAR CHARGE:                   22
 NUMBER OF PRIMITIVE AOS:         192
 NUMBER OF SYMMETRY AOS:          174
 NUMBER OF CONTRACTIONS:          132   (  132A   )
 NUMBER OF INNER CORE ORBITALS:     0   (    0A   )
 NUMBER OF OUTER CORE ORBITALS:     3   (    3A   )
 NUMBER OF VALENCE ORBITALS:       15   (   15A   )


 NUCLEAR REPULSION ENERGY   61.10533246


 Eigenvalues of metric

         1 0.118E-02 0.130E-02 0.163E-02 0.184E-02 0.189E-02 0.263E-02 0.287E-02 0.595E-02


 Contracted 2-electron integrals neglected if value below      1.0D-11
 AO integral compression algorithm  1   Integral accuracy      1.0D-11

     135.528 MB (compressed) written to integral file ( 38.2%)


 NUMBER OF SORTED TWO-ELECTRON INTEGRALS:   38531031.     BUFFER LENGTH:  32768
 NUMBER OF SEGMENTS:   3  SEGMENT LENGTH:   15998004      RECORD LENGTH: 524288

 Memory used in sort:      16.56 MW

 SORT1 READ    44271642. AND WROTE    29399536. INTEGRALS IN     85 RECORDS. CPU TIME:     0.29 SEC, REAL TIME:     0.40 SEC
 SORT2 READ    29399536. AND WROTE    38531031. INTEGRALS IN    517 RECORDS. CPU TIME:     0.31 SEC, REAL TIME:     0.39 SEC

 FILE SIZES:   FILE 1:   166.3 MBYTE,  FILE 4:   356.6 MBYTE,   TOTAL:    522.8 MBYTE

 OPERATOR DM      FOR CENTER  0  COORDINATES:    0.000000    0.000000    0.000000


 **********************************************************************************************************************************
 DATASETS  * FILE   NREC   LENGTH (MB)   RECORD NAMES
              1      19      142.76       500      610      700      900      950      970     1000      129      960     1100   
                                          VAR    BASINP    GEOM    SYMINP    ZMAT    AOBASIS   BASIS     P2S    ABASIS      S 
                                         1400     1410     1200     1210     1080     1600     1650     1300     1700   
                                           T        V       H0       H01     AOSYM     SMH    MOLCAS    ERIS     OPER   

 PROGRAMS   *        TOTAL       INT
 CPU TIMES  *         1.84      1.74
 REAL TIME  *         8.52 SEC
 DISK USED  *       499.05 MB
 **********************************************************************************************************************************


 Program * Restricted Hartree-Fock

 Orbital guess generated from atomic densities. Full valence occupancy:   18

 Initial occupancy:  11

 NELEC=   22   SYM=1   MS2= 0   THRE=1.0D-08   THRD=3.2D-06   THRG=3.2D-06  HFMA2=F  DIIS_START=2   DIIS_MAX=10   DIIS_INCORE=F

 Level shifts:    0.00 (CLOSED)    0.00 (OPEN)    0.30 (GAP_MIN)

 ITER           ETOT              DE          GRAD        DDIFF     DIIS  NEXP   TIME(IT)  TIME(TOT)  DIAG
   1     -131.83239898    -131.83239898     0.00D+00     0.66D-01     0     0       0.19      0.36    start
   2     -131.85804580      -0.02564681     0.36D-02     0.52D-02     1     0       0.19      0.55    diag
   3     -131.86368022      -0.00563443     0.19D-02     0.20D-02     2     0       0.19      0.74    diag
   4     -131.86618000      -0.00249978     0.82D-03     0.12D-02     3     0       0.19      0.93    diag
   5     -131.86682816      -0.00064816     0.32D-03     0.70D-03     4     0       0.19      1.12    diag
   6     -131.86700560      -0.00017744     0.18D-03     0.43D-03     5     0       0.19      1.31    diag
   7     -131.86702276      -0.00001716     0.59D-04     0.15D-03     6     0       0.19      1.50    diag
   8     -131.86702358      -0.00000082     0.17D-04     0.31D-04     7     0       0.19      1.69    fixocc
   9     -131.86702362      -0.00000004     0.35D-05     0.71D-05     8     0       0.19      1.88    diag
  10     -131.86702363      -0.00000000     0.10D-05     0.23D-05     9     0       0.19      2.07    diag/orth
  11     -131.86702363      -0.00000000     0.26D-06     0.37D-06     0     0       0.20      2.27    diag

 Final occupancy:  11

 !RHF STATE 1.1 Energy               -131.867023626365
  RHF One-electron energy            -298.047407041891
  RHF Two-electron energy             105.075050955726
  RHF Kinetic energy                  131.653667635300
  RHF Nuclear energy                   61.105332459801
  RHF Virial quotient                  -1.001620585244

 !RHF STATE 1.1 Dipole moment           0.59288238     0.57509012    -0.00000000
 Dipole moment /Debye                   1.50695670     1.46173327    -0.00000000

 Orbital energies:

           1.1          2.1          3.1          4.1          5.1          6.1          7.1          8.1          9.1         10.1
    -15.648086   -11.282582   -11.263137    -1.294243    -1.025854    -0.756729    -0.677499    -0.665897    -0.553057    -0.469737

          11.1         12.1         13.1
     -0.311842     0.120533     0.139329


 HOMO     11.1    -0.311842 =      -8.4856eV
 LUMO     12.1     0.120533 =       3.2799eV
 LUMO-HOMO         0.432374 =      11.7655eV

 Orbitals saved in record  2100.2


 **********************************************************************************************************************************
 DATASETS  * FILE   NREC   LENGTH (MB)   RECORD NAMES
              1      19      142.76       500      610      700      900      950      970     1000      129      960     1100   
                                          VAR    BASINP    GEOM    SYMINP    ZMAT    AOBASIS   BASIS     P2S    ABASIS      S 
                                         1400     1410     1200     1210     1080     1600     1650     1300     1700   
                                           T        V       H0       H01     AOSYM     SMH    MOLCAS    ERIS     OPER   

              2       4        0.75       700     1000      520     2100   
                                         GEOM     BASIS   MCVARS     RHF  

 PROGRAMS   *        TOTAL    HF-SCF       INT
 CPU TIMES  *         4.11      2.27      1.74
 REAL TIME  *        12.64 SEC
 DISK USED  *       499.05 MB
 **********************************************************************************************************************************


 PROGRAM * CCSD (Closed-shell coupled cluster)     Authors: C. Hampel, H.-J. Werner, 1991, M. Deegan, P.J. Knowles, 1992


 Convergence thresholds:  THRVAR = 1.00D-08  THRDEN = 1.00D-06

 CCSD(T)     terms to be evaluated (factor= 1.000)


 Number of core orbitals:           3 (   3 )
 Number of closed-shell orbitals:   8 (   8 )
 Number of external orbitals:     121 ( 121 )

 Molecular orbitals read from record     2100.2  Type=RHF/CANONICAL  

 Number of N-1 electron functions:               8
 Number of N-2 electron functions:              36
 Number of singly external CSFs:               968
 Number of doubly external CSFs:            468996
 Total number of CSFs:                      469965

 Length of J-op  integral file:               0.00 MB
 Length of K-op  integral file:               1.26 MB
 Length of 3-ext integral record:             0.00 MB

 Memory could be reduced to 20.02 Mwords without degradation in triples

 Integral transformation finished. Total CPU:   0.83 sec, npass=  1  Memory used:  11.86 MW

 Reference energy:                   -131.86702363

 MP2 singlet pair energy:              -0.33214740
 MP2 triplet pair energy:              -0.18787769
 MP2 correlation energy:               -0.52002510
 MP2 total energy:                   -132.38704872

 SCS-MP2 correlation energy:           -0.51547856   (PS=  1.200000  PT=  0.333333)
 SCS-MP2 total energy:               -132.38250219

 ITER.      SQ.NORM     CORR.ENERGY   TOTAL ENERGY   ENERGY CHANGE        DEN1      VAR(S)    VAR(P)  DIIS     TIME  TIME/IT
   1      1.18067963    -0.53514220  -132.40216582    -0.01511710     0.00295812  0.55D-02  0.39D-02  1  1     6.01     1.15
   2      1.19822747    -0.53729899  -132.40432262    -0.00215680    -0.01456327  0.33D-03  0.77D-03  2  2     6.91     1.09
   3      1.21090429    -0.53815332  -132.40517694    -0.00085433    -0.00438418  0.30D-03  0.64D-04  3  3     7.81     1.06
   4      1.21828351    -0.53841371  -132.40543733    -0.00026039    -0.00147587  0.70D-04  0.20D-04  4  4     8.69     1.04
   5      1.22401816    -0.53851611  -132.40553974    -0.00010240    -0.00074591  0.19D-04  0.35D-05  5  5     9.61     1.04
   6      1.22656731    -0.53849073  -132.40551435     0.00002539    -0.00019579  0.21D-05  0.10D-05  6  6    10.47     1.04
   7      1.22742678    -0.53848518  -132.40550881     0.00000554    -0.00004643  0.37D-06  0.17D-06  6  1    11.36     1.05
   8      1.22760238    -0.53848383  -132.40550745     0.00000135     0.00000014  0.48D-07  0.22D-07  6  2    12.27     1.04
   9      1.22769879    -0.53848173  -132.40550536     0.00000210    -0.00000647  0.75D-08  0.27D-08  6  3    13.22     1.05
  10      1.22768518    -0.53848188  -132.40550550    -0.00000015     0.00000424  0.10D-08  0.42D-09  6  5    14.12     1.05
  11      1.22769864    -0.53848153  -132.40550516     0.00000034    -0.00000099  0.58D-10  0.58D-10  6  4    15.07     1.06

 Norm of t1 vector:      0.15301325      S-energy:     0.00000050      T1 diagnostic:  0.02704918
                                                                       D1 diagnostic:  0.08080014
                                                                       D2 diagnostic:  0.20226811 (internal)

 Singles amplitudes (print threshold =  0.500E-01):

         I         SYM. A    A   T(IA)

         7         1         2      0.05220787
         8         1         1      0.05910759

 Doubles amplitudes (print threshold =  0.500E-01):

         I         J         SYM. A    SYM. B    A         B      T(IJ, AB)

         7         7         1         1         2         2     -0.05801108
         8         8         1         1         1         1     -0.09811154


 Total CPU time for triples:     11.70 sec


 RESULTS
 =======

  Reference energy                   -131.867023626365
  CCSD singlet pair energy             -0.370456537531
  CCSD triplet pair energy             -0.168025501243
  CCSD correlation energy              -0.538481534043

  Triples (T) contribution             -0.028747516155
  Total correlation energy             -0.567229050198

  CCSD total energy                  -132.405505160408
  CCSD[T] energy                     -132.435913844977
  CCSD-T energy                      -132.433779738969
 !CCSD(T) total energy               -132.434252676563

 Timing summary (sec):

 STEP                 CPU(USER)    SYS     CPU(TOT)    WALL
 Transformation          0.84      0.09      0.93      1.22
 CCSD iterations        14.24      0.57     14.81     12.26
 Triples                11.70      0.41     12.11     12.59

 Program statistics:

 Available memory in ccsd:               393215733
 Min. memory needed in ccsd:               1432040
 Max. memory used in ccsd:                 1820692
 Max. memory used in cckext:               1405519 (11 integral passes)



 **********************************************************************************************************************************
 DATASETS  * FILE   NREC   LENGTH (MB)   RECORD NAMES
              1      20      204.74       500      610      700      900      950      970     1000      129      960     1100   
                                          VAR    BASINP    GEOM    SYMINP    ZMAT    AOBASIS   BASIS     P2S    ABASIS      S 
                                         1400     1410     1200     1210     1080     1600     1650     1300     1700     1380   
                                           T        V       H0       H01     AOSYM     SMH    MOLCAS    ERIS     OPER     JKOP   

              2       4        0.75       700     1000      520     2100   
                                         GEOM     BASIS   MCVARS     RHF  

 PROGRAMS   *        TOTAL   CCSD(T)    HF-SCF       INT
 CPU TIMES  *        26.68     22.57      2.27      1.74
 REAL TIME  *        39.21 SEC
 DISK USED  *       499.05 MB
 **********************************************************************************************************************************

 Dump information in style XML to xml output                                                                      

 Orbitals will not be exported.

 **********************************************************************************************************************************

 CCSD(T)/cc-pVTZ energy=   -132.434252676563

         CCSD(T)          HF-SCF
   -132.43425268   -131.86702363
 **********************************************************************************************************************************
 Molpro calculation terminated
