
 Working directory              : /tmp/peterk/molpro.R2W1nTLrTP/
 Global scratch directory       : /tmp/peterk/molpro.R2W1nTLrTP/
 Wavefunction directory         : /home/peterk/wfu/
 Main file repository           : /tmp/peterk/molpro.R2W1nTLrTP/

 id        : peterk

 Nodes     nprocs
 marat        1
 GA implementation: MPI file
 GA implementation (serial work in mppx): MPI file

 Using customized tuning parameters: mindgm=1; mindgv=20; mindgc=4; mindgr=1; noblas=0; minvec=7
 default implementation of scratch files=df  


 Variables initialized (1032), CPU time= 0.00 sec
 
 symmetry,nosym
 
 
 geometry={
            5
     C          0.00000000      0.00000000     -0.14991697
     CL         0.00000000      0.00000000      1.63280180
     H         -0.51399780     -0.89027030     -0.49429494
     H         -0.51399780      0.89027030     -0.49429494
     H          1.02799560      0.00000000     -0.49429494
 }
 basis=cc-pVQZ
 
 
 
 hf; ccsd(t)
 
 
 
 {put,xml;noorbitals,nobasis}
 Commands initialized (841), CPU time= 0.01 sec, 708 directives.
 Default parameters read. Elapsed time= 0.05 sec

 Checking input...
 Passed
1


                                         ***  PROGRAM SYSTEM MOLPRO  ***
                                       Copyright, TTI GmbH Stuttgart, 2015
                                    Version 2023.1 linked Sat Jun 10 08:01:27 2023


 **********************************************************************************************************************************
 LABEL *                                                                                                                                                                 
  (16 PROC) 64 bit serial version                                                        DATE: 11-Jun-23          TIME: 20:53:47  
 **********************************************************************************************************************************

 SHA1:             8376d659ba1296ca7ee514c57770fe2c96af278c
 **********************************************************************************************************************************

 Memory per process:      1074 MW
 Total memory per node:   1074 MW

 GA preallocation disabled
 GA check disabled

 Variable memory set to 1073.7 MW

 ZSYMEL=NOSYM


 Geometry recognized as XYZ

 SETTING BASIS          =    CC-PVQZ


 Recomputing integrals since basis changed


 Using spherical harmonics

 Library entry C      S cc-pVQZ              selected for orbital group  1
 Library entry C      P cc-pVQZ              selected for orbital group  1
 Library entry C      D cc-pVQZ              selected for orbital group  1
 Library entry C      F cc-pVQZ              selected for orbital group  1
 Library entry C      G cc-pVQZ              selected for orbital group  1
 Library entry CL     S cc-pVQZ              selected for orbital group  2
 Library entry CL     P cc-pVQZ              selected for orbital group  2
 Library entry CL     D cc-pVQZ              selected for orbital group  2
 Library entry CL     F cc-pVQZ              selected for orbital group  2
 Library entry CL     G cc-pVQZ              selected for orbital group  2
 Library entry H      S cc-pVQZ              selected for orbital group  3
 Library entry H      P cc-pVQZ              selected for orbital group  3
 Library entry H      D cc-pVQZ              selected for orbital group  3
 Library entry H      F cc-pVQZ              selected for orbital group  3


 PROGRAM * SEWARD (Integral evaluation for generally contracted gaussian basis sets)     Author: Roland Lindh, 1990

 Geometry written to block  1 of record 700


 Point group  C1  



 ATOMIC COORDINATES

 NR  ATOM    CHARGE       X              Y              Z

   1  C       6.00    0.000000000    0.000000000   -0.283302015
   2  CL     17.00    0.000000000    0.000000000    3.085548218
   3  H       1.00   -0.971315071   -1.682367044   -0.934082061
   4  H       1.00   -0.971315071    1.682367044   -0.934082061
   5  H       1.00    1.942630141    0.000000000   -0.934082061

 Bond lengths in Bohr (Angstrom)

 1-2  3.368850233  1-3  2.048737784  1-4  2.048737784  1-5  2.048737791
     ( 1.782718770)     ( 1.084145346)     ( 1.084145346)     ( 1.084145350)

 Bond angles

  2-1-3  108.52082168   2-1-4  108.52082168   2-1-5  108.52082162   3-1-4  110.40466842

  3-1-5  110.40466877   4-1-5  110.40466877

 NUCLEAR CHARGE:                   26
 NUMBER OF PRIMITIVE AOS:         296
 NUMBER OF SYMMETRY AOS:          251
 NUMBER OF CONTRACTIONS:          204   (  204A   )
 NUMBER OF INNER CORE ORBITALS:     1   (    1A   )
 NUMBER OF OUTER CORE ORBITALS:     5   (    5A   )
 NUMBER OF VALENCE ORBITALS:       11   (   11A   )


 NUCLEAR REPULSION ENERGY   51.37849152


 Eigenvalues of metric

         1 0.149E-03 0.190E-03 0.272E-03 0.272E-03 0.304E-03 0.396E-03 0.396E-03 0.431E-03


 Contracted 2-electron integrals neglected if value below      1.0D-11
 AO integral compression algorithm  1   Integral accuracy      1.0D-11

     822.608 MB (compressed) written to integral file ( 41.0%)


 NUMBER OF SORTED TWO-ELECTRON INTEGRALS:  218624505.     BUFFER LENGTH:  32768
 NUMBER OF SEGMENTS:  14  SEGMENT LENGTH:   15999503      RECORD LENGTH: 524288

 Memory used in sort:      16.56 MW

 SORT1 READ   250717468. AND WROTE   178943106. INTEGRALS IN    519 RECORDS. CPU TIME:     1.65 SEC, REAL TIME:     3.08 SEC
 SORT2 READ   178943106. AND WROTE   218624505. INTEGRALS IN   3138 RECORDS. CPU TIME:     1.70 SEC, REAL TIME:     2.36 SEC

 FILE SIZES:   FILE 1:   854.2 MBYTE,  FILE 4:  2176.9 MBYTE,   TOTAL:   3031.1 MBYTE

 OPERATOR DM      FOR CENTER  0  COORDINATES:    0.000000    0.000000    0.000000


 **********************************************************************************************************************************
 DATASETS  * FILE   NREC   LENGTH (MB)   RECORD NAMES
              1      19      732.68       500      610      700      900      950      970     1000      129      960     1100   
                                          VAR    BASINP    GEOM    SYMINP    ZMAT    AOBASIS   BASIS     P2S    ABASIS      S 
                                         1400     1410     1200     1210     1080     1600     1650     1300     1700   
                                           T        V       H0       H01     AOSYM     SMH    MOLCAS    ERIS     OPER   

 PROGRAMS   *        TOTAL       INT
 CPU TIMES  *        10.90     10.80
 REAL TIME  *        15.38 SEC
 DISK USED  *         2.82 GB
 **********************************************************************************************************************************


 Program * Restricted Hartree-Fock

 Orbital guess generated from atomic densities. Full valence occupancy:   17

 Initial occupancy:  13

 NELEC=   26   SYM=1   MS2= 0   THRE=1.0D-08   THRD=3.2D-06   THRG=3.2D-06  HFMA2=F  DIIS_START=2   DIIS_MAX=10   DIIS_INCORE=F

 Level shifts:    0.00 (CLOSED)    0.00 (OPEN)    0.30 (GAP_MIN)

 ITER           ETOT              DE          GRAD        DDIFF     DIIS  NEXP   TIME(IT)  TIME(TOT)  DIAG
   1     -499.13618759    -499.13618759     0.00D+00     0.49D-01     0     0       1.16      2.27    start
   2     -499.15218837      -0.01600078     0.23D-02     0.25D-02     1     0       1.14      3.41    diag
   3     -499.15425533      -0.00206697     0.87D-03     0.93D-03     2     0       1.16      4.57    diag
   4     -499.15462382      -0.00036848     0.31D-03     0.31D-03     3     0       1.16      5.73    diag
   5     -499.15464052      -0.00001671     0.52D-04     0.73D-04     4     0       1.13      6.86    diag
   6     -499.15464152      -0.00000100     0.13D-04     0.19D-04     5     0       1.15      8.01    diag
   7     -499.15464161      -0.00000009     0.36D-05     0.57D-05     6     0       1.10      9.11    diag
   8     -499.15464162      -0.00000001     0.88D-06     0.21D-05     7     0       1.09     10.20    fixocc
   9     -499.15464162      -0.00000000     0.15D-06     0.28D-06     0     0       1.11     11.31    diag

 Final occupancy:  13

 !RHF STATE 1.1 Energy               -499.154641621082
  RHF One-electron energy            -790.262993944329
  RHF Two-electron energy             239.729860802330
  RHF Kinetic energy                  499.123591243751
  RHF Nuclear energy                   51.378491520917
  RHF Virial quotient                  -1.000062209797

 !RHF STATE 1.1 Dipole moment          -0.00000000     0.00000000    -0.83750587
 Dipole moment /Debye                  -0.00000001     0.00000000    -2.12872760

 Orbital energies:

           1.1          2.1          3.1          4.1          5.1          6.1          7.1          8.1          9.1         10.1
   -104.823486   -11.288674   -10.549048    -8.016170    -8.014446    -8.014446    -1.127239    -0.915317    -0.618254    -0.618254

          11.1         12.1         13.1         14.1         15.1
     -0.545527    -0.435383    -0.435383     0.108294     0.163121


 HOMO     13.1    -0.435383 =     -11.8474eV
 LUMO     14.1     0.108294 =       2.9468eV
 LUMO-HOMO         0.543677 =      14.7942eV

 Orbitals saved in record  2100.2


 **********************************************************************************************************************************
 DATASETS  * FILE   NREC   LENGTH (MB)   RECORD NAMES
              1      19      732.68       500      610      700      900      950      970     1000      129      960     1100   
                                          VAR    BASINP    GEOM    SYMINP    ZMAT    AOBASIS   BASIS     P2S    ABASIS      S 
                                         1400     1410     1200     1210     1080     1600     1650     1300     1700   
                                           T        V       H0       H01     AOSYM     SMH    MOLCAS    ERIS     OPER   

              2       4        1.11       700     1000      520     2100   
                                         GEOM     BASIS   MCVARS     RHF  

 PROGRAMS   *        TOTAL    HF-SCF       INT
 CPU TIMES  *        22.22     11.32     10.80
 REAL TIME  *        27.81 SEC
 DISK USED  *         2.82 GB
 **********************************************************************************************************************************


 PROGRAM * CCSD (Closed-shell coupled cluster)     Authors: C. Hampel, H.-J. Werner, 1991, M. Deegan, P.J. Knowles, 1992


 Convergence thresholds:  THRVAR = 1.00D-08  THRDEN = 1.00D-06

 CCSD(T)     terms to be evaluated (factor= 1.000)


 Number of core orbitals:           6 (   6 )
 Number of closed-shell orbitals:   7 (   7 )
 Number of external orbitals:     191 ( 191 )

 Molecular orbitals read from record     2100.2  Type=RHF/CANONICAL  

 Number of N-1 electron functions:               7
 Number of N-2 electron functions:              28
 Number of singly external CSFs:              1337
 Number of doubly external CSFs:            894453
 Total number of CSFs:                      895791

 Length of J-op  integral file:               0.00 MB
 Length of K-op  integral file:               2.92 MB
 Length of 3-ext integral record:             0.00 MB

 Memory could be reduced to 68.94 Mwords without degradation in triples

 Integral transformation finished. Total CPU:   4.40 sec, npass=  1  Memory used:  36.98 MW

 Reference energy:                   -499.15464162

 MP2 singlet pair energy:              -0.27176595
 MP2 triplet pair energy:              -0.13162332
 MP2 correlation energy:               -0.40338928
 MP2 total energy:                   -499.55803090

 SCS-MP2 correlation energy:           -0.40801810   (PS=  1.200000  PT=  0.333333)
 SCS-MP2 total energy:               -499.56265972

 ITER.      SQ.NORM     CORR.ENERGY   TOTAL ENERGY   ENERGY CHANGE        DEN1      VAR(S)    VAR(P)  DIIS     TIME  TIME/IT
   1      1.14376744    -0.42899485  -499.58363647    -0.02560557    -0.01576601  0.98D-03  0.19D-02  1  1    30.84     3.96
   2      1.15274235    -0.43065089  -499.58529251    -0.00165604    -0.00944025  0.25D-04  0.19D-03  2  2    34.83     4.05
   3      1.15530625    -0.43064277  -499.58528439     0.00000812    -0.00171929  0.60D-05  0.12D-04  3  3    38.66     4.09
   4      1.15596444    -0.43064014  -499.58528176     0.00000264    -0.00028695  0.48D-06  0.87D-06  4  4    42.54     4.09
   5      1.15609639    -0.43064641  -499.58528803    -0.00000627    -0.00003406  0.76D-07  0.59D-07  5  5    46.37     4.09
   6      1.15611972    -0.43064434  -499.58528596     0.00000207    -0.00000716  0.83D-08  0.45D-08  6  6    50.32     4.09
   7      1.15612211    -0.43064382  -499.58528544     0.00000052    -0.00000077  0.10D-08  0.46D-09  6  2    54.08     4.08
   8      1.15612269    -0.43064385  -499.58528547    -0.00000003    -0.00000025  0.16D-09  0.42D-10  6  1    57.79     4.07

 Norm of t1 vector:      0.04134317      S-energy:    -0.00000011      T1 diagnostic:  0.00781313
                                                                       D1 diagnostic:  0.01912893
                                                                       D2 diagnostic:  0.15453586 (internal)


 Total CPU time for triples:     42.16 sec


 RESULTS
 =======

  Reference energy                   -499.154641621082
  CCSD singlet pair energy             -0.306232497155
  CCSD triplet pair energy             -0.124411245232
  CCSD correlation energy              -0.430643849938

  Triples (T) contribution             -0.017735004657
  Total correlation energy             -0.448378854595

  CCSD total energy                  -499.585285471020
  CCSD[T] energy                     -499.603334086301
  CCSD-T energy                      -499.602904488113
 !CCSD(T) total energy               -499.603020475678

 Timing summary (sec):

 STEP                 CPU(USER)    SYS     CPU(TOT)    WALL
 Transformation          4.44      0.46      4.90      4.91
 CCSD iterations        53.39      1.55     54.94     32.71
 Triples                42.16      0.72     42.88     42.89

 Program statistics:

 Available memory in ccsd:              1073741615
 Min. memory needed in ccsd:               2853669
 Max. memory used in ccsd:                 3585162
 Max. memory used in cckext:               2657886 ( 8 integral passes)



 **********************************************************************************************************************************
 DATASETS  * FILE   NREC   LENGTH (MB)   RECORD NAMES
              1      20      933.71       500      610      700      900      950      970     1000      129      960     1100   
                                          VAR    BASINP    GEOM    SYMINP    ZMAT    AOBASIS   BASIS     P2S    ABASIS      S 
                                         1400     1410     1200     1210     1080     1600     1650     1300     1700     1380   
                                           T        V       H0       H01     AOSYM     SMH    MOLCAS    ERIS     OPER     JKOP   

              2       4        1.11       700     1000      520     2100   
                                         GEOM     BASIS   MCVARS     RHF  

 PROGRAMS   *        TOTAL   CCSD(T)    HF-SCF       INT
 CPU TIMES  *        99.69     77.47     11.32     10.80
 REAL TIME  *       108.52 SEC
 DISK USED  *         2.82 GB
 **********************************************************************************************************************************

 Dump information in style XML to xml output                                                                      

 Orbitals will not be exported.

 **********************************************************************************************************************************

 CCSD(T)/cc-pVQZ energy=   -499.603020475678

         CCSD(T)          HF-SCF
   -499.60302048   -499.15464162
 **********************************************************************************************************************************
 Molpro calculation terminated
