
 Working directory              : /var/folders/2v/xbgp75_9785319ghcgb4zr4r0000gp/T//molpro.gnTL0ruvGn/
 Global scratch directory       : /var/folders/2v/xbgp75_9785319ghcgb4zr4r0000gp/T//molpro.gnTL0ruvGn/
 Wavefunction directory         : /Users/sacpjk/wfu/
 Main file repository           : /var/folders/2v/xbgp75_9785319ghcgb4zr4r0000gp/T//molpro.gnTL0ruvGn/

 id        : peterk

 Nodes                        nprocs
 Cardiff-University-G34YLXT77Y    1
 GA implementation: MPI file
 GA implementation (serial work in mppx): MPI file

 Using customized tuning parameters: mindgm=1; mindgv=20; mindgc=4; mindgr=1; noblas=0; minvec=7
 default implementation of scratch files=df  


 Variables initialized (1032), CPU time= 0.00 sec
 
 symmetry,nosym
 
 
 geometry={
 6
  o         -1.692967873638   -0.055792648846    0.005566286146
  h         -2.012965043629    0.847043389039   -0.015864689617
  h         -0.733250757415    0.042389103344    0.000843023067
  o          1.230099247645    0.026984399092   -0.003755499652
  h          1.606720862419   -0.411395666637    0.762368881989
  h          1.602363564566   -0.449228575938   -0.749158001985
 }
 basis=aug-cc-pVDZ
 
 
 
 hf; hf; papt; mp4; counterpoise
 
 
 
 {put,xml;noorbitals,nobasis}
 Commands initialized (841), CPU time= 0.01 sec, 704 directives.
 Default parameters read. Elapsed time= 0.54 sec

 Checking input...
 Passed
1


                                         ***  PROGRAM SYSTEM MOLPRO  ***
                                       Copyright, TTI GmbH Stuttgart, 2015
                                    Version 2023.1 linked Tue Jun  6 09:54:11 2023


 **********************************************************************************************************************************
 LABEL *                                                                                                                                                                 
  64 bit serial version                                                                  DATE: 08-Jun-23          TIME: 16:51:36  
 **********************************************************************************************************************************

 SHA1:             8ebb0dd001088a5c915591db1a321413035db0b1
 **********************************************************************************************************************************

 Memory per process:       805 MW
 Total memory per node:   1074 MW
 Total GA space:           268 MW

 GA preallocation disabled
 GA check enabled

 Variable memory set to 805.3 MW

 ZSYMEL=NOSYM


 Geometry recognized as XYZ

 SETTING BASIS          =    AUG-CC-PVDZ


 Recomputing integrals since basis changed


 Using spherical harmonics

 Library entry O      S aug-cc-pVDZ          selected for orbital group  1
 Library entry O      P aug-cc-pVDZ          selected for orbital group  1
 Library entry O      D aug-cc-pVDZ          selected for orbital group  1
 Library entry H      S aug-cc-pVDZ          selected for orbital group  2
 Library entry H      P aug-cc-pVDZ          selected for orbital group  2


 PROGRAM * SEWARD (Integral evaluation for generally contracted gaussian basis sets)     Author: Roland Lindh, 1990

 Geometry written to block  1 of record 700


 Point group  C1  



 ATOMIC COORDINATES

 NR  ATOM    CHARGE       X              Y              Z

   1  O       8.00   -3.199245619   -0.105432826    0.010518756
   2  H       1.00   -3.803952631    1.600680021   -0.029979918
   3  H       1.00   -1.385643112    0.080103796    0.001593083
   4  O       8.00    2.324550684    0.050993124   -0.007096866
   5  H       1.00    3.036262389   -0.777425139    1.440668393
   6  H       1.00    3.028028289   -0.848918976   -1.415703448

 Bond lengths in Bohr (Angstrom)

 1-2  1.810561173  1-3  1.823090113  4-5  1.813514437  4-6  1.813531095
     ( 0.958107711)     ( 0.964737741)     ( 0.959670512)     ( 0.959679327)

 Bond angles

  2-1-3  103.66482512   5-4-6  103.95523304

 NUCLEAR CHARGE:                   20
 NUMBER OF PRIMITIVE AOS:         118
 NUMBER OF SYMMETRY AOS:          114
 NUMBER OF CONTRACTIONS:           82   (   82A   )
 NUMBER OF INNER CORE ORBITALS:     0   (    0A   )
 NUMBER OF OUTER CORE ORBITALS:     2   (    2A   )
 NUMBER OF VALENCE ORBITALS:       12   (   12A   )


 NUCLEAR REPULSION ENERGY   36.51369360

 Eigenvalues of metric

         1 0.167E-02 0.216E-02 0.263E-02 0.288E-02 0.629E-02 0.909E-02 0.114E-01 0.154E-01


 Contracted 2-electron integrals neglected if value below      1.0D-11
 AO integral compression algorithm  1   Integral accuracy      1.0D-11

     29.098 MB (compressed) written to integral file ( 50.4%)


 NUMBER OF SORTED TWO-ELECTRON INTEGRALS:    5791906.     BUFFER LENGTH:  32768
 NUMBER OF SEGMENTS:   1  SEGMENT LENGTH:    5791906      RECORD LENGTH: 524288

 Memory used in sort:       6.35 MW

 SORT1 READ     7252644. AND WROTE     5663220. INTEGRALS IN     17 RECORDS. CPU TIME:     0.05 SEC, REAL TIME:     0.07 SEC
 SORT2 READ     5663220. AND WROTE     5791906. INTEGRALS IN    111 RECORDS. CPU TIME:     0.08 SEC, REAL TIME:     0.10 SEC

 FILE SIZES:   FILE 1:    59.4 MBYTE,  FILE 4:    71.4 MBYTE,   TOTAL:    130.8 MBYTE

 OPERATOR DM      FOR CENTER  0  COORDINATES:    0.000000    0.000000    0.000000


 **********************************************************************************************************************************
 DATASETS  * FILE   NREC   LENGTH (MB)   RECORD NAMES
              1      19       51.50       500      610      700      900      950      970     1000      129      960     1100   
                                          VAR    BASINP    GEOM    SYMINP    ZMAT    AOBASIS   BASIS     P2S    ABASIS      S 
                                         1400     1410     1200     1210     1080     1600     1650     1300     1700   
                                           T        V       H0       H01     AOSYM     SMH    MOLCAS    ERIS     OPER   

 PROGRAMS   *        TOTAL       INT
 CPU TIMES  *         0.50      0.39
 REAL TIME  *         2.94 SEC
 DISK USED  *       125.15 MB
 **********************************************************************************************************************************


 Program * Restricted Hartree-Fock

 Orbital guess generated from atomic densities. Full valence occupancy:   14

 Initial occupancy:  10

 NELEC=   20   SYM=1   MS2= 0   THRE=1.0D-08   THRD=3.2D-06   THRG=3.2D-06  HFMA2=F  DIIS_START=2   DIIS_MAX=10   DIIS_INCORE=F

 Level shifts:    0.00 (CLOSED)    0.00 (OPEN)    0.30 (GAP_MIN)

 ITER           ETOT              DE          GRAD        DDIFF     DIIS  NEXP   TIME(IT)  TIME(TOT)  DIAG
   1     -152.02147010    -152.02147010     0.00D+00     0.11D+00     0     0       0.03      0.06    start
   2     -152.07105911      -0.04958901     0.10D-01     0.18D-01     1     0       0.03      0.09    diag
   3     -152.08810331      -0.01704421     0.59D-02     0.61D-02     2     0       0.02      0.11    diag
   4     -152.08848118      -0.00037786     0.65D-03     0.10D-02     3     0       0.03      0.14    diag
   5     -152.08850961      -0.00002843     0.15D-03     0.27D-03     4     0       0.03      0.17    diag
   6     -152.08851112      -0.00000151     0.33D-04     0.61D-04     5     0       0.03      0.20    diag
   7     -152.08851130      -0.00000018     0.15D-04     0.19D-04     6     0       0.02      0.22    diag
   8     -152.08851132      -0.00000002     0.31D-05     0.69D-05     7     0       0.03      0.25    fixocc
   9     -152.08851132      -0.00000000     0.49D-06     0.10D-05     8     0       0.03      0.28    diag
  10     -152.08851132      -0.00000000     0.86D-07     0.13D-06     0     0       0.03      0.31    diag/orth

 Final occupancy:  10

 !RHF STATE 1.1 Energy               -152.088511321976
  RHF One-electron energy            -282.242462874695
  RHF Two-electron energy              93.640257950493
  RHF Kinetic energy                  151.857925767336
  RHF Nuclear energy                   36.513693602226
  RHF Virial quotient                  -1.001518429502

 !RHF STATE 1.1 Dipole moment           1.14306801     0.03814875    -0.00367268
 Dipole moment /Debye                   2.90538909     0.09696444    -0.00933501

 Orbital energies:

           1.1          2.1          3.1          4.1          5.1          6.1          7.1          8.1          9.1         10.1
    -20.602784   -20.545951    -1.383099    -1.325609    -0.742008    -0.693806    -0.616212    -0.559759    -0.531459    -0.480285

          11.1         12.1
      0.027856     0.054933


 HOMO     10.1    -0.480285 =     -13.0692eV
 LUMO     11.1     0.027856 =       0.7580eV
 LUMO-HOMO         0.508141 =      13.8272eV

 Orbitals saved in record  2100.2


 **********************************************************************************************************************************
 DATASETS  * FILE   NREC   LENGTH (MB)   RECORD NAMES
              1      19       51.50       500      610      700      900      950      970     1000      129      960     1100   
                                          VAR    BASINP    GEOM    SYMINP    ZMAT    AOBASIS   BASIS     P2S    ABASIS      S 
                                         1400     1410     1200     1210     1080     1600     1650     1300     1700   
                                           T        V       H0       H01     AOSYM     SMH    MOLCAS    ERIS     OPER   

              2       4        0.57       700     1000      520     2100   
                                         GEOM     BASIS   MCVARS     RHF  

 PROGRAMS   *        TOTAL    HF-SCF       INT
 CPU TIMES  *         0.81      0.31      0.39
 REAL TIME  *         4.76 SEC
 DISK USED  *       125.15 MB
 **********************************************************************************************************************************


 Program * Restricted Hartree-Fock

 Molecular orbitals read from record     2100.2  Type=RHF/CANONICAL  

 Initial occupancy:  10

 NELEC=   20   SYM=1   MS2= 0   THRE=1.0D-08   THRD=3.2D-06   THRG=3.2D-06  HFMA2=F  DIIS_START=2   DIIS_MAX=10   DIIS_INCORE=F

 Level shifts:    0.00 (CLOSED)    0.00 (OPEN)    0.30 (GAP_MIN)

 ITER           ETOT              DE          GRAD        DDIFF     DIIS  NEXP   TIME(IT)  TIME(TOT)  DIAG
   1     -152.08851132    -152.08851132     0.00D+00     0.11D+00     0     0       0.03      0.03    start
   2     -152.08851132      -0.00000000     0.34D-07     0.49D-07     1     0       0.02      0.05    diag

 Final occupancy:  10

 !RHF STATE 1.1 Energy               -152.088511321979
  RHF One-electron energy            -282.242465994116
  RHF Two-electron energy              93.640261069912
  RHF Kinetic energy                  151.857928682163
  RHF Nuclear energy                   36.513693602226
  RHF Virial quotient                  -1.001518410279

 !RHF STATE 1.1 Dipole moment           1.14306765     0.03814934    -0.00367269
 Dipole moment /Debye                   2.90538816     0.09696596    -0.00933505

 Orbital energies:

           1.1          2.1          3.1          4.1          5.1          6.1          7.1          8.1          9.1         10.1
    -20.602784   -20.545952    -1.383099    -1.325609    -0.742008    -0.693806    -0.616212    -0.559759    -0.531459    -0.480286

          11.1         12.1
      0.027856     0.054933


 HOMO     10.1    -0.480286 =     -13.0692eV
 LUMO     11.1     0.027856 =       0.7580eV
 LUMO-HOMO         0.508142 =      13.8272eV

 Orbitals saved in record  2101.2


 **********************************************************************************************************************************
 DATASETS  * FILE   NREC   LENGTH (MB)   RECORD NAMES
              1      19       51.50       500      610      700      900      950      970     1000      129      960     1100   
                                          VAR    BASINP    GEOM    SYMINP    ZMAT    AOBASIS   BASIS     P2S    ABASIS      S 
                                         1400     1410     1200     1210     1080     1600     1650     1300     1700   
                                           T        V       H0       H01     AOSYM     SMH    MOLCAS    ERIS     OPER   

              2       5        0.85       700     1000      520     2100     2101   
                                         GEOM     BASIS   MCVARS     RHF      RHF  

 PROGRAMS   *        TOTAL    HF-SCF    HF-SCF       INT
 CPU TIMES  *         0.88      0.07      0.31      0.39
 REAL TIME  *         6.50 SEC
 DISK USED  *       125.15 MB
 **********************************************************************************************************************************


 PROGRAM * PAPT (Closed-shell)     Authors: C. Hampel, H.-J. Werner, 1991, P.J. Knowles, 2021


 Convergence thresholds:  THRVAR = 1.00D-08  THRDEN = 1.00D-06

 Number of core orbitals:           2 (   2 )
 Number of closed-shell orbitals:   8 (   8 )
 Number of external orbitals:      72 (  72 )

 Molecular orbitals read from record     2101.2  Type=RHF/CANONICAL  

 Number of N-1 electron functions:               8
 Number of N-2 electron functions:              36
 Number of singly external CSFs:               576
 Number of doubly external CSFs:            166176
 Total number of CSFs:                      166753

 Length of J-op  integral file:               0.00 MB
 Length of K-op  integral file:               0.52 MB

 Integral transformation finished. Total CPU:   0.06 sec, npass=  1  Memory used:   0.58 MW

 Reference energy:                   -152.08851132

                        CORR.ENERGY   TOTAL ENERGY   ENERGY CHANGE
 MP2:                   -0.44147703  -152.52998835    -0.44147703

 SCS-MP2 correlation energy:           -0.43184178   (PS=  1.200000  PT=  0.333333)
 SCS-MP2 total energy:               -152.52035311
 Iteration:   1     0.2216D+00
 Iteration:   2     0.2591D+00
 Iteration:   3     0.1237D+00
 Iteration:   4     0.2295D-01
 Iteration:   5     0.7604D+00
 Iteration:   6     0.1006D-01
 Iteration:   7     0.2660D-01
 Iteration:   8     0.3680D-02
 Iteration:   9     0.4156D-02
 Iteration:  10     0.3204D-02
 Iteration:  11     0.1571D-02
 Iteration:  12     0.9447D-02
 Iteration:  13     0.6828D-03
 Iteration:  14     0.1563D-02
 Iteration:  15     0.3863D-03
 Iteration:  16     0.3160D-03
 Iteration:  17     0.2563D-03
 Iteration:  18     0.1196D-03
 Iteration:  19     0.3027D-03
 Iteration:  20     0.1705D-03
 Iteration:  21     0.9305D-04
 PAPT operator written to  7000.1
 PAPT orbitals and eigenvalues written to  7000.2

 MP3(D):                -0.45075032  -152.53926164    -0.00927329



 RESULTS
 =======

  Reference energy                   -152.088511321979
  MP3 singlet pair energy              -0.295523555106
  MP3 triplet pair energy              -0.155226759982
  MP3 correlation energy               -0.450750315088

 !MP3 total energy                   -152.539261637067

 Timing summary (sec):

 STEP                 CPU(USER)    SYS     CPU(TOT)    WALL
 Transformation          0.06      0.01      0.07      0.34
 CCSD iterations         1.48      0.06      1.54      2.54

 Program statistics:

 Available memory in ccsd:               805306102
 Min. memory needed in ccsd:                527149
 Max. memory used in ccsd:                  660557
 Max. memory used in cckext:                560342 ( 1 integral passes)



 **********************************************************************************************************************************
 DATASETS  * FILE   NREC   LENGTH (MB)   RECORD NAMES
              1      21       54.42       500      610      700      900      950      970     1000      129      960     1100   
                                          VAR    BASINP    GEOM    SYMINP    ZMAT    AOBASIS   BASIS     P2S    ABASIS      S 
                                         1400     1410     1200     1210     1080     1600     1650     1300     1700     1380   
                                           T        V       H0       H01     AOSYM     SMH    MOLCAS    ERIS     OPER     JKOP   
                                         7000   
                                        PAPT AO    

              2       6        1.10       700     1000      520     2100     2101     7000   
                                         GEOM     BASIS   MCVARS     RHF      RHF     PAPT   

 PROGRAMS   *        TOTAL      PAPT    HF-SCF    HF-SCF       INT
 CPU TIMES  *         1.44      0.56      0.07      0.31      0.39
 REAL TIME  *         9.57 SEC
 DISK USED  *       125.15 MB
 **********************************************************************************************************************************


 PROGRAM * MP4 (Closed-shell)     Authors: C. Hampel, H.-J. Werner, 1991, M. Deegan, P.J. Knowles, 1992


 Convergence thresholds:  THRVAR = 1.00D-08  THRDEN = 1.00D-06

 MP4(T)     terms to be evaluated (factor= 0.000)


 Number of core orbitals:           2 (   2 )
 Number of closed-shell orbitals:   8 (   8 )
 Number of external orbitals:      72 (  72 )

 Molecular orbitals read from record     7000.2  Type=PAPT/CANONICAL (state 1.1)

 Number of N-1 electron functions:               8
 Number of N-2 electron functions:              36
 Number of singly external CSFs:               576
 Number of doubly external CSFs:            166176
 Total number of CSFs:                      166753

 Length of J-op  integral file:               0.00 MB
 Length of K-op  integral file:               0.52 MB

 Memory could be reduced to 4.46 Mwords without degradation in triples

 Integral transformation finished. Total CPU:   0.12 sec, npass=  1  Memory used:   3.09 MW
 Orbital energies read from record       7000.2  Type=PAPT/CANONICAL (state 1.1)

 Reference energy:                   -152.08851132

                        CORR.ENERGY   TOTAL ENERGY   ENERGY CHANGE
 MP2:                   -0.45340055  -152.54191187    -0.45340055

 SCS-MP2 correlation energy:           -0.44464221   (PS=  1.200000  PT=  0.333333)
 SCS-MP2 total energy:               -152.53315353

 MP3(D):                -0.45361105  -152.54212237    -0.00021050
 MP4(DQ):               -0.45305885  -152.54157018     0.00055219
 MP4(SDQ):              -0.45607455  -152.54458588    -0.00301570

 Norm of t1 vector:      0.05084335      S-energy:    -0.00301570      T1 diagnostic:  0.00898792

 Largest off-diagonal element in interal  block of Fock matrix:  0.71D-01
 Largest off-diagonal element in external block of Fock matrix:  0.17D+00


 Total CPU time for triples:      1.00 sec


 RESULTS
 =======

  Reference energy                   -152.088511321979
  MP4(SDQ) singlet pair energy         -0.296132371498
  MP4(SDQ) triplet pair energy         -0.156926483211
  MP4(SDQ) correlation energy          -0.456074553601

  Triples contribution                 -0.012265118813
  Total correlation energy             -0.468339672414

  MP4(SDQ) total energy              -152.544585875580
 !MP4(SDTQ) total energy             -152.556850994393

 Timing summary (sec):

 STEP                 CPU(USER)    SYS     CPU(TOT)    WALL
 Transformation          0.15      0.01      0.16      0.38
 CCSD iterations         1.78      0.02      1.80      0.61
 Triples                 1.00      0.09      1.09      1.28

 Program statistics:

 Available memory in ccsd:               805306102
 Min. memory needed in ccsd:                527149
 Max. memory used in ccsd:                  660557
 Max. memory used in cckext:                560342 ( 1 integral passes)



 **********************************************************************************************************************************
 DATASETS  * FILE   NREC   LENGTH (MB)   RECORD NAMES
              1      22       65.96       500      610      700      900      950      970     1000      129      960     1100   
                                          VAR    BASINP    GEOM    SYMINP    ZMAT    AOBASIS   BASIS     P2S    ABASIS      S 
                                         1400     1410     1200     1210     1080     1600     1650     1300     1700     1380   
                                           T        V       H0       H01     AOSYM     SMH    MOLCAS    ERIS     OPER     JKOP   
                                         7000     1380(1)
                                        PAPT AO   JKOP   

              2       6        1.10       700     1000      520     2100     2101     7000   
                                         GEOM     BASIS   MCVARS     RHF      RHF     PAPT   

 PROGRAMS   *        TOTAL       MP4      PAPT    HF-SCF    HF-SCF       INT
 CPU TIMES  *         2.83      1.39      0.56      0.07      0.31      0.39
 REAL TIME  *        12.58 SEC
 DISK USED  *       125.15 MB
 **********************************************************************************************************************************

 Counterpoise: absolute minimum monomer separation=    -1.000 Bragg radius scale factor=     1.400 Number of monomers= 2

 Counterpoise  MP4  energy

 Running default procedure: HF-SCF001  PAPT  MP4

 Assignment of unique atoms to monomers:
1-6     1     1     1     2     2     2

 *** Long output written to logfile /Users/sacpjk/current/PAPT/S66/7616fe93/01.molpro/run/1.molpro/1.log ***


 Description                       ENERGY          ENERGR          ENERGC
 Raw                        -152.55685099   -152.08851132   -152.54458588
 Dimer basis, monomer 1      -76.27467445    -76.04116256    -76.26867996
 Dimer basis, monomer 2      -76.27523977    -76.04154533    -76.26920375
 Monomer basis, monomer 1    -76.27423573    -76.04108150    -76.26829689
 Monomer basis, monomer 2    -76.27422344    -76.04124490    -76.26830117
 Counterpoise correction       0.00145505      0.00038150      0.00128565
 Counterpoise corrected     -152.55539595   -152.08812982   -152.54330022


 **********************************************************************************************************************************
 DATASETS  * FILE   NREC   LENGTH (MB)   RECORD NAMES
              1      18       28.92       500      610      700      900      950      970     1000      129      960     1100   
                                          VAR    BASINP    GEOM    SYMINP    ZMAT    AOBASIS   BASIS     P2S    ABASIS      S 
                                         1400     1410     1200     1210     1080     1600     1650     1700   
                                           T        V       H0       H01     AOSYM     SMH    MOLCAS    OPER   

              2      11        2.46       700     1000      520     2100     2101     2102      701     1001     2103      702   
                                         GEOM     BASIS   MCVARS     RHF      RHF      RHF     GEOM     BASIS     RHF     GEOM   
                                         7000   
                                         PAPT   

 PROGRAMS   *        TOTALCOUNTERPOI      PAPT    HF-SCF       INT       MP4      PAPT    HF-SCF       INT       MP4      PAPT
 CPU TIMES  *         4.97      0.11      0.06      0.02      0.07      0.06      0.05      0.02      0.08      0.32      0.17
 REAL TIME  *        28.77 SEC
 DISK USED  *       125.15 MB
 **********************************************************************************************************************************

 Dump information in style XML to xml output                                                                      

 Orbitals will not be exported.

 **********************************************************************************************************************************

 MP4/aug-cc-pVDZ energy=   -152.555395948896

             MP4            PAPT          HF-SCF             MP4            PAPT          HF-SCF             MP4            PAPT
    -76.27422344    -76.26555000    -76.04124490    -76.27423573    -76.26552891    -76.04108150    -76.27523977    -76.26645435
 **********************************************************************************************************************************
 Molpro calculation terminated
