
 Working directory              : /tmp/peterk/molpro.HpmFBT07De/
 Global scratch directory       : /tmp/peterk/molpro.HpmFBT07De/
 Wavefunction directory         : /home/peterk/wfu/
 Main file repository           : /tmp/peterk/molpro.HpmFBT07De/

 id        : peterk

 Nodes     nprocs
 marat        1
 GA implementation: MPI file
 GA implementation (serial work in mppx): MPI file

 Using customized tuning parameters: mindgm=1; mindgv=20; mindgc=4; mindgr=1; noblas=0; minvec=7
 default implementation of scratch files=df  


 Variables initialized (1032), CPU time= 0.00 sec
 
 symmetry,nosym
 
 
 geometry={
            6
     F          0.00000000      0.00000000     -1.99680889
     C          0.00000000      0.00000000      0.05274751
     H         -0.53104260      0.91979276     -0.07385286
     H         -0.53104260     -0.91979276     -0.07385286
     H          1.06208520      0.00000000     -0.07385286
     CL         0.00000000      0.00000000      2.16561997
 }
 basis=cc-pVQZ
 
 charge=-1
 
 hf; ccsd
 
 
 
 {put,xml;noorbitals,nobasis}
 Commands initialized (841), CPU time= 0.00 sec, 708 directives.
 Default parameters read. Elapsed time= 0.06 sec

 Checking input...
 Passed
1


                                         ***  PROGRAM SYSTEM MOLPRO  ***
                                       Copyright, TTI GmbH Stuttgart, 2015
                                    Version 2023.1 linked Sat Jun 10 08:01:27 2023


 **********************************************************************************************************************************
 LABEL *                                                                                                                                                                 
  (16 PROC) 64 bit serial version                                                        DATE: 10-Jun-23          TIME: 19:34:47  
 **********************************************************************************************************************************

 SHA1:             8376d659ba1296ca7ee514c57770fe2c96af278c
 **********************************************************************************************************************************

 Memory per process:      1074 MW
 Total memory per node:   1074 MW

 GA preallocation disabled
 GA check disabled

 Variable memory set to 1073.7 MW

 ZSYMEL=NOSYM


 Geometry recognized as XYZ

 SETTING BASIS          =    CC-PVQZ
 SETTING CHARGE         =        -1.00000000                                  


 Recomputing integrals since basis changed


 Using spherical harmonics

 Library entry F      S cc-pVQZ              selected for orbital group  1
 Library entry F      P cc-pVQZ              selected for orbital group  1
 Library entry F      D cc-pVQZ              selected for orbital group  1
 Library entry F      F cc-pVQZ              selected for orbital group  1
 Library entry F      G cc-pVQZ              selected for orbital group  1
 Library entry C      S cc-pVQZ              selected for orbital group  2
 Library entry C      P cc-pVQZ              selected for orbital group  2
 Library entry C      D cc-pVQZ              selected for orbital group  2
 Library entry C      F cc-pVQZ              selected for orbital group  2
 Library entry C      G cc-pVQZ              selected for orbital group  2
 Library entry H      S cc-pVQZ              selected for orbital group  3
 Library entry H      P cc-pVQZ              selected for orbital group  3
 Library entry H      D cc-pVQZ              selected for orbital group  3
 Library entry H      F cc-pVQZ              selected for orbital group  3
 Library entry CL     S cc-pVQZ              selected for orbital group  4
 Library entry CL     P cc-pVQZ              selected for orbital group  4
 Library entry CL     D cc-pVQZ              selected for orbital group  4
 Library entry CL     F cc-pVQZ              selected for orbital group  4
 Library entry CL     G cc-pVQZ              selected for orbital group  4


 PROGRAM * SEWARD (Integral evaluation for generally contracted gaussian basis sets)     Author: Roland Lindh, 1990

 Geometry written to block  1 of record 700


 Point group  C1  



 ATOMIC COORDINATES

 NR  ATOM    CHARGE       X              Y              Z

   1  F       9.00    0.000000000    0.000000000   -3.773421925
   2  C       6.00    0.000000000    0.000000000    0.099678348
   3  H       1.00   -1.003525075    1.738156408   -0.139561679
   4  H       1.00   -1.003525075   -1.738156408   -0.139561679
   5  H       1.00    2.007050149    0.000000000   -0.139561679
   6  CL     17.00    0.000000000    0.000000000    4.092428633

 Bond lengths in Bohr (Angstrom)

 2-3  2.021258535  2-4  2.021258535  2-5  2.021258541  2-6  3.992750286
     ( 1.069603954)     ( 1.069603954)     ( 1.069603957)     ( 2.112872460)

 Bond angles

  3-2-4  118.61917631   3-2-5  118.61917664   3-2-6   96.79757334   4-2-5  118.61917664

  4-2-6   96.79757334   5-2-6   96.79757331

 NUCLEAR CHARGE:                   35
 NUMBER OF PRIMITIVE AOS:         379
 NUMBER OF SYMMETRY AOS:          319
 NUMBER OF CONTRACTIONS:          259   (  259A   )
 NUMBER OF INNER CORE ORBITALS:     1   (    1A   )
 NUMBER OF OUTER CORE ORBITALS:     6   (    6A   )
 NUMBER OF VALENCE ORBITALS:       15   (   15A   )


 NUCLEAR REPULSION ENERGY   86.10071454


 Eigenvalues of metric

         1 0.146E-03 0.213E-03 0.255E-03 0.255E-03 0.313E-03 0.408E-03 0.408E-03 0.434E-03


 Contracted 2-electron integrals neglected if value below      1.0D-11
 AO integral compression algorithm  1   Integral accuracy      1.0D-11

     1559.233 MB (compressed) written to integral file ( 30.6%)


 NUMBER OF SORTED TWO-ELECTRON INTEGRALS:  566851285.     BUFFER LENGTH:  32768
 NUMBER OF SEGMENTS:  36  SEGMENT LENGTH:   15999762      RECORD LENGTH: 262144

 Memory used in sort:      16.29 MW

 SORT1 READ   637873682. AND WROTE   377002404. INTEGRALS IN   2176 RECORDS. CPU TIME:    11.11 SEC, REAL TIME:    81.19 SEC
 SORT2 READ   377002404. AND WROTE   566851285. INTEGRALS IN   5948 RECORDS. CPU TIME:     9.55 SEC, REAL TIME:    29.28 SEC

 FILE SIZES:   FILE 1:  1591.8 MBYTE,  FILE 4:  4563.5 MBYTE,   TOTAL:   6155.3 MBYTE

 OPERATOR DM      FOR CENTER  0  COORDINATES:    0.000000    0.000000    0.000000


 **********************************************************************************************************************************
 DATASETS  * FILE   NREC   LENGTH (MB)   RECORD NAMES
              1      19     1334.18       500      610      700      900      950      970     1000      129      960     1100   
                                          VAR    BASINP    GEOM    SYMINP    ZMAT    AOBASIS   BASIS     P2S    ABASIS      S 
                                         1400     1410     1200     1210     1080     1600     1650     1300     1700   
                                           T        V       H0       H01     AOSYM     SMH    MOLCAS    ERIS     OPER   

 PROGRAMS   *        TOTAL       INT
 CPU TIMES  *        37.49     37.40
 REAL TIME  *       129.99 SEC
 DISK USED  *         5.73 GB
 **********************************************************************************************************************************


 Program * Restricted Hartree-Fock

 Orbital guess generated from atomic densities. Full valence occupancy:   22

 Initial occupancy:  18

 NELEC=   36   SYM=1   MS2= 0   THRE=1.0D-08   THRD=3.2D-06   THRG=3.2D-06  HFMA2=F  DIIS_START=2   DIIS_MAX=10   DIIS_INCORE=F

 Level shifts:    0.00 (CLOSED)    0.00 (OPEN)    0.30 (GAP_MIN)

 ITER           ETOT              DE          GRAD        DDIFF     DIIS  NEXP   TIME(IT)  TIME(TOT)  DIAG
   1     -598.52544078    -598.52544078     0.00D+00     0.46D-01     0     0       3.37      6.45    start
   2     -598.57831866      -0.05287788     0.51D-02     0.64D-02     1     0       3.37      9.82    diag
   3     -598.62156850      -0.04324984     0.43D-02     0.25D-02     2     0       3.58     13.40    diag
   4     -598.62279451      -0.00122601     0.34D-03     0.58D-03     3     0       3.32     16.72    diag
   5     -598.62295634      -0.00016183     0.13D-03     0.29D-03     4     0       3.34     20.06    diag
   6     -598.62298210      -0.00002576     0.45D-04     0.95D-04     5     0       3.32     23.38    diag
   7     -598.62298468      -0.00000259     0.14D-04     0.35D-04     6     0       3.33     26.71    diag
   8     -598.62298489      -0.00000021     0.43D-05     0.83D-05     7     0       3.36     30.07    fixocc
   9     -598.62298491      -0.00000002     0.13D-05     0.29D-05     8     0       3.31     33.38    diag
  10     -598.62298491      -0.00000000     0.31D-06     0.68D-06     9     0       3.42     36.80    diag/orth
  11     -598.62298491      -0.00000000     0.10D-06     0.15D-06     0     0       3.42     40.22    diag

 Final occupancy:  18

 !RHF STATE 1.1 Energy               -598.622984912922
  RHF One-electron energy           -1008.306759744392
  RHF Two-electron energy             323.583060287635
  RHF Kinetic energy                  598.672148441883
  RHF Nuclear energy                   86.100714543835
  RHF Virial quotient                  -0.999917879044

 !RHF STATE 1.1 Dipole moment          -0.00000001    -0.00000000     0.39979207
 Dipole moment /Debye                  -0.00000002    -0.00000000     1.01617007

 Orbital energies:

           1.1          2.1          3.1          4.1          5.1          6.1          7.1          8.1          9.1         10.1
   -104.601310   -25.898235   -11.136594   -10.327491    -7.794160    -7.793425    -7.793425    -1.163159    -0.874777    -0.743662

          11.1         12.1         13.1         14.1         15.1         16.1         17.1         18.1         19.1         20.1
     -0.450135    -0.450135    -0.315034    -0.264629    -0.264629    -0.240422    -0.240422    -0.218684     0.271861     0.338647


 HOMO     18.1    -0.218684 =      -5.9507eV
 LUMO     19.1     0.271861 =       7.3977eV
 LUMO-HOMO         0.490545 =      13.3484eV

 Orbitals saved in record  2100.2


 **********************************************************************************************************************************
 DATASETS  * FILE   NREC   LENGTH (MB)   RECORD NAMES
              1      19     1334.18       500      610      700      900      950      970     1000      129      960     1100   
                                          VAR    BASINP    GEOM    SYMINP    ZMAT    AOBASIS   BASIS     P2S    ABASIS      S 
                                         1400     1410     1200     1210     1080     1600     1650     1300     1700   
                                           T        V       H0       H01     AOSYM     SMH    MOLCAS    ERIS     OPER   

              2       4        1.53       700     1000      520     2100   
                                         GEOM     BASIS   MCVARS     RHF  

 PROGRAMS   *        TOTAL    HF-SCF       INT
 CPU TIMES  *        77.71     40.22     37.40
 REAL TIME  *       172.24 SEC
 DISK USED  *         5.73 GB
 **********************************************************************************************************************************


 PROGRAM * CCSD (Closed-shell coupled cluster)     Authors: C. Hampel, H.-J. Werner, 1991, M. Deegan, P.J. Knowles, 1992


 Convergence thresholds:  THRVAR = 1.00D-08  THRDEN = 1.00D-06

 Number of core orbitals:           7 (   7 )
 Number of closed-shell orbitals:  11 (  11 )
 Number of external orbitals:     241 ( 241 )

 Molecular orbitals read from record     2100.2  Type=RHF/CANONICAL  

 Number of N-1 electron functions:              11
 Number of N-2 electron functions:              66
 Number of singly external CSFs:              2651
 Number of doubly external CSFs:           3515226
 Total number of CSFs:                     3517878

 Length of J-op  integral file:               0.00 MB
 Length of K-op  integral file:               4.67 MB
 Length of 3-ext integral record:             0.00 MB

 Integral transformation finished. Total CPU:  17.51 sec, npass=  1  Memory used: 113.49 MW

 Reference energy:                   -598.62298491

 MP2 singlet pair energy:              -0.45999453
 MP2 triplet pair energy:              -0.25097840
 MP2 correlation energy:               -0.71097293
 MP2 total energy:                   -599.33395785

 SCS-MP2 correlation energy:           -0.70815778   (PS=  1.200000  PT=  0.333333)
 SCS-MP2 total energy:               -599.33114269

 ITER.      SQ.NORM     CORR.ENERGY   TOTAL ENERGY   ENERGY CHANGE        DEN1      VAR(S)    VAR(P)  DIIS     TIME  TIME/IT
   1      1.20300415    -0.73292825  -599.35591316    -0.02195532    -0.00288239  0.54D-02  0.34D-02  1  1   118.74    23.18
   2      1.21583945    -0.73316147  -599.35614638    -0.00023322    -0.01510934  0.90D-04  0.68D-03  2  2   141.77    23.33
   3      1.22192216    -0.73354214  -599.35652706    -0.00038068    -0.00273444  0.22D-03  0.44D-04  3  3   164.34    23.26
   4      1.22463789    -0.73342549  -599.35641040     0.00011666    -0.00103172  0.49D-04  0.82D-05  4  4   187.69    23.43
   5      1.22676967    -0.73336577  -599.35635068     0.00005972    -0.00047311  0.79D-05  0.17D-05  5  5   210.80    23.47
   6      1.22755651    -0.73335111  -599.35633602     0.00001466    -0.00007638  0.17D-05  0.29D-06  6  6   234.19    23.54
   7      1.22790552    -0.73332921  -599.35631412     0.00002190    -0.00003351  0.20D-06  0.74D-07  6  1   257.53    23.57
   8      1.22798665    -0.73332475  -599.35630967     0.00000446    -0.00001437  0.66D-07  0.11D-07  6  2   281.89    23.80
   9      1.22799496    -0.73332501  -599.35630992    -0.00000026     0.00000272  0.13D-07  0.44D-08  6  4   304.97    24.15
  10      1.22800125    -0.73332483  -599.35630974     0.00000018    -0.00000057  0.17D-08  0.52D-09  6  3   325.88    23.88

 Norm of t1 vector:      0.10908812      S-energy:     0.00000050      T1 diagnostic:  0.01644565
                                                                       D1 diagnostic:  0.06976409
                                                                       D2 diagnostic:  0.15842147 (internal)

 Singles amplitudes (print threshold =  0.500E-01):

         I         SYM. A    A   T(IA)

         6         1         2     -0.05708101


 RESULTS
 =======

  Reference energy                   -598.622984912922
  CCSD singlet pair energy             -0.503358856825
  CCSD triplet pair energy             -0.229966477369
  CCSD correlation energy              -0.733324831918

 !CCSD total energy                  -599.356309744840

 Timing summary (sec):

 STEP                 CPU(USER)    SYS     CPU(TOT)    WALL
 Transformation         17.72      1.40     19.12     19.44
 CCSD iterations       308.40      4.86    313.26    239.14

 Program statistics:

 Available memory in ccsd:              1073741322
 Min. memory needed in ccsd:               9362003
 Max. memory used in ccsd:                12460109
 Max. memory used in cckext:               9428648 (10 integral passes)



 **********************************************************************************************************************************
 DATASETS  * FILE   NREC   LENGTH (MB)   RECORD NAMES
              1      20     1975.73       500      610      700      900      950      970     1000      129      960     1100   
                                          VAR    BASINP    GEOM    SYMINP    ZMAT    AOBASIS   BASIS     P2S    ABASIS      S 
                                         1400     1410     1200     1210     1080     1600     1650     1300     1700     1380   
                                           T        V       H0       H01     AOSYM     SMH    MOLCAS    ERIS     OPER     JKOP   

              2       4        1.53       700     1000      520     2100   
                                         GEOM     BASIS   MCVARS     RHF  

 PROGRAMS   *        TOTAL      CCSD    HF-SCF       INT
 CPU TIMES  *       325.81    248.08     40.22     37.40
 REAL TIME  *       431.27 SEC
 DISK USED  *         5.73 GB
 **********************************************************************************************************************************

 Dump information in style XML to xml output                                                                      

 Orbitals will not be exported.

 **********************************************************************************************************************************

 CCSD/cc-pVQZ energy=   -599.356309744840

            CCSD          HF-SCF
   -599.35630974   -598.62298491
 **********************************************************************************************************************************
 Molpro calculation terminated
