
 Working directory              : /var/folders/2v/xbgp75_9785319ghcgb4zr4r0000gp/T//molpro.ppOUJxdBkF/
 Global scratch directory       : /var/folders/2v/xbgp75_9785319ghcgb4zr4r0000gp/T//molpro.ppOUJxdBkF/
 Wavefunction directory         : /Users/sacpjk/wfu/
 Main file repository           : /var/folders/2v/xbgp75_9785319ghcgb4zr4r0000gp/T//molpro.ppOUJxdBkF/

 id        : peterk

 Nodes                        nprocs
 Cardiff-University-G34YLXT77Y    1
 GA implementation: MPI file
 GA implementation (serial work in mppx): MPI file

 Using customized tuning parameters: mindgm=1; mindgv=20; mindgc=4; mindgr=1; noblas=0; minvec=7
 default implementation of scratch files=df  


 Variables initialized (1032), CPU time= 0.00 sec
 
 symmetry,nosym
 
 
 geometry={
           11
     SI         0.00000000      0.00000000     -1.37623855
     C          0.00000000     -1.35357748     -0.07601309
     C          0.00000000      1.35357748     -0.07601309
     C          0.00000000     -0.74316826      1.12396734
     C          0.00000000      0.74316826      1.12396734
     H         -1.20433722      0.00000000     -2.24936353
     H          1.20433722      0.00000000     -2.24936353
     H          0.00000000     -2.43103687     -0.18113112
     H          0.00000000      2.43103687     -0.18113112
     H          0.00000000     -1.27765046      2.07065968
     H          0.00000000      1.27765046      2.07065968
 }
 basis=cc-pVDZ
 
 
 
 hf; mp2
 
 
 
 {put,xml;noorbitals,nobasis}
 Commands initialized (841), CPU time= 0.00 sec, 704 directives.
 Default parameters read. Elapsed time= 1.44 sec

 Checking input...
 Passed
1


                                         ***  PROGRAM SYSTEM MOLPRO  ***
                                       Copyright, TTI GmbH Stuttgart, 2015
                                    Version 2023.1 linked Tue Jun  6 09:54:11 2023


 **********************************************************************************************************************************
 LABEL *                                                                                                                                                                 
  64 bit serial version                                                                  DATE: 10-Jun-23          TIME: 15:03:43  
 **********************************************************************************************************************************

 SHA1:             8ebb0dd001088a5c915591db1a321413035db0b1
 **********************************************************************************************************************************

 Memory per process:       805 MW
 Total memory per node:   1074 MW
 Total GA space:           268 MW

 GA preallocation disabled
 GA check enabled

 Variable memory set to 805.3 MW

 ZSYMEL=NOSYM


 Geometry recognized as XYZ

 SETTING BASIS          =    CC-PVDZ


 Recomputing integrals since basis changed


 Using spherical harmonics

 Library entry SI     S cc-pVDZ              selected for orbital group  1
 Library entry SI     P cc-pVDZ              selected for orbital group  1
 Library entry SI     D cc-pVDZ              selected for orbital group  1
 Library entry C      S cc-pVDZ              selected for orbital group  2
 Library entry C      P cc-pVDZ              selected for orbital group  2
 Library entry C      D cc-pVDZ              selected for orbital group  2
 Library entry H      S cc-pVDZ              selected for orbital group  3
 Library entry H      P cc-pVDZ              selected for orbital group  3


 PROGRAM * SEWARD (Integral evaluation for generally contracted gaussian basis sets)     Author: Roland Lindh, 1990

 Geometry written to block  1 of record 700


 Point group  C1  



 ATOMIC COORDINATES

 NR  ATOM    CHARGE       X              Y              Z

   1  SI     14.00    0.000000000    0.000000000   -2.600713942
   2  C       6.00    0.000000000   -2.557890726   -0.143643922
   3  C       6.00    0.000000000    2.557890726   -0.143643922
   4  C       6.00    0.000000000   -1.404384476    2.123990446
   5  C       6.00    0.000000000    1.404384476    2.123990446
   6  H       1.00   -2.275867507    0.000000000   -4.250681026
   7  H       1.00    2.275867507    0.000000000   -4.250681026
   8  H       1.00    0.000000000   -4.593993883   -0.342288209
   9  H       1.00    0.000000000    4.593993883   -0.342288209
  10  H       1.00    0.000000000   -2.414409452    3.912979693
  11  H       1.00    0.000000000    2.414409452    3.912979693

 Bond lengths in Bohr (Angstrom)

 1-2  3.546829295  1-3  3.546829295  1-4  4.929008755  1-5  4.929008755  1-6  2.811043275
     ( 1.876901234)     ( 1.876901234)     ( 2.608319105)     ( 2.608319105)     ( 1.487540040)

 1-7  2.811043275  2-4  2.544158465  2-8  2.045770178  3-5  2.544158465  3-9  2.045770178
     ( 1.487540040)     ( 1.346310680)     ( 1.082574957)     ( 1.346310680)     ( 1.082574957)

  4- 5  2.808768952   4-10  2.054417917   5-11  2.054417917
       ( 1.486336520)       ( 1.087151143)       ( 1.087151143)

 Bond angles

  1-2-4  106.88663096   1-2-8  130.57951851   1-3-5  106.88663096   1-3-9  130.57951851

  1- 4- 2   43.51585429   1- 4- 5   73.44579629   1- 4-10  167.10606238   1- 5- 3   43.51585429

  1- 5- 4   73.44579629   1- 5-11  167.10606238   2- 1- 3   92.30343693   2- 1- 4   29.59751475

  2-1-5   62.70592218   2-1-6  113.99246493   2-1-7  113.99246493   2-4-5  116.96165057

  2- 4-10  123.59020809   3- 1- 4   62.70592218   3- 1- 5   29.59751475   3- 1- 6  113.99246493

  3- 1- 7  113.99246493   3- 5- 4  116.96165057   3- 5-11  123.59020809   4- 1- 5   33.10840743

  4- 1- 6  124.23786799   4- 1- 7  124.23786799   4- 2- 8  122.53385052   4- 5-11  119.44814133

  5- 1- 6  124.23786799   5- 1- 7  124.23786799   5- 3- 9  122.53385052   5- 4-10  119.44814133

  6-1-7  108.11699271

 NUCLEAR CHARGE:                   44
 NUMBER OF PRIMITIVE AOS:         192
 NUMBER OF SYMMETRY AOS:          187
 NUMBER OF CONTRACTIONS:          104   (  104A   )
 NUMBER OF INNER CORE ORBITALS:     1   (    1A   )
 NUMBER OF OUTER CORE ORBITALS:     8   (    8A   )
 NUMBER OF VALENCE ORBITALS:       26   (   26A   )


 NUCLEAR REPULSION ENERGY  200.95161614

 EXTRA SYMMETRY OF AOS IN SYMMETRY 1:   1 1 1 1 1 1 1 1 1 1   1 1 1 1 2 1 1 1 1 1   1 2 1 1 2 1 1 1 2 2   1 1 1 1 1 2 1 1 2 1
                                        1 1 2 2 1 1 1 1 1 2   1 1 2 1 1 1 2 2 1 1   1 1 1 2 1 1 2 1 1 1   2 2 1 1 1 1 1 2 1 1
                                        1 1 2 1 1 1 2 1 1 1   1 2 1 1 1 1 2 1 1 1   1 2 1 1

 Eigenvalues of metric

         1 0.112E-02 0.325E-02 0.422E-02 0.533E-02 0.135E-01 0.139E-01 0.178E-01 0.190E-01


 Contracted 2-electron integrals neglected if value below      1.0D-11
 AO integral compression algorithm  1   Integral accuracy      1.0D-11

     46.399 MB (compressed) written to integral file ( 35.7%)


 NUMBER OF SORTED TWO-ELECTRON INTEGRALS:   14908530.     BUFFER LENGTH:  32768
 NUMBER OF SEGMENTS:   1  SEGMENT LENGTH:   14908530      RECORD LENGTH: 524288

 Memory used in sort:      15.47 MW

 SORT1 READ    16329994. AND WROTE     9759571. INTEGRALS IN     28 RECORDS. CPU TIME:     0.09 SEC, REAL TIME:     0.11 SEC
 SORT2 READ     9759571. AND WROTE    14908530. INTEGRALS IN    177 RECORDS. CPU TIME:     0.13 SEC, REAL TIME:     0.15 SEC

 FILE SIZES:   FILE 1:    77.0 MBYTE,  FILE 4:   117.5 MBYTE,   TOTAL:    194.5 MBYTE

 OPERATOR DM      FOR CENTER  0  COORDINATES:    0.000000    0.000000    0.000000


 **********************************************************************************************************************************
 DATASETS  * FILE   NREC   LENGTH (MB)   RECORD NAMES
              1      19       68.23       500      610      700      900      950      970     1000      129      960     1100   
                                          VAR    BASINP    GEOM    SYMINP    ZMAT    AOBASIS   BASIS     P2S    ABASIS      S 
                                         1400     1410     1200     1210     1080     1600     1650     1300     1700   
                                           T        V       H0       H01     AOSYM     SMH    MOLCAS    ERIS     OPER   

 PROGRAMS   *        TOTAL       INT
 CPU TIMES  *         1.04      0.94
 REAL TIME  *         3.36 SEC
 DISK USED  *       185.98 MB
 **********************************************************************************************************************************


 Program * Restricted Hartree-Fock

 Orbital guess generated from atomic densities. Full valence occupancy:   35

 Initial occupancy:  22

 NELEC=   44   SYM=1   MS2= 0   THRE=1.0D-08   THRD=3.2D-06   THRG=3.2D-06  HFMA2=F  DIIS_START=2   DIIS_MAX=10   DIIS_INCORE=F

 Level shifts:    0.00 (CLOSED)    0.00 (OPEN)    0.30 (GAP_MIN)

 ITER           ETOT              DE          GRAD        DDIFF     DIIS  NEXP   TIME(IT)  TIME(TOT)  DIAG
   1     -443.80466582    -443.80466582     0.00D+00     0.12D+00     0     0       0.06      0.12    start
   2     -443.85773250      -0.05306668     0.43D-02     0.10D-01     1     0       0.06      0.18    diag
   3     -443.86476680      -0.00703430     0.17D-02     0.35D-02     2     0       0.07      0.25    diag
   4     -443.86591169      -0.00114489     0.55D-03     0.14D-02     3     0       0.06      0.31    diag
   5     -443.86594368      -0.00003199     0.82D-04     0.27D-03     4     0       0.06      0.37    diag
   6     -443.86595013      -0.00000645     0.46D-04     0.96D-04     5     0       0.06      0.43    diag
   7     -443.86595068      -0.00000056     0.88D-05     0.26D-04     6     0       0.07      0.50    diag
   8     -443.86595073      -0.00000005     0.29D-05     0.85D-05     7     0       0.06      0.56    fixocc
   9     -443.86595074      -0.00000000     0.68D-06     0.24D-05     8     0       0.06      0.62    diag
  10     -443.86595074      -0.00000000     0.19D-06     0.52D-06     0     0       0.07      0.69    diag/orth

 Final occupancy:  22

 !RHF STATE 1.1 Energy               -443.865950735655
  RHF One-electron energy           -1008.084292555780
  RHF Two-electron energy             363.266725677506
  RHF Kinetic energy                  443.723650264117
  RHF Nuclear energy                  200.951616142619
  RHF Virial quotient                  -1.000320696162

 !RHF STATE 1.1 Dipole moment          -0.00000000     0.00000000     0.28284730
 Dipole moment /Debye                  -0.00000000     0.00000000     0.71892614

 Orbital energies:

           1.1          2.1          3.1          4.1          5.1          6.1          7.1          8.1          9.1         10.1
    -68.776115   -11.251799   -11.251088   -11.221035   -11.221022    -6.125266    -4.231609    -4.231026    -4.230984    -1.108105

          11.1         12.1         13.1         14.1         15.1         16.1         17.1         18.1         19.1         20.1
     -0.975711    -0.840939    -0.703517    -0.703434    -0.657886    -0.571014    -0.533357    -0.499058    -0.450911    -0.442204

          21.1         22.1         23.1         24.1
     -0.427111    -0.322228     0.086749     0.166368


 HOMO     22.1    -0.322228 =      -8.7683eV
 LUMO     23.1     0.086749 =       2.3606eV
 LUMO-HOMO         0.408977 =      11.1288eV

 Orbitals saved in record  2100.2


 **********************************************************************************************************************************
 DATASETS  * FILE   NREC   LENGTH (MB)   RECORD NAMES
              1      19       68.23       500      610      700      900      950      970     1000      129      960     1100   
                                          VAR    BASINP    GEOM    SYMINP    ZMAT    AOBASIS   BASIS     P2S    ABASIS      S 
                                         1400     1410     1200     1210     1080     1600     1650     1300     1700   
                                           T        V       H0       H01     AOSYM     SMH    MOLCAS    ERIS     OPER   

              2       4        0.72       700     1000      520     2100   
                                         GEOM     BASIS   MCVARS     RHF  

 PROGRAMS   *        TOTAL    HF-SCF       INT
 CPU TIMES  *         1.73      0.70      0.94
 REAL TIME  *         4.81 SEC
 DISK USED  *       185.98 MB
 **********************************************************************************************************************************


 PROGRAM * MP2 (Closed-shell)     Authors: C. Hampel, H.-J. Werner, 1991, M. Deegan, P.J. Knowles, 1992


 Convergence thresholds:  THRVAR = 1.00D-08  THRDEN = 1.00D-06

 Number of core orbitals:           9 (   9 )
 Number of closed-shell orbitals:  13 (  13 )
 Number of external orbitals:      82 (  82 )

 Molecular orbitals read from record     2100.2  Type=RHF/CANONICAL  

 Number of N-1 electron functions:              13
 Number of N-2 electron functions:              91
 Number of singly external CSFs:              1066
 Number of doubly external CSFs:            568711
 Total number of CSFs:                      569778

 Length of J-op  integral file:               0.00 MB
 Length of K-op  integral file:               0.81 MB

 Integral transformation finished. Total CPU:   0.15 sec, npass=  1  Memory used:   1.87 MW

 Memory needed for MP2:                      0.05 MW

 SCS-MP2 correlation energy:           -0.614051523772   (PS=  1.200000  PT=  0.333333)
 SCS-MP2 total energy:               -444.480002259429


  Reference energy                   -443.865950735657
  MP2 singlet pair energy              -0.396241330249
  MP2 triplet pair energy              -0.222688812011
  MP2 correlation energy               -0.618930142260

 !MP2 total energy                   -444.484880877917


 **********************************************************************************************************************************
 DATASETS  * FILE   NREC   LENGTH (MB)   RECORD NAMES
              1      20       79.70       500      610      700      900      950      970     1000      129      960     1100   
                                          VAR    BASINP    GEOM    SYMINP    ZMAT    AOBASIS   BASIS     P2S    ABASIS      S 
                                         1400     1410     1200     1210     1080     1600     1650     1300     1700     1380   
                                           T        V       H0       H01     AOSYM     SMH    MOLCAS    ERIS     OPER     JKOP   

              2       4        0.72       700     1000      520     2100   
                                         GEOM     BASIS   MCVARS     RHF  

 PROGRAMS   *        TOTAL       MP2    HF-SCF       INT
 CPU TIMES  *         1.94      0.21      0.70      0.94
 REAL TIME  *         5.51 SEC
 DISK USED  *       185.98 MB
 **********************************************************************************************************************************

 Dump information in style XML to xml output                                                                      

 Orbitals will not be exported.

 **********************************************************************************************************************************

 MP2/cc-pVDZ energy=   -444.484880877917

             MP2          HF-SCF
   -444.48488088   -443.86595074
 **********************************************************************************************************************************
 Molpro calculation terminated
