
 Working directory              : /var/folders/2v/xbgp75_9785319ghcgb4zr4r0000gp/T//molpro.LMI4utSEdw/
 Global scratch directory       : /var/folders/2v/xbgp75_9785319ghcgb4zr4r0000gp/T//molpro.LMI4utSEdw/
 Wavefunction directory         : /Users/sacpjk/wfu/
 Main file repository           : /var/folders/2v/xbgp75_9785319ghcgb4zr4r0000gp/T//molpro.LMI4utSEdw/

 id        : peterk

 Nodes                        nprocs
 Cardiff-University-G34YLXT77Y    1
 GA implementation: MPI file
 GA implementation (serial work in mppx): MPI file

 Using customized tuning parameters: mindgm=1; mindgv=20; mindgc=4; mindgr=1; noblas=0; minvec=7
 default implementation of scratch files=df  


 Variables initialized (1032), CPU time= 0.00 sec
 
 symmetry,nosym
 
 
 geometry={
           10
     N         -0.36120484     -0.92429803      0.27257660
     N          1.02247060     -1.25862078      0.17701934
     H          1.59670310     -0.40904371      0.11357548
     H          1.13377768     -1.75855802     -0.70395977
     H         -0.50225869     -0.62945487      1.24604677
     N         -0.74206979      0.14702554     -0.61853552
     N         -0.42150018      1.48198064     -0.19308732
     H         -1.75800424      0.09952159     -0.67804120
     H         -0.51640901      1.58409122      0.82511497
     H          0.54849537      1.66735642     -0.44070935
 }
 basis=cc-pVTZ
 
 
 
 hf; hf; papt; mp4
 
 
 
 {put,xml;noorbitals,nobasis}
 Commands initialized (841), CPU time= 0.01 sec, 704 directives.
 Default parameters read. Elapsed time= 0.67 sec

 Checking input...
 Passed
1


                                         ***  PROGRAM SYSTEM MOLPRO  ***
                                       Copyright, TTI GmbH Stuttgart, 2015
                                    Version 2023.1 linked Tue Jun  6 09:54:11 2023


 **********************************************************************************************************************************
 LABEL *                                                                                                                                                                 
  64 bit serial version                                                                  DATE: 13-Jun-23          TIME: 07:30:39  
 **********************************************************************************************************************************

 SHA1:             8ebb0dd001088a5c915591db1a321413035db0b1
 **********************************************************************************************************************************

 Memory per process:       393 MW
 Total memory per node:    524 MW
 Total GA space:           131 MW

 GA preallocation disabled
 GA check enabled

 Variable memory set to 393.2 MW

 ZSYMEL=NOSYM


 Geometry recognized as XYZ

 SETTING BASIS          =    CC-PVTZ


 Recomputing integrals since basis changed


 Using spherical harmonics

 Library entry N      S cc-pVTZ              selected for orbital group  1
 Library entry N      P cc-pVTZ              selected for orbital group  1
 Library entry N      D cc-pVTZ              selected for orbital group  1
 Library entry N      F cc-pVTZ              selected for orbital group  1
 Library entry H      S cc-pVTZ              selected for orbital group  2
 Library entry H      P cc-pVTZ              selected for orbital group  2
 Library entry H      D cc-pVTZ              selected for orbital group  2


 PROGRAM * SEWARD (Integral evaluation for generally contracted gaussian basis sets)     Author: Roland Lindh, 1990

 Geometry written to block  1 of record 700


 Point group  C1  



 ATOMIC COORDINATES

 NR  ATOM    CHARGE       X              Y              Z

   1  N       7.00   -0.682578222   -1.746670134    0.515095122
   2  N       7.00    1.932189404   -2.378448569    0.334518071
   3  H       1.00    3.017331561   -0.772980585    0.214626552
   4  H       1.00    2.142529301   -3.323193032   -1.330291168
   5  H       1.00   -0.949131368   -1.189497312    2.354687134
   6  N       7.00   -1.402308668    0.277838004   -1.168862731
   7  N       7.00   -0.796519902    2.800537532   -0.364882153
   8  H       1.00   -3.322146540    0.188068549   -1.281312169
   9  H       1.00   -0.975871597    2.993498562    1.559241315
  10  H       1.00    1.036506030    3.150846986   -0.832819972

 Bond lengths in Bohr (Angstrom)

 1-2  2.696064132  1-5  1.940513051  1-6  2.729900945  2-3  1.941503264  2-4  1.925714095
     ( 1.426695698)     ( 1.026875284)     ( 1.444601368)     ( 1.027399282)     ( 1.019044014)

  6- 7  2.716132859   6- 8  1.925222294   7- 9  1.942074177   7-10  1.923971565
       ( 1.437315611)       ( 1.018783764)       ( 1.027701396)       ( 1.018121907)

 Bond angles

  1-2-3  110.63576547   1-2-4  106.18857567   1-6-7  116.57683676   1-6-8  105.32891587

  2-1-5  105.30743929   2-1-6  112.84032248   3-2-4  106.93267926   5-1-6  109.61061023

  6- 7- 9  111.40456527   6- 7-10  108.03562281   7- 6- 8  106.43970835   9- 7-10  108.11112034

 NUCLEAR CHARGE:                   34
 NUMBER OF PRIMITIVE AOS:         290
 NUMBER OF SYMMETRY AOS:          264
 NUMBER OF CONTRACTIONS:          204   (  204A   )
 NUMBER OF INNER CORE ORBITALS:     0   (    0A   )
 NUMBER OF OUTER CORE ORBITALS:     4   (    4A   )
 NUMBER OF VALENCE ORBITALS:       22   (   22A   )


 NUCLEAR REPULSION ENERGY  136.40566214


 Eigenvalues of metric

         1 0.869E-03 0.979E-03 0.157E-02 0.180E-02 0.246E-02 0.256E-02 0.320E-02 0.330E-02


 Contracted 2-electron integrals neglected if value below      1.0D-11
 AO integral compression algorithm  1   Integral accuracy      1.0D-11

     863.240 MB (compressed) written to integral file ( 45.0%)


 NUMBER OF SORTED TWO-ELECTRON INTEGRALS:  218624505.     BUFFER LENGTH:  32768
 NUMBER OF SEGMENTS:  14  SEGMENT LENGTH:   15999503      RECORD LENGTH: 524288

 Memory used in sort:      16.56 MW

 SORT1 READ   239598844. AND WROTE   205620052. INTEGRALS IN    595 RECORDS. CPU TIME:     1.79 SEC, REAL TIME:     2.43 SEC
 SORT2 READ   205620052. AND WROTE   218624505. INTEGRALS IN   3293 RECORDS. CPU TIME:     1.36 SEC, REAL TIME:     1.80 SEC

 FILE SIZES:   FILE 1:   894.9 MBYTE,  FILE 4:  2495.7 MBYTE,   TOTAL:   3390.6 MBYTE

 OPERATOR DM      FOR CENTER  0  COORDINATES:    0.000000    0.000000    0.000000


 **********************************************************************************************************************************
 DATASETS  * FILE   NREC   LENGTH (MB)   RECORD NAMES
              1      19      782.61       500      610      700      900      950      970     1000      129      960     1100   
                                          VAR    BASINP    GEOM    SYMINP    ZMAT    AOBASIS   BASIS     P2S    ABASIS      S 
                                         1400     1410     1200     1210     1080     1600     1650     1300     1700   
                                           T        V       H0       H01     AOSYM     SMH    MOLCAS    ERIS     OPER   

 PROGRAMS   *        TOTAL       INT
 CPU TIMES  *         8.44      8.34
 REAL TIME  *        12.31 SEC
 DISK USED  *         3.16 GB
 **********************************************************************************************************************************


 Program * Restricted Hartree-Fock

 Orbital guess generated from atomic densities. Full valence occupancy:   26

 Initial occupancy:  17

 NELEC=   34   SYM=1   MS2= 0   THRE=1.0D-08   THRD=3.2D-06   THRG=3.2D-06  HFMA2=F  DIIS_START=2   DIIS_MAX=10   DIIS_INCORE=F

 Level shifts:    0.00 (CLOSED)    0.00 (OPEN)    0.30 (GAP_MIN)

 ITER           ETOT              DE          GRAD        DDIFF     DIIS  NEXP   TIME(IT)  TIME(TOT)  DIAG
   1     -221.20305234    -221.20305234     0.00D+00     0.53D-01     0     0       0.88      1.73    start
   2     -221.25143359      -0.04838125     0.40D-02     0.50D-02     1     0       0.90      2.63    diag
   3     -221.25627169      -0.00483810     0.14D-02     0.14D-02     2     0       0.90      3.53    diag
   4     -221.25714815      -0.00087646     0.51D-03     0.53D-03     3     0       0.90      4.43    diag
   5     -221.25722387      -0.00007572     0.13D-03     0.15D-03     4     0       0.89      5.32    diag
   6     -221.25722980      -0.00000593     0.27D-04     0.47D-04     5     0       0.89      6.21    diag
   7     -221.25723042      -0.00000062     0.83D-05     0.17D-04     6     0       0.91      7.12    diag
   8     -221.25723049      -0.00000007     0.32D-05     0.57D-05     7     0       0.89      8.01    fixocc
   9     -221.25723050      -0.00000001     0.11D-05     0.19D-05     8     0       0.89      8.90    diag
  10     -221.25723050      -0.00000000     0.21D-06     0.36D-06     0     0       0.89      9.79    diag/orth

 Final occupancy:  17

 !RHF STATE 1.1 Energy               -221.257230497366
  RHF One-electron energy            -571.488853550996
  RHF Two-electron energy             213.825960915576
  RHF Kinetic energy                  220.753307823934
  RHF Nuclear energy                  136.405662138054
  RHF Virial quotient                  -1.002282741212

 !RHF STATE 1.1 Dipole moment           0.23674064     0.50019248     0.37115393
 Dipole moment /Debye                   0.60173469     1.27136246     0.94337919

 Orbital energies:

           1.1          2.1          3.1          4.1          5.1          6.1          7.1          8.1          9.1         10.1
    -15.607934   -15.607330   -15.582091   -15.573833    -1.334921    -1.215927    -1.063796    -0.931035    -0.706083    -0.688451

          11.1         12.1         13.1         14.1         15.1         16.1         17.1         18.1         19.1
     -0.673964    -0.630755    -0.603856    -0.460139    -0.430153    -0.416762    -0.391406     0.129821     0.156066


 HOMO     17.1    -0.391406 =     -10.6507eV
 LUMO     18.1     0.129821 =       3.5326eV
 LUMO-HOMO         0.521227 =      14.1833eV

 Orbitals saved in record  2100.2


 **********************************************************************************************************************************
 DATASETS  * FILE   NREC   LENGTH (MB)   RECORD NAMES
              1      19      782.61       500      610      700      900      950      970     1000      129      960     1100   
                                          VAR    BASINP    GEOM    SYMINP    ZMAT    AOBASIS   BASIS     P2S    ABASIS      S 
                                         1400     1410     1200     1210     1080     1600     1650     1300     1700   
                                           T        V       H0       H01     AOSYM     SMH    MOLCAS    ERIS     OPER   

              2       4        1.19       700     1000      520     2100   
                                         GEOM     BASIS   MCVARS     RHF  

 PROGRAMS   *        TOTAL    HF-SCF       INT
 CPU TIMES  *        18.23      9.79      8.34
 REAL TIME  *        24.12 SEC
 DISK USED  *         3.16 GB
 **********************************************************************************************************************************


 Program * Restricted Hartree-Fock

 Molecular orbitals read from record     2100.2  Type=RHF/CANONICAL  

 Initial occupancy:  17

 NELEC=   34   SYM=1   MS2= 0   THRE=1.0D-08   THRD=3.2D-06   THRG=3.2D-06  HFMA2=F  DIIS_START=2   DIIS_MAX=10   DIIS_INCORE=F

 Level shifts:    0.00 (CLOSED)    0.00 (OPEN)    0.30 (GAP_MIN)

 ITER           ETOT              DE          GRAD        DDIFF     DIIS  NEXP   TIME(IT)  TIME(TOT)  DIAG
   1     -221.25723050    -221.25723050     0.00D+00     0.55D-01     0     0       0.89      0.89    start
   2     -221.25723050      -0.00000000     0.10D-06     0.17D-06     1     0       0.89      1.78    diag

 Final occupancy:  17

 !RHF STATE 1.1 Energy               -221.257230497426
  RHF One-electron energy            -571.488892278140
  RHF Two-electron energy             213.825999642660
  RHF Kinetic energy                  220.753326158255
  RHF Nuclear energy                  136.405662138054
  RHF Virial quotient                  -1.002282657969

 !RHF STATE 1.1 Dipole moment           0.23674416     0.50018990     0.37116331
 Dipole moment /Debye                   0.60174362     1.27135593     0.94340305

 Orbital energies:

           1.1          2.1          3.1          4.1          5.1          6.1          7.1          8.1          9.1         10.1
    -15.607933   -15.607338   -15.582098   -15.573833    -1.334922    -1.215929    -1.063797    -0.931035    -0.706085    -0.688452

          11.1         12.1         13.1         14.1         15.1         16.1         17.1         18.1         19.1
     -0.673966    -0.630757    -0.603856    -0.460140    -0.430153    -0.416764    -0.391407     0.129821     0.156066


 HOMO     17.1    -0.391407 =     -10.6507eV
 LUMO     18.1     0.129821 =       3.5326eV
 LUMO-HOMO         0.521227 =      14.1833eV

 Orbitals saved in record  2101.2


 **********************************************************************************************************************************
 DATASETS  * FILE   NREC   LENGTH (MB)   RECORD NAMES
              1      19      782.61       500      610      700      900      950      970     1000      129      960     1100   
                                          VAR    BASINP    GEOM    SYMINP    ZMAT    AOBASIS   BASIS     P2S    ABASIS      S 
                                         1400     1410     1200     1210     1080     1600     1650     1300     1700   
                                           T        V       H0       H01     AOSYM     SMH    MOLCAS    ERIS     OPER   

              2       5        2.41       700     1000      520     2100     2101   
                                         GEOM     BASIS   MCVARS     RHF      RHF  

 PROGRAMS   *        TOTAL    HF-SCF    HF-SCF       INT
 CPU TIMES  *        20.03      1.80      9.79      8.34
 REAL TIME  *        26.39 SEC
 DISK USED  *         3.16 GB
 **********************************************************************************************************************************


 PROGRAM * PAPT (Closed-shell)     Authors: C. Hampel, H.-J. Werner, 1991, P.J. Knowles, 2021


 Convergence thresholds:  THRVAR = 1.00D-08  THRDEN = 1.00D-06

 Number of core orbitals:           4 (   4 )
 Number of closed-shell orbitals:  13 (  13 )
 Number of external orbitals:     187 ( 187 )

 Molecular orbitals read from record     2101.2  Type=RHF/CANONICAL  

 Number of N-1 electron functions:              13
 Number of N-2 electron functions:              91
 Number of singly external CSFs:              2431
 Number of doubly external CSFs:           2956096
 Total number of CSFs:                     2958528

 Length of J-op  integral file:               0.00 MB
 Length of K-op  integral file:               2.92 MB

 Integral transformation finished. Total CPU:   1.79 sec, npass=  1  Memory used:   7.17 MW

 Reference energy:                   -221.25723050

                        CORR.ENERGY   TOTAL ENERGY   ENERGY CHANGE
 MP2:                   -0.86091040  -222.11814090    -0.86091040

 SCS-MP2 correlation energy:           -0.85151129   (PS=  1.200000  PT=  0.333333)
 SCS-MP2 total energy:               -222.10874179
 Iteration:   1     0.1943D+00
 Iteration:   2     0.2955D+00
 Iteration:   3     0.3923D-01
 Iteration:   4     0.4514D-01
 Iteration:   5     0.1931D-01
 Iteration:   6     0.1197D-01
 Iteration:   7     0.9897D-02
 Iteration:   8     0.3531D-02
 Iteration:   9     0.1268D-01
 Iteration:  10     0.1757D-02
 Iteration:  11     0.2058D-02
 Iteration:  12     0.1260D-02
 Iteration:  13     0.5925D-03
 Iteration:  14     0.1807D-02
 Iteration:  15     0.5584D-03
 Iteration:  16     0.3670D-03
 Iteration:  17     0.4618D-03
 Iteration:  18     0.1147D-03
 Iteration:  19     0.1092D-02
 Iteration:  20     0.2982D-04
 PAPT operator written to  7000.1
 PAPT orbitals and eigenvalues written to  7000.2

 MP3(D):                -0.88289074  -222.14012123    -0.02198033



 RESULTS
 =======

  Reference energy                   -221.257230497426
  MP3 singlet pair energy              -0.592811979041
  MP3 triplet pair energy              -0.290078756034
  MP3 correlation energy               -0.882890735074

 !MP3 total energy                   -222.140121232500

 Timing summary (sec):

 STEP                 CPU(USER)    SYS     CPU(TOT)    WALL
 Transformation          1.92      0.23      2.15      2.42
 CCSD iterations        33.27      0.46     33.73     15.32

 Program statistics:

 Available memory in ccsd:               393215307
 Min. memory needed in ccsd:               7623489
 Max. memory used in ccsd:                10267091
 Max. memory used in cckext:               7974630 ( 1 integral passes)



 **********************************************************************************************************************************
 DATASETS  * FILE   NREC   LENGTH (MB)   RECORD NAMES
              1      21      826.82       500      610      700      900      950      970     1000      129      960     1100   
                                          VAR    BASINP    GEOM    SYMINP    ZMAT    AOBASIS   BASIS     P2S    ABASIS      S 
                                         1400     1410     1200     1210     1080     1600     1650     1300     1700     1380   
                                           T        V       H0       H01     AOSYM     SMH    MOLCAS    ERIS     OPER     JKOP   
                                         7000   
                                        PAPT AO    

              2       6        3.46       700     1000      520     2100     2101     7000   
                                         GEOM     BASIS   MCVARS     RHF      RHF     PAPT   

 PROGRAMS   *        TOTAL      PAPT    HF-SCF    HF-SCF       INT
 CPU TIMES  *        35.10     15.07      1.80      9.79      8.34
 REAL TIME  *        44.40 SEC
 DISK USED  *         3.16 GB
 **********************************************************************************************************************************


 PROGRAM * MP4 (Closed-shell)     Authors: C. Hampel, H.-J. Werner, 1991, M. Deegan, P.J. Knowles, 1992


 Convergence thresholds:  THRVAR = 1.00D-08  THRDEN = 1.00D-06

 MP4(T)     terms to be evaluated (factor= 0.000)


 Number of core orbitals:           4 (   4 )
 Number of closed-shell orbitals:  13 (  13 )
 Number of external orbitals:     187 ( 187 )

 Molecular orbitals read from record     7000.2  Type=PAPT/CANONICAL (state 1.1)

 Number of N-1 electron functions:              13
 Number of N-2 electron functions:              91
 Number of singly external CSFs:              2431
 Number of doubly external CSFs:           2956096
 Total number of CSFs:                     2958528

 Length of J-op  integral file:               0.00 MB
 Length of K-op  integral file:               2.92 MB

 Memory could be reduced to 109.03 Mwords without degradation in triples

 Integral transformation finished. Total CPU:   4.40 sec, npass=  1  Memory used:  66.89 MW
 Orbital energies read from record       7000.2  Type=PAPT/CANONICAL (state 1.1)

 Reference energy:                   -221.25723050

                        CORR.ENERGY   TOTAL ENERGY   ENERGY CHANGE
 MP2:                   -0.88958462  -222.14681512    -0.88958462

 SCS-MP2 correlation energy:           -0.88357069   (PS=  1.200000  PT=  0.333333)
 SCS-MP2 total energy:               -222.14080119

 MP3(D):                -0.88988393  -222.14711442    -0.00029930
 MP4(DQ):               -0.88066766  -222.13789816     0.00921627
 MP4(SDQ):              -0.88711943  -222.14434993    -0.00645177

 Norm of t1 vector:      0.06155683      S-energy:    -0.00645177      T1 diagnostic:  0.00853640

 Largest off-diagonal element in interal  block of Fock matrix:  0.85D-01
 Largest off-diagonal element in external block of Fock matrix:  0.18D+00


 Total CPU time for triples:    122.01 sec


 RESULTS
 =======

  Reference energy                   -221.257230497426
  MP4(SDQ) singlet pair energy         -0.591802779750
  MP4(SDQ) triplet pair energy         -0.288864881667
  MP4(SDQ) correlation energy          -0.887119431180

  Triples contribution                 -0.040144090962
  Total correlation energy             -0.927263522142

  MP4(SDQ) total energy              -222.144349928607
 !MP4(SDTQ) total energy             -222.184494019568

 Timing summary (sec):

 STEP                 CPU(USER)    SYS     CPU(TOT)    WALL
 Transformation          5.42      0.66      6.08      6.53
 CCSD iterations        42.92      0.32     43.24      8.77
 Triples               122.01      5.70    127.71    135.69

 Program statistics:

 Available memory in ccsd:               393215307
 Min. memory needed in ccsd:               7623489
 Max. memory used in ccsd:                10267091
 Max. memory used in cckext:               7974630 ( 1 integral passes)



 **********************************************************************************************************************************
 DATASETS  * FILE   NREC   LENGTH (MB)   RECORD NAMES
              1      22     1152.84       500      610      700      900      950      970     1000      129      960     1100   
                                          VAR    BASINP    GEOM    SYMINP    ZMAT    AOBASIS   BASIS     P2S    ABASIS      S 
                                         1400     1410     1200     1210     1080     1600     1650     1300     1700     1380   
                                           T        V       H0       H01     AOSYM     SMH    MOLCAS    ERIS     OPER     JKOP   
                                         7000     1380(1)
                                        PAPT AO   JKOP   

              2       6        3.46       700     1000      520     2100     2101     7000   
                                         GEOM     BASIS   MCVARS     RHF      RHF     PAPT   

 PROGRAMS   *        TOTAL       MP4      PAPT    HF-SCF    HF-SCF       INT
 CPU TIMES  *       170.26    135.16     15.07      1.80      9.79      8.34
 REAL TIME  *       195.59 SEC
 DISK USED  *         3.16 GB
 **********************************************************************************************************************************

 Dump information in style XML to xml output                                                                      

 Orbitals will not be exported.

 **********************************************************************************************************************************

 MP4/cc-pVTZ energy=   -222.184494019568

             MP4            PAPT          HF-SCF          HF-SCF
   -222.18449402   -222.14012123   -221.25723050   -221.25723050
 **********************************************************************************************************************************
 Molpro calculation terminated
