
 Working directory              : /var/folders/2v/xbgp75_9785319ghcgb4zr4r0000gp/T//molpro.aOZOwGfR43/
 Global scratch directory       : /var/folders/2v/xbgp75_9785319ghcgb4zr4r0000gp/T//molpro.aOZOwGfR43/
 Wavefunction directory         : /Users/sacpjk/wfu/
 Main file repository           : /var/folders/2v/xbgp75_9785319ghcgb4zr4r0000gp/T//molpro.aOZOwGfR43/

 id        : peterk

 Nodes                        nprocs
 Cardiff-University-G34YLXT77Y    1
 GA implementation: MPI file
 GA implementation (serial work in mppx): MPI file

 Using customized tuning parameters: mindgm=1; mindgv=20; mindgc=4; mindgr=1; noblas=0; minvec=7
 default implementation of scratch files=df  


 Variables initialized (1032), CPU time= 0.01 sec
 
 symmetry,nosym
 
 
 geometry={
           16
     C          0.21201045     -0.48957299      0.56019014
     C         -0.21306270      0.49020536     -0.56049526
     C          0.44094453      0.18131125     -1.87943573
     C         -0.20248370     -0.15111787     -2.99914113
     C         -0.44094578     -0.17994088      1.87947861
     C          0.20355845      0.14962224      2.99941201
     H         -0.05302664     -1.50888335      0.24377002
     H          1.30395084     -0.46896998      0.67310018
     H         -1.30491609      0.46878935     -0.67408830
     H          0.05105039      1.50962573     -0.24368515
     H          1.53174992      0.22833727     -1.89003674
     H         -1.28860708     -0.21254389     -3.03699714
     H          0.32767449     -0.37021894     -3.92227346
     H         -1.53187817     -0.22397589      1.89020561
     H         -0.32586574      0.36924632      3.92284033
     H          1.28984683      0.20808626      3.03715602
 }
 basis=cc-pVTZ
 
 
 
 hf; hf; papt; mp2
 
 
 
 {put,xml;noorbitals,nobasis}
 Commands initialized (841), CPU time= 0.00 sec, 704 directives.
 Default parameters read. Elapsed time= 0.21 sec

 Checking input...
 Passed
1


                                         ***  PROGRAM SYSTEM MOLPRO  ***
                                       Copyright, TTI GmbH Stuttgart, 2015
                                    Version 2023.1 linked Tue Jun  6 09:54:11 2023


 **********************************************************************************************************************************
 LABEL *                                                                                                                                                                 
  64 bit serial version                                                                  DATE: 11-Jun-23          TIME: 09:27:39  
 **********************************************************************************************************************************

 SHA1:             8ebb0dd001088a5c915591db1a321413035db0b1
 **********************************************************************************************************************************

 Memory per process:       393 MW
 Total memory per node:    524 MW
 Total GA space:           131 MW

 GA preallocation disabled
 GA check enabled

 Variable memory set to 393.2 MW

 ZSYMEL=NOSYM


 Geometry recognized as XYZ

 SETTING BASIS          =    CC-PVTZ


 Recomputing integrals since basis changed


 Using spherical harmonics

 Library entry C      S cc-pVTZ              selected for orbital group  1
 Library entry C      P cc-pVTZ              selected for orbital group  1
 Library entry C      D cc-pVTZ              selected for orbital group  1
 Library entry C      F cc-pVTZ              selected for orbital group  1
 Library entry H      S cc-pVTZ              selected for orbital group  2
 Library entry H      P cc-pVTZ              selected for orbital group  2
 Library entry H      D cc-pVTZ              selected for orbital group  2


 PROGRAM * SEWARD (Integral evaluation for generally contracted gaussian basis sets)     Author: Roland Lindh, 1990

 Geometry written to block  1 of record 700


 Point group  C1  



 ATOMIC COORDINATES

 NR  ATOM    CHARGE       X              Y              Z

   1  C       6.00    0.400641686   -0.925158869    1.058605942
   2  C       6.00   -0.402630150    0.926353875   -1.059182536
   3  C       6.00    0.833264398    0.342628606   -3.551618799
   4  C       6.00   -0.382638738   -0.285571387   -5.667555345
   5  C       6.00   -0.833266760   -0.340038982    3.551699830
   6  C       6.00    0.384669721    0.282745056    5.668067234
   7  H       1.00   -0.100205827   -2.851376286    0.460658575
   8  H       1.00    2.464109968   -0.886224823    1.271974995
   9  H       1.00   -2.465934026    0.885883482   -1.273842271
  10  H       1.00    0.096471256    2.852779180   -0.460498194
  11  H       1.00    2.894587840    0.431494904   -3.571651804
  12  H       1.00   -2.435114463   -0.401649742   -5.739092836
  13  H       1.00    0.619215044   -0.699612403   -7.412022625
  14  H       1.00   -2.894830198   -0.423253091    3.571970922
  15  H       1.00   -0.615797002    0.697774417    7.413093854
  16  H       1.00    2.437457251    0.393226042    5.739393076

 Bond lengths in Bohr (Angstrom)

 1-2  2.925469727  1-5  2.842606633  1-7  2.078148893  1-8  2.074835791  2-3  2.842606031
     ( 1.548091911)     ( 1.504242650)     ( 1.099709035)     ( 1.097955817)     ( 1.504242331)

  2- 9  2.074834822   2-10  2.078133684   3- 4  2.519968876   3-11  2.063335376   4-12  2.056999855
       ( 1.097955304)       ( 1.099700987)       ( 1.333510101)       ( 1.091870059)       ( 1.088517446)

  4-13  2.053851761   5- 6  2.519968297   5-14  2.063341783   6-15  2.053850272   6-16  2.056995399
       ( 1.086851546)       ( 1.333509795)       ( 1.091873450)       ( 1.086850759)       ( 1.088515088)

 Bond angles

  1- 2- 3  112.66819098   1- 2- 9  109.60921989   1- 2-10  108.19161320   1- 5- 6  125.28558186

  1- 5-14  115.72277759   2- 1- 5  112.67121694   2- 1- 7  108.18922602   2- 1- 8  109.61164772

  2- 3- 4  125.28480975   2- 3-11  115.72295421   3- 2- 9  109.73312352   3- 2-10  109.78780825

  3- 4-12  121.64907226   3- 4-13  121.87545710   4- 3-11  118.98764627   5- 1- 7  109.78722094

  5- 1- 8  109.73335793   5- 6-15  121.87497903   5- 6-16  121.64943497   6- 5-14  118.98717432

  7- 1- 8  106.65860238   9- 2-10  106.66168499  12- 4-13  116.47484984  15- 6-16  116.47497343

 NUCLEAR CHARGE:                   46
 NUMBER OF PRIMITIVE AOS:         452
 NUMBER OF SYMMETRY AOS:          412
 NUMBER OF CONTRACTIONS:          320   (  320A   )
 NUMBER OF INNER CORE ORBITALS:     0   (    0A   )
 NUMBER OF OUTER CORE ORBITALS:     6   (    6A   )
 NUMBER OF VALENCE ORBITALS:       34   (   34A   )


 NUCLEAR REPULSION ENERGY  211.48477282


 Eigenvalues of metric

         1 0.308E-03 0.469E-03 0.524E-03 0.733E-03 0.915E-03 0.947E-03 0.112E-02 0.117E-02


 Contracted 2-electron integrals neglected if value below      1.0D-11
 AO integral compression algorithm  1   Integral accuracy      1.0D-11

     3461.874 MB (compressed) written to integral file ( 34.5%)


 NUMBER OF SORTED TWO-ELECTRON INTEGRALS: 1318950480.     BUFFER LENGTH:  32768
 NUMBER OF SEGMENTS:  42  SEGMENT LENGTH:   31998710      RECORD LENGTH: 524288

 Memory used in sort:      32.56 MW

 SORT1 READ  1255726821. AND WROTE   913539036. INTEGRALS IN   2638 RECORDS. CPU TIME:    10.92 SEC, REAL TIME:    27.27 SEC
 SORT2 READ   913539036. AND WROTE  1318950480. INTEGRALS IN  13206 RECORDS. CPU TIME:     8.02 SEC, REAL TIME:    19.57 SEC

 FILE SIZES:   FILE 1:  3495.9 MBYTE,  FILE 4: 11064.6 MBYTE,   TOTAL:  14560.5 MBYTE

 OPERATOR DM      FOR CENTER  0  COORDINATES:    0.000000    0.000000    0.000000


 **********************************************************************************************************************************
 DATASETS  * FILE   NREC   LENGTH (MB)   RECORD NAMES
              1      19     3066.53       500      610      700      900      950      970     1000      129      960     1100   
                                          VAR    BASINP    GEOM    SYMINP    ZMAT    AOBASIS   BASIS     P2S    ABASIS      S 
                                         1400     1410     1200     1210     1080     1600     1650     1300     1700   
                                           T        V       H0       H01     AOSYM     SMH    MOLCAS    ERIS     OPER   

 PROGRAMS   *        TOTAL       INT
 CPU TIMES  *        48.26     48.15
 REAL TIME  *       114.16 SEC
 DISK USED  *        13.56 GB
 **********************************************************************************************************************************


 Program * Restricted Hartree-Fock

 Orbital guess generated from atomic densities. Full valence occupancy:   40

 Initial occupancy:  23

 NELEC=   46   SYM=1   MS2= 0   THRE=1.0D-08   THRD=3.2D-06   THRG=3.2D-06  HFMA2=F  DIIS_START=2   DIIS_MAX=10   DIIS_INCORE=F

 Level shifts:    0.00 (CLOSED)    0.00 (OPEN)    0.30 (GAP_MIN)

 ITER           ETOT              DE          GRAD        DDIFF     DIIS  NEXP   TIME(IT)  TIME(TOT)  DIAG
   1     -232.99323888    -232.99323888     0.00D+00     0.41D-01     0     0       6.86     13.15    start
   2     -233.05894025      -0.06570137     0.26D-02     0.36D-02     1     0       6.88     20.03    diag
   3     -233.06579806      -0.00685781     0.87D-03     0.10D-02     2     0       6.93     26.96    diag
   4     -233.06679859      -0.00100053     0.28D-03     0.41D-03     3     0       6.81     33.77    diag
   5     -233.06681976      -0.00002117     0.35D-04     0.81D-04     4     0       6.83     40.60    diag
   6     -233.06682058      -0.00000082     0.71D-05     0.16D-04     5     0       6.63     47.23    diag
   7     -233.06682066      -0.00000008     0.23D-05     0.40D-05     6     0       6.69     53.92    diag
   8     -233.06682068      -0.00000001     0.81D-06     0.16D-05     7     0       6.69     60.61    fixocc
   9     -233.06682068      -0.00000000     0.27D-06     0.69D-06     8     0       6.63     67.24    diag
  10     -233.06682068      -0.00000000     0.86D-07     0.14D-06     0     0       6.61     73.85    diag/orth

 Final occupancy:  23

 !RHF STATE 1.1 Energy               -233.066820678188
  RHF One-electron energy            -731.923587874913
  RHF Two-electron energy             287.371994373396
  RHF Kinetic energy                  232.636628273529
  RHF Nuclear energy                  211.484772823329
  RHF Virial quotient                  -1.001849203231

 !RHF STATE 1.1 Dipole moment          -0.00007687     0.00003702    -0.00006601
 Dipole moment /Debye                  -0.00019538     0.00009410    -0.00016779

 Orbital energies:

           1.1          2.1          3.1          4.1          5.1          6.1          7.1          8.1          9.1         10.1
    -11.234212   -11.234206   -11.230832   -11.230272   -11.220771   -11.220765    -1.095477    -1.048171    -0.970890    -0.864745

          11.1         12.1         13.1         14.1         15.1         16.1         17.1         18.1         19.1         20.1
     -0.760316    -0.752710    -0.651199    -0.632361    -0.608929    -0.564085    -0.563250    -0.527871    -0.499649    -0.483913

          21.1         22.1         23.1         24.1         25.1
     -0.472584    -0.368548    -0.354081     0.148122     0.156822


 HOMO     23.1    -0.354081 =      -9.6350eV
 LUMO     24.1     0.148122 =       4.0306eV
 LUMO-HOMO         0.502203 =      13.6656eV

 Orbitals saved in record  2100.2


 **********************************************************************************************************************************
 DATASETS  * FILE   NREC   LENGTH (MB)   RECORD NAMES
              1      19     3066.53       500      610      700      900      950      970     1000      129      960     1100   
                                          VAR    BASINP    GEOM    SYMINP    ZMAT    AOBASIS   BASIS     P2S    ABASIS      S 
                                         1400     1410     1200     1210     1080     1600     1650     1300     1700   
                                           T        V       H0       H01     AOSYM     SMH    MOLCAS    ERIS     OPER   

              2       4        2.24       700     1000      520     2100   
                                         GEOM     BASIS   MCVARS     RHF  

 PROGRAMS   *        TOTAL    HF-SCF       INT
 CPU TIMES  *       122.11     73.85     48.15
 REAL TIME  *       278.63 SEC
 DISK USED  *        13.56 GB
 **********************************************************************************************************************************


 Program * Restricted Hartree-Fock

 Molecular orbitals read from record     2100.2  Type=RHF/CANONICAL  

 Initial occupancy:  23

 NELEC=   46   SYM=1   MS2= 0   THRE=1.0D-08   THRD=3.2D-06   THRG=3.2D-06  HFMA2=F  DIIS_START=2   DIIS_MAX=10   DIIS_INCORE=F

 Level shifts:    0.00 (CLOSED)    0.00 (OPEN)    0.30 (GAP_MIN)

 ITER           ETOT              DE          GRAD        DDIFF     DIIS  NEXP   TIME(IT)  TIME(TOT)  DIAG
   1     -233.06682068    -233.06682068     0.00D+00     0.41D-01     0     0       6.47      6.47    start
   2     -233.06682068      -0.00000000     0.68D-07     0.96D-07     1     0       6.40     12.87    diag

 Final occupancy:  23

 !RHF STATE 1.1 Energy               -233.066820678222
  RHF One-electron energy            -731.923550925726
  RHF Two-electron energy             287.371957424176
  RHF Kinetic energy                  232.636618465402
  RHF Nuclear energy                  211.484772823329
  RHF Virial quotient                  -1.001849245470

 !RHF STATE 1.1 Dipole moment          -0.00007766     0.00003665    -0.00006671
 Dipole moment /Debye                  -0.00019740     0.00009315    -0.00016956

 Orbital energies:

           1.1          2.1          3.1          4.1          5.1          6.1          7.1          8.1          9.1         10.1
    -11.234204   -11.234199   -11.230827   -11.230267   -11.220776   -11.220771    -1.095474    -1.048170    -0.970889    -0.864744

          11.1         12.1         13.1         14.1         15.1         16.1         17.1         18.1         19.1         20.1
     -0.760314    -0.752710    -0.651197    -0.632361    -0.608928    -0.564084    -0.563249    -0.527868    -0.499648    -0.483911

          21.1         22.1         23.1         24.1         25.1
     -0.472582    -0.368547    -0.354080     0.148123     0.156823


 HOMO     23.1    -0.354080 =      -9.6350eV
 LUMO     24.1     0.148123 =       4.0306eV
 LUMO-HOMO         0.502203 =      13.6656eV

 Orbitals saved in record  2101.2


 **********************************************************************************************************************************
 DATASETS  * FILE   NREC   LENGTH (MB)   RECORD NAMES
              1      19     3066.53       500      610      700      900      950      970     1000      129      960     1100   
                                          VAR    BASINP    GEOM    SYMINP    ZMAT    AOBASIS   BASIS     P2S    ABASIS      S 
                                         1400     1410     1200     1210     1080     1600     1650     1300     1700   
                                           T        V       H0       H01     AOSYM     SMH    MOLCAS    ERIS     OPER   

              2       5        5.08       700     1000      520     2100     2101   
                                         GEOM     BASIS   MCVARS     RHF      RHF  

 PROGRAMS   *        TOTAL    HF-SCF    HF-SCF       INT
 CPU TIMES  *       134.99     12.88     73.85     48.15
 REAL TIME  *       306.08 SEC
 DISK USED  *        13.56 GB
 **********************************************************************************************************************************


 PROGRAM * PAPT (Closed-shell)     Authors: C. Hampel, H.-J. Werner, 1991, P.J. Knowles, 2021


 Convergence thresholds:  THRVAR = 1.00D-08  THRDEN = 1.00D-06

 Number of core orbitals:           6 (   6 )
 Number of closed-shell orbitals:  17 (  17 )
 Number of external orbitals:     297 ( 297 )

 Molecular orbitals read from record     2101.2  Type=RHF/CANONICAL  

 Number of N-1 electron functions:              17
 Number of N-2 electron functions:             153
 Number of singly external CSFs:              5049
 Number of doubly external CSFs:          12748725
 Total number of CSFs:                    12753775

 Length of J-op  integral file:               0.00 MB
 Length of K-op  integral file:               7.09 MB

 Integral transformation finished. Total CPU:  19.39 sec, npass=  1  Memory used:  27.79 MW

 Reference energy:                   -233.06682068

                        CORR.ENERGY   TOTAL ENERGY   ENERGY CHANGE
 MP2:                   -0.99851317  -234.06533385    -0.99851317

 SCS-MP2 correlation energy:           -1.00281539   (PS=  1.200000  PT=  0.333333)
 SCS-MP2 total energy:               -234.06963607
 Iteration:   1     0.2540D+00
 Iteration:   2     0.3503D+00
 Iteration:   3     0.8340D-01
 Iteration:   4     0.9301D-01
 Iteration:   5     0.4263D-01
 Iteration:   6     0.1652D-01
 Iteration:   7     0.1801D+00
 Iteration:   8     0.6324D-02
 Iteration:   9     0.7293D-02
 Iteration:  10     0.5207D-02
 Iteration:  11     0.2762D-02
 Iteration:  12     0.8871D-02
 Iteration:  13     0.1053D-02
 Iteration:  14     0.1235D-02
 Iteration:  15     0.4064D-03
 Iteration:  16     0.1727D-03
 Iteration:  17     0.4162D-02
 Iteration:  18     0.3990D-04
 PAPT operator written to  7000.1
 PAPT orbitals and eigenvalues written to  7000.2

 MP3(D):                -1.05194270  -234.11876338    -0.05342953



 RESULTS
 =======

  Reference energy                   -233.066820678219
  MP3 singlet pair energy              -0.729848803858
  MP3 triplet pair energy              -0.322093897193
  MP3 correlation energy               -1.051942701052

 !MP3 total energy                   -234.118763379271

 Timing summary (sec):

 STEP                 CPU(USER)    SYS     CPU(TOT)    WALL
 Transformation         20.33      1.13     21.46     38.76
 CCSD iterations       260.68      3.24    263.92    218.56

 Program statistics:

 Available memory in ccsd:               393214821
 Min. memory needed in ccsd:              30737753
 Max. memory used in ccsd:                42497979
 Max. memory used in cckext:              32340670 ( 1 integral passes)



 **********************************************************************************************************************************
 DATASETS  * FILE   NREC   LENGTH (MB)   RECORD NAMES
              1      21     3247.98       500      610      700      900      950      970     1000      129      960     1100   
                                          VAR    BASINP    GEOM    SYMINP    ZMAT    AOBASIS   BASIS     P2S    ABASIS      S 
                                         1400     1410     1200     1210     1080     1600     1650     1300     1700     1380   
                                           T        V       H0       H01     AOSYM     SMH    MOLCAS    ERIS     OPER     JKOP   
                                         7000   
                                        PAPT AO    

              2       6        7.53       700     1000      520     2100     2101     7000   
                                         GEOM     BASIS   MCVARS     RHF      RHF     PAPT   

 PROGRAMS   *        TOTAL      PAPT    HF-SCF    HF-SCF       INT
 CPU TIMES  *       280.90    145.90     12.88     73.85     48.15
 REAL TIME  *       563.47 SEC
 DISK USED  *        13.56 GB
 **********************************************************************************************************************************


 PROGRAM * MP2 (Closed-shell)     Authors: C. Hampel, H.-J. Werner, 1991, M. Deegan, P.J. Knowles, 1992


 Convergence thresholds:  THRVAR = 1.00D-08  THRDEN = 1.00D-06

 Number of core orbitals:           6 (   6 )
 Number of closed-shell orbitals:  17 (  17 )
 Number of external orbitals:     297 ( 297 )

 Molecular orbitals read from record     7000.2  Type=PAPT/CANONICAL (state 1.1)

 Number of N-1 electron functions:              17
 Number of N-2 electron functions:             153
 Number of singly external CSFs:              5049
 Number of doubly external CSFs:          12748725
 Total number of CSFs:                    12753775

 Length of J-op  integral file:               0.00 MB
 Length of K-op  integral file:               7.09 MB

 Integral transformation finished. Total CPU:  21.32 sec, npass=  1  Memory used:  27.79 MW
 Orbital energies read from record       7000.2  Type=PAPT/CANONICAL (state 1.1)

 Memory needed for MP2:                      0.50 MW

 SCS-MP2 correlation energy:           -1.073599986974   (PS=  1.200000  PT=  0.333333)
 SCS-MP2 total energy:               -234.140420665193


  Reference energy                   -233.066820678219
  MP2 singlet pair energy              -0.712698489225
  MP2 triplet pair energy              -0.350938606988
  MP2 correlation energy               -1.063637096213

 !MP2 total energy                   -234.130457774432


 **********************************************************************************************************************************
 DATASETS  * FILE   NREC   LENGTH (MB)   RECORD NAMES
              1      21     3247.98       500      610      700      900      950      970     1000      129      960     1100   
                                          VAR    BASINP    GEOM    SYMINP    ZMAT    AOBASIS   BASIS     P2S    ABASIS      S 
                                         1400     1410     1200     1210     1080     1600     1650     1300     1700     1380   
                                           T        V       H0       H01     AOSYM     SMH    MOLCAS    ERIS     OPER     JKOP   
                                         7000   
                                        PAPT AO    

              2       6        7.53       700     1000      520     2100     2101     7000   
                                         GEOM     BASIS   MCVARS     RHF      RHF     PAPT   

 PROGRAMS   *        TOTAL       MP2      PAPT    HF-SCF    HF-SCF       INT
 CPU TIMES  *       310.01     29.12    145.90     12.88     73.85     48.15
 REAL TIME  *       619.84 SEC
 DISK USED  *        13.56 GB
 **********************************************************************************************************************************

 Dump information in style XML to xml output                                                                      

 Orbitals will not be exported.

 **********************************************************************************************************************************

 MP2/cc-pVTZ energy=   -234.130457774432

             MP2            PAPT          HF-SCF          HF-SCF
   -234.13045777   -234.11876338   -233.06682068   -233.06682068
 **********************************************************************************************************************************
 Molpro calculation terminated
