
 Working directory              : /var/folders/2v/xbgp75_9785319ghcgb4zr4r0000gp/T//molpro.9G5Yovof3u/
 Global scratch directory       : /var/folders/2v/xbgp75_9785319ghcgb4zr4r0000gp/T//molpro.9G5Yovof3u/
 Wavefunction directory         : /Users/sacpjk/wfu/
 Main file repository           : /var/folders/2v/xbgp75_9785319ghcgb4zr4r0000gp/T//molpro.9G5Yovof3u/

 id        : peterk

 Nodes                        nprocs
 Cardiff-University-G34YLXT77Y    1
 GA implementation: MPI file
 GA implementation (serial work in mppx): MPI file

 Using customized tuning parameters: mindgm=1; mindgv=20; mindgc=4; mindgr=1; noblas=0; minvec=7
 default implementation of scratch files=df  


 Variables initialized (1032), CPU time= 0.00 sec
 
 symmetry,nosym
 
 
 geometry={
           13
     C         -1.29962070     -0.75666794      0.01298435
     C         -1.20594574      0.65400536      0.01972533
     C          0.00000158      1.33155015      0.18644040
     C          1.20594891      0.65400218      0.01971734
     C          1.29962915     -0.75666265      0.01299234
     H          2.16879749     -1.17936414     -0.48255765
     H          1.03204539     -1.30619735      0.90630825
     H          2.03713290      1.23377407     -0.36536500
     H          0.00000258      2.41110349      0.11904438
     H         -2.03712974      1.23377407     -0.36534172
     H         -2.16879433     -1.17935356     -0.48257670
     H         -0.00000942     -1.03375573     -0.48766898
     H         -1.03205810     -1.30620793      0.90629767
 }
 basis=cc-pVDZ
 
 
 
 hf; ccsd(t)
 
 
 
 {put,xml;noorbitals,nobasis}
 Commands initialized (841), CPU time= 0.00 sec, 704 directives.
 Default parameters read. Elapsed time= 0.07 sec

 Checking input...
 Passed
1


                                         ***  PROGRAM SYSTEM MOLPRO  ***
                                       Copyright, TTI GmbH Stuttgart, 2015
                                    Version 2023.1 linked Tue Jun  6 09:54:11 2023


 **********************************************************************************************************************************
 LABEL *                                                                                                                                                                 
  64 bit serial version                                                                  DATE: 09-Jun-23          TIME: 16:51:39  
 **********************************************************************************************************************************

 SHA1:             8ebb0dd001088a5c915591db1a321413035db0b1
 **********************************************************************************************************************************

 Memory per process:       805 MW
 Total memory per node:   1074 MW
 Total GA space:           268 MW

 GA preallocation disabled
 GA check enabled

 Variable memory set to 805.3 MW

 ZSYMEL=NOSYM


 Geometry recognized as XYZ

 SETTING BASIS          =    CC-PVDZ


 Recomputing integrals since basis changed


 Using spherical harmonics

 Library entry C      S cc-pVDZ              selected for orbital group  1
 Library entry C      P cc-pVDZ              selected for orbital group  1
 Library entry C      D cc-pVDZ              selected for orbital group  1
 Library entry H      S cc-pVDZ              selected for orbital group  2
 Library entry H      P cc-pVDZ              selected for orbital group  2


 PROGRAM * SEWARD (Integral evaluation for generally contracted gaussian basis sets)     Author: Roland Lindh, 1990

 Geometry written to block  1 of record 700


 Point group  C1  



 ATOMIC COORDINATES

 NR  ATOM    CHARGE       X              Y              Z

   1  C       6.00   -2.455927189   -1.429895174    0.024536865
   2  C       6.00   -2.278907170    1.235891014    0.037275471
   3  C       6.00    0.000002986    2.516265105    0.352321295
   4  C       6.00    2.278913160    1.235885005    0.037260373
   5  C       6.00    2.455943157   -1.429885177    0.024551964
   6  H       1.00    4.098433276   -2.228675226   -0.911901798
   7  H       1.00    1.950283135   -2.468355256    1.712674377
   8  H       1.00    3.849623260    2.331495092   -0.690439786
   9  H       1.00    0.000004875    4.556325254    0.224961275
  10  H       1.00   -3.849617289    2.331495092   -0.690395793
  11  H       1.00   -4.098427304   -2.228655233   -0.911937797
  12  H       1.00   -0.000017801   -1.953515209   -0.921560812
  13  H       1.00   -1.950307154   -2.468375250    1.712654384

 Bond lengths in Bohr (Angstrom)

  1- 2  2.671687549   1-11  2.052512863   1-12  2.683424990   1-13  2.045442065   2- 3  2.632877357
       ( 1.413796166)       ( 1.086143032)       ( 1.420007352)       ( 1.082401327)       ( 1.393258697)

  2-10  2.048654203   3- 4  2.632882103   3- 9  2.044031797   4- 5  2.671672096   4- 8  2.048667665
       ( 1.084101117)       ( 1.393261208)       ( 1.081655045)       ( 1.413787988)       ( 1.084108241)

  5- 6  2.052506999   5- 7  2.045450914   5-12  2.683479462
       ( 1.086139929)       ( 1.082406010)       ( 1.420036177)

 Bond angles

  1- 2- 3  122.89823323   1- 2-10  118.75839401   1-12- 5  132.47249780   2- 1-11  116.32740106

  2- 1-12   97.80148335   2- 1-13  119.09567834   2- 3- 4  119.89296999   2- 3- 9  118.54849417

  3- 2-10  116.49106900   3- 4- 5  122.89846759   3- 4- 8  116.49089871   4- 3- 9  118.54845887

  4- 5- 6  116.32826666   4- 5- 7  119.09567108   4- 5-12   97.80101654   5- 4- 8  118.75842205

  6- 5- 7  112.13487529   6- 5-12  119.70854042   7- 5-12   88.03195583  11- 1-12  119.70860643

 11- 1-13  112.13480985  12- 1-13   88.03294460

 NUCLEAR CHARGE:                   38
 NUMBER OF PRIMITIVE AOS:         191
 NUMBER OF SYMMETRY AOS:          186
 NUMBER OF CONTRACTIONS:          110   (  110A   )
 NUMBER OF INNER CORE ORBITALS:     0   (    0A   )
 NUMBER OF OUTER CORE ORBITALS:     5   (    5A   )
 NUMBER OF VALENCE ORBITALS:       28   (   28A   )


 NUCLEAR REPULSION ENERGY  164.93661840


 Eigenvalues of metric

         1 0.148E-02 0.265E-02 0.302E-02 0.446E-02 0.121E-01 0.128E-01 0.143E-01 0.168E-01


 Contracted 2-electron integrals neglected if value below      1.0D-11
 AO integral compression algorithm  1   Integral accuracy      1.0D-11

     83.362 MB (compressed) written to integral file ( 51.6%)


 NUMBER OF SORTED TWO-ELECTRON INTEGRALS:   18638565.     BUFFER LENGTH:  32768
 NUMBER OF SEGMENTS:   2  SEGMENT LENGTH:   15997996      RECORD LENGTH: 524288

 Memory used in sort:      16.56 MW

 SORT1 READ    20258867. AND WROTE    18165224. INTEGRALS IN     53 RECORDS. CPU TIME:     0.14 SEC, REAL TIME:     0.19 SEC
 SORT2 READ    18165224. AND WROTE    18638565. INTEGRALS IN    318 RECORDS. CPU TIME:     0.17 SEC, REAL TIME:     0.21 SEC

 FILE SIZES:   FILE 1:   114.0 MBYTE,  FILE 4:   222.4 MBYTE,   TOTAL:    336.4 MBYTE

 OPERATOR DM      FOR CENTER  0  COORDINATES:    0.000000    0.000000    0.000000


 **********************************************************************************************************************************
 DATASETS  * FILE   NREC   LENGTH (MB)   RECORD NAMES
              1      19      100.95       500      610      700      900      950      970     1000      129      960     1100   
                                          VAR    BASINP    GEOM    SYMINP    ZMAT    AOBASIS   BASIS     P2S    ABASIS      S 
                                         1400     1410     1200     1210     1080     1600     1650     1300     1700   
                                           T        V       H0       H01     AOSYM     SMH    MOLCAS    ERIS     OPER   

 PROGRAMS   *        TOTAL       INT
 CPU TIMES  *         1.26      1.18
 REAL TIME  *         2.32 SEC
 DISK USED  *       321.34 MB
 **********************************************************************************************************************************


 Program * Restricted Hartree-Fock

 Orbital guess generated from atomic densities. Full valence occupancy:   33

 Initial occupancy:  19

 NELEC=   38   SYM=1   MS2= 0   THRE=1.0D-08   THRD=3.2D-06   THRG=3.2D-06  HFMA2=F  DIIS_START=2   DIIS_MAX=10   DIIS_INCORE=F

 Level shifts:    0.00 (CLOSED)    0.00 (OPEN)    0.30 (GAP_MIN)

 ITER           ETOT              DE          GRAD        DDIFF     DIIS  NEXP   TIME(IT)  TIME(TOT)  DIAG
   1     -193.82442043    -193.82442043     0.00D+00     0.10D+00     0     0       0.08      0.15    start
   2     -193.87524940      -0.05082897     0.43D-02     0.98D-02     1     0       0.08      0.23    diag
   3     -193.88101519      -0.00576580     0.16D-02     0.34D-02     2     0       0.08      0.31    diag
   4     -193.88201955      -0.00100435     0.59D-03     0.14D-02     3     0       0.07      0.38    diag
   5     -193.88207109      -0.00005154     0.15D-03     0.29D-03     4     0       0.08      0.46    diag
   6     -193.88207936      -0.00000827     0.43D-04     0.12D-03     5     0       0.08      0.54    diag
   7     -193.88208077      -0.00000141     0.16D-04     0.41D-04     6     0       0.08      0.62    diag
   8     -193.88208115      -0.00000038     0.66D-05     0.26D-04     7     0       0.08      0.70    fixocc
   9     -193.88208121      -0.00000006     0.24D-05     0.10D-04     8     0       0.07      0.77    diag
  10     -193.88208122      -0.00000001     0.12D-05     0.52D-05     9     0       0.08      0.85    diag/orth
  11     -193.88208122      -0.00000000     0.37D-06     0.15D-05     9     0       0.09      0.94    diag
  12     -193.88208122      -0.00000000     0.12D-06     0.25D-06     0     0       0.07      1.01    diag

 Final occupancy:  19

 !RHF STATE 1.1 Energy               -193.882081219666
  RHF One-electron energy            -586.866821979880
  RHF Two-electron energy             228.048122363010
  RHF Kinetic energy                  193.708559558696
  RHF Nuclear energy                  164.936618397205
  RHF Virial quotient                  -1.000895787266

 !RHF STATE 1.1 Dipole moment           0.00000003     0.01278986    -0.08091968
 Dipole moment /Debye                   0.00000008     0.03250859    -0.20567731

 Orbital energies:

           1.1          2.1          3.1          4.1          5.1          6.1          7.1          8.1          9.1         10.1
    -11.244599   -11.244561   -11.230612   -11.230612   -11.229814    -1.116242    -1.006727    -0.941964    -0.806816    -0.725833

          11.1         12.1         13.1         14.1         15.1         16.1         17.1         18.1         19.1         20.1
     -0.675190    -0.589468    -0.576403    -0.568335    -0.533138    -0.515424    -0.495829    -0.351158    -0.302566     0.112113

          21.1
      0.167261


 HOMO     19.1    -0.302566 =      -8.2333eV
 LUMO     20.1     0.112113 =       3.0508eV
 LUMO-HOMO         0.414680 =      11.2840eV

 Orbitals saved in record  2100.2


 **********************************************************************************************************************************
 DATASETS  * FILE   NREC   LENGTH (MB)   RECORD NAMES
              1      19      100.95       500      610      700      900      950      970     1000      129      960     1100   
                                          VAR    BASINP    GEOM    SYMINP    ZMAT    AOBASIS   BASIS     P2S    ABASIS      S 
                                         1400     1410     1200     1210     1080     1600     1650     1300     1700   
                                           T        V       H0       H01     AOSYM     SMH    MOLCAS    ERIS     OPER   

              2       4        0.77       700     1000      520     2100   
                                         GEOM     BASIS   MCVARS     RHF  

 PROGRAMS   *        TOTAL    HF-SCF       INT
 CPU TIMES  *         2.27      1.01      1.18
 REAL TIME  *         3.83 SEC
 DISK USED  *       321.34 MB
 **********************************************************************************************************************************


 PROGRAM * CCSD (Closed-shell coupled cluster)     Authors: C. Hampel, H.-J. Werner, 1991, M. Deegan, P.J. Knowles, 1992


 Convergence thresholds:  THRVAR = 1.00D-08  THRDEN = 1.00D-06

 CCSD(T)     terms to be evaluated (factor= 1.000)


 Number of core orbitals:           5 (   5 )
 Number of closed-shell orbitals:  14 (  14 )
 Number of external orbitals:      91 (  91 )

 Molecular orbitals read from record     2100.2  Type=RHF/CANONICAL  

 Number of N-1 electron functions:              14
 Number of N-2 electron functions:             105
 Number of singly external CSFs:              1274
 Number of doubly external CSFs:            812175
 Total number of CSFs:                      813450

 Length of J-op  integral file:               0.00 MB
 Length of K-op  integral file:               0.89 MB
 Length of 3-ext integral record:             0.00 MB

 Memory could be reduced to 14.62 Mwords without degradation in triples

 Integral transformation finished. Total CPU:   0.59 sec, npass=  1  Memory used:  12.43 MW

 Reference energy:                   -193.88208122

 MP2 singlet pair energy:              -0.44473404
 MP2 triplet pair energy:              -0.27079627
 MP2 correlation energy:               -0.71553031
 MP2 total energy:                   -194.59761153

 SCS-MP2 correlation energy:           -0.70217630   (PS=  1.200000  PT=  0.333333)
 SCS-MP2 total energy:               -194.58425752

 ITER.      SQ.NORM     CORR.ENERGY   TOTAL ENERGY   ENERGY CHANGE        DEN1      VAR(S)    VAR(P)  DIIS     TIME  TIME/IT
   1      1.28736133    -0.75354301  -194.63562423    -0.03801271    -0.01700539  0.29D-02  0.61D-02  1  1     4.24     1.50
   2      1.31161136    -0.75839625  -194.64047747    -0.00485324    -0.02104425  0.63D-04  0.84D-03  2  2     5.43     1.41
   3      1.31978584    -0.75860428  -194.64068550    -0.00020802    -0.00383450  0.34D-04  0.82D-04  3  3     6.61     1.39
   4      1.32372742    -0.75877206  -194.64085328    -0.00016778    -0.00107755  0.30D-05  0.12D-04  4  4     7.79     1.39
   5      1.32510273    -0.75880845  -194.64088967    -0.00003640    -0.00026041  0.14D-05  0.13D-05  5  5     9.00     1.42
   6      1.32547411    -0.75879881  -194.64088003     0.00000965    -0.00004603  0.20D-06  0.11D-06  6  6    10.17     1.40
   7      1.32554060    -0.75880048  -194.64088170    -0.00000167     0.00000013  0.65D-07  0.13D-07  6  2    11.30     1.38
   8      1.32556556    -0.75879999  -194.64088120     0.00000049    -0.00000231  0.11D-07  0.31D-08  6  1    12.46     1.37
   9      1.32557442    -0.75879984  -194.64088106     0.00000015    -0.00000079  0.14D-08  0.77D-09  6  3    13.61     1.36

 Norm of t1 vector:      0.07805979      S-energy:    -0.00000046      T1 diagnostic:  0.01043118
                                                                       D1 diagnostic:  0.03396219
                                                                       D2 diagnostic:  0.19960986 (internal)

 Doubles amplitudes (print threshold =  0.500E-01):

         I         J         SYM. A    SYM. B    A         B      T(IJ, AB)

        14        14         1         1         1         1     -0.10233269


 Total CPU time for triples:     10.22 sec


 RESULTS
 =======

  Reference energy                   -193.882081219666
  CCSD singlet pair energy             -0.515306753635
  CCSD triplet pair energy             -0.243492623445
  CCSD correlation energy              -0.758799839566

  Triples (T) contribution             -0.032321214564
  Total correlation energy             -0.791121054130

  CCSD total energy                  -194.640881059232
  CCSD[T] energy                     -194.673877246961
  CCSD-T energy                      -194.672964160235
 !CCSD(T) total energy               -194.673202273796

 Timing summary (sec):

 STEP                 CPU(USER)    SYS     CPU(TOT)    WALL
 Transformation          0.61      0.07      0.68      0.94
 CCSD iterations        13.03      0.63     13.66     12.42
 Triples                10.22      0.57     10.79     11.17

 Program statistics:

 Available memory in ccsd:               805305565
 Min. memory needed in ccsd:               2197782
 Max. memory used in ccsd:                 2899161
 Max. memory used in cckext:               2695256 ( 9 integral passes)



 **********************************************************************************************************************************
 DATASETS  * FILE   NREC   LENGTH (MB)   RECORD NAMES
              1      20      156.40       500      610      700      900      950      970     1000      129      960     1100   
                                          VAR    BASINP    GEOM    SYMINP    ZMAT    AOBASIS   BASIS     P2S    ABASIS      S 
                                         1400     1410     1200     1210     1080     1600     1650     1300     1700     1380   
                                           T        V       H0       H01     AOSYM     SMH    MOLCAS    ERIS     OPER     JKOP   

              2       4        0.77       700     1000      520     2100   
                                         GEOM     BASIS   MCVARS     RHF  

 PROGRAMS   *        TOTAL   CCSD(T)    HF-SCF       INT
 CPU TIMES  *        23.78     21.50      1.01      1.18
 REAL TIME  *        28.48 SEC
 DISK USED  *       321.34 MB
 **********************************************************************************************************************************

 Dump information in style XML to xml output                                                                      

 Orbitals will not be exported.

 **********************************************************************************************************************************

 CCSD(T)/cc-pVDZ energy=   -194.673202273796

         CCSD(T)          HF-SCF
   -194.67320227   -193.88208122
 **********************************************************************************************************************************
 Molpro calculation terminated
