
 Working directory              : /tmp/peterk/molpro.Bmk6uvD9Bp/
 Global scratch directory       : /tmp/peterk/molpro.Bmk6uvD9Bp/
 Wavefunction directory         : /home/peterk/wfu/
 Main file repository           : /tmp/peterk/molpro.Bmk6uvD9Bp/

 id        : peterk

 Nodes     nprocs
 marat        1
 GA implementation: MPI file
 GA implementation (serial work in mppx): MPI file

 Using customized tuning parameters: mindgm=1; mindgv=20; mindgc=4; mindgr=1; noblas=0; minvec=7
 default implementation of scratch files=df  


 Variables initialized (1032), CPU time= 0.00 sec
 
 symmetry,nosym
 
 
 geometry={
           10
     N         -0.36120484     -0.92429803      0.27257660
     N          1.02247060     -1.25862078      0.17701934
     H          1.59670310     -0.40904371      0.11357548
     H          1.13377768     -1.75855802     -0.70395977
     H         -0.50225869     -0.62945487      1.24604677
     N         -0.74206979      0.14702554     -0.61853552
     N         -0.42150018      1.48198064     -0.19308732
     H         -1.75800424      0.09952159     -0.67804120
     H         -0.51640901      1.58409122      0.82511497
     H          0.54849537      1.66735642     -0.44070935
 }
 basis=cc-pVTZ
 
 
 
 hf; ccsd(t)
 
 
 
 {put,xml;noorbitals,nobasis}
 Commands initialized (841), CPU time= 0.01 sec, 708 directives.
 Default parameters read. Elapsed time= 0.05 sec

 Checking input...
 Passed
1


                                         ***  PROGRAM SYSTEM MOLPRO  ***
                                       Copyright, TTI GmbH Stuttgart, 2015
                                    Version 2023.1 linked Sat Jun 10 08:01:27 2023


 **********************************************************************************************************************************
 LABEL *                                                                                                                                                                 
  (16 PROC) 64 bit serial version                                                        DATE: 13-Jun-23          TIME: 11:55:49  
 **********************************************************************************************************************************

 SHA1:             8376d659ba1296ca7ee514c57770fe2c96af278c
 **********************************************************************************************************************************

 Memory per process:      1074 MW
 Total memory per node:   1074 MW

 GA preallocation disabled
 GA check disabled

 Variable memory set to 1073.7 MW

 ZSYMEL=NOSYM


 Geometry recognized as XYZ

 SETTING BASIS          =    CC-PVTZ


 Recomputing integrals since basis changed


 Using spherical harmonics

 Library entry N      S cc-pVTZ              selected for orbital group  1
 Library entry N      P cc-pVTZ              selected for orbital group  1
 Library entry N      D cc-pVTZ              selected for orbital group  1
 Library entry N      F cc-pVTZ              selected for orbital group  1
 Library entry H      S cc-pVTZ              selected for orbital group  2
 Library entry H      P cc-pVTZ              selected for orbital group  2
 Library entry H      D cc-pVTZ              selected for orbital group  2


 PROGRAM * SEWARD (Integral evaluation for generally contracted gaussian basis sets)     Author: Roland Lindh, 1990

 Geometry written to block  1 of record 700


 Point group  C1  



 ATOMIC COORDINATES

 NR  ATOM    CHARGE       X              Y              Z

   1  N       7.00   -0.682578222   -1.746670134    0.515095122
   2  N       7.00    1.932189404   -2.378448569    0.334518071
   3  H       1.00    3.017331561   -0.772980585    0.214626552
   4  H       1.00    2.142529301   -3.323193032   -1.330291168
   5  H       1.00   -0.949131368   -1.189497312    2.354687134
   6  N       7.00   -1.402308668    0.277838004   -1.168862731
   7  N       7.00   -0.796519902    2.800537532   -0.364882153
   8  H       1.00   -3.322146540    0.188068549   -1.281312169
   9  H       1.00   -0.975871597    2.993498562    1.559241315
  10  H       1.00    1.036506030    3.150846986   -0.832819972

 Bond lengths in Bohr (Angstrom)

 1-2  2.696064132  1-5  1.940513051  1-6  2.729900945  2-3  1.941503264  2-4  1.925714095
     ( 1.426695698)     ( 1.026875284)     ( 1.444601368)     ( 1.027399282)     ( 1.019044014)

  6- 7  2.716132859   6- 8  1.925222294   7- 9  1.942074177   7-10  1.923971565
       ( 1.437315611)       ( 1.018783764)       ( 1.027701396)       ( 1.018121907)

 Bond angles

  1-2-3  110.63576547   1-2-4  106.18857567   1-6-7  116.57683676   1-6-8  105.32891587

  2-1-5  105.30743929   2-1-6  112.84032248   3-2-4  106.93267926   5-1-6  109.61061023

  6- 7- 9  111.40456527   6- 7-10  108.03562281   7- 6- 8  106.43970835   9- 7-10  108.11112034

 NUCLEAR CHARGE:                   34
 NUMBER OF PRIMITIVE AOS:         290
 NUMBER OF SYMMETRY AOS:          264
 NUMBER OF CONTRACTIONS:          204   (  204A   )
 NUMBER OF INNER CORE ORBITALS:     0   (    0A   )
 NUMBER OF OUTER CORE ORBITALS:     4   (    4A   )
 NUMBER OF VALENCE ORBITALS:       22   (   22A   )


 NUCLEAR REPULSION ENERGY  136.40566214


 Eigenvalues of metric

         1 0.869E-03 0.979E-03 0.157E-02 0.180E-02 0.246E-02 0.256E-02 0.320E-02 0.330E-02


 Contracted 2-electron integrals neglected if value below      1.0D-11
 AO integral compression algorithm  1   Integral accuracy      1.0D-11

     863.240 MB (compressed) written to integral file ( 45.0%)


 NUMBER OF SORTED TWO-ELECTRON INTEGRALS:  218624505.     BUFFER LENGTH:  32768
 NUMBER OF SEGMENTS:  14  SEGMENT LENGTH:   15999503      RECORD LENGTH: 524288

 Memory used in sort:      16.56 MW

 SORT1 READ   239598844. AND WROTE   205620052. INTEGRALS IN    595 RECORDS. CPU TIME:     8.17 SEC, REAL TIME:    72.98 SEC
 SORT2 READ   205620052. AND WROTE   218624505. INTEGRALS IN   3293 RECORDS. CPU TIME:     5.30 SEC, REAL TIME:    59.64 SEC

 FILE SIZES:   FILE 1:   894.9 MBYTE,  FILE 4:  2495.7 MBYTE,   TOTAL:   3390.6 MBYTE

 OPERATOR DM      FOR CENTER  0  COORDINATES:    0.000000    0.000000    0.000000


 **********************************************************************************************************************************
 DATASETS  * FILE   NREC   LENGTH (MB)   RECORD NAMES
              1      19      782.61       500      610      700      900      950      970     1000      129      960     1100   
                                          VAR    BASINP    GEOM    SYMINP    ZMAT    AOBASIS   BASIS     P2S    ABASIS      S 
                                         1400     1410     1200     1210     1080     1600     1650     1300     1700   
                                           T        V       H0       H01     AOSYM     SMH    MOLCAS    ERIS     OPER   

 PROGRAMS   *        TOTAL       INT
 CPU TIMES  *        21.18     21.08
 REAL TIME  *       142.56 SEC
 DISK USED  *         3.16 GB
 **********************************************************************************************************************************


 Program * Restricted Hartree-Fock

 Orbital guess generated from atomic densities. Full valence occupancy:   26

 Initial occupancy:  17

 NELEC=   34   SYM=1   MS2= 0   THRE=1.0D-08   THRD=3.2D-06   THRG=3.2D-06  HFMA2=F  DIIS_START=2   DIIS_MAX=10   DIIS_INCORE=F

 Level shifts:    0.00 (CLOSED)    0.00 (OPEN)    0.30 (GAP_MIN)

 ITER           ETOT              DE          GRAD        DDIFF     DIIS  NEXP   TIME(IT)  TIME(TOT)  DIAG
   1     -221.20305234    -221.20305234     0.00D+00     0.53D-01     0     0       1.14      2.16    start
   2     -221.25143359      -0.04838125     0.40D-02     0.50D-02     1     0       1.18      3.34    diag
   3     -221.25627169      -0.00483810     0.14D-02     0.14D-02     2     0       1.13      4.47    diag
   4     -221.25714815      -0.00087646     0.51D-03     0.53D-03     3     0       1.13      5.60    diag
   5     -221.25722387      -0.00007572     0.13D-03     0.15D-03     4     0       1.14      6.74    diag
   6     -221.25722980      -0.00000593     0.27D-04     0.47D-04     5     0       1.08      7.82    diag
   7     -221.25723042      -0.00000062     0.83D-05     0.17D-04     6     0       1.11      8.93    diag
   8     -221.25723049      -0.00000007     0.32D-05     0.57D-05     7     0       1.08     10.01    fixocc
   9     -221.25723050      -0.00000001     0.11D-05     0.19D-05     8     0       1.14     11.15    diag
  10     -221.25723050      -0.00000000     0.21D-06     0.36D-06     0     0       1.11     12.26    diag/orth

 Final occupancy:  17

 !RHF STATE 1.1 Energy               -221.257230497365
  RHF One-electron energy            -571.488853550998
  RHF Two-electron energy             213.825960915579
  RHF Kinetic energy                  220.753307823936
  RHF Nuclear energy                  136.405662138054
  RHF Virial quotient                  -1.002282741212

 !RHF STATE 1.1 Dipole moment           0.23674064     0.50019248     0.37115393
 Dipole moment /Debye                   0.60173469     1.27136246     0.94337919

 Orbital energies:

           1.1          2.1          3.1          4.1          5.1          6.1          7.1          8.1          9.1         10.1
    -15.607934   -15.607330   -15.582091   -15.573833    -1.334921    -1.215927    -1.063796    -0.931035    -0.706083    -0.688451

          11.1         12.1         13.1         14.1         15.1         16.1         17.1         18.1         19.1
     -0.673964    -0.630755    -0.603856    -0.460139    -0.430153    -0.416762    -0.391406     0.129821     0.156066


 HOMO     17.1    -0.391406 =     -10.6507eV
 LUMO     18.1     0.129821 =       3.5326eV
 LUMO-HOMO         0.521227 =      14.1833eV

 Orbitals saved in record  2100.2


 **********************************************************************************************************************************
 DATASETS  * FILE   NREC   LENGTH (MB)   RECORD NAMES
              1      19      782.61       500      610      700      900      950      970     1000      129      960     1100   
                                          VAR    BASINP    GEOM    SYMINP    ZMAT    AOBASIS   BASIS     P2S    ABASIS      S 
                                         1400     1410     1200     1210     1080     1600     1650     1300     1700   
                                           T        V       H0       H01     AOSYM     SMH    MOLCAS    ERIS     OPER   

              2       4        1.19       700     1000      520     2100   
                                         GEOM     BASIS   MCVARS     RHF  

 PROGRAMS   *        TOTAL    HF-SCF       INT
 CPU TIMES  *        33.45     12.27     21.08
 REAL TIME  *       155.65 SEC
 DISK USED  *         3.16 GB
 **********************************************************************************************************************************


 PROGRAM * CCSD (Closed-shell coupled cluster)     Authors: C. Hampel, H.-J. Werner, 1991, M. Deegan, P.J. Knowles, 1992


 Convergence thresholds:  THRVAR = 1.00D-08  THRDEN = 1.00D-06

 CCSD(T)     terms to be evaluated (factor= 1.000)


 Number of core orbitals:           4 (   4 )
 Number of closed-shell orbitals:  13 (  13 )
 Number of external orbitals:     187 ( 187 )

 Molecular orbitals read from record     2100.2  Type=RHF/CANONICAL  

 Number of N-1 electron functions:              13
 Number of N-2 electron functions:              91
 Number of singly external CSFs:              2431
 Number of doubly external CSFs:           2956096
 Total number of CSFs:                     2958528

 Length of J-op  integral file:               0.00 MB
 Length of K-op  integral file:               2.92 MB
 Length of 3-ext integral record:             0.00 MB

 Memory could be reduced to 109.03 Mwords without degradation in triples

 Integral transformation finished. Total CPU:   9.92 sec, npass=  1  Memory used:  66.89 MW

 Reference energy:                   -221.25723050

 MP2 singlet pair energy:              -0.54663494
 MP2 triplet pair energy:              -0.31427484
 MP2 correlation energy:               -0.86090978
 MP2 total energy:                   -222.11814028

 SCS-MP2 correlation energy:           -0.85151072   (PS=  1.200000  PT=  0.333333)
 SCS-MP2 total energy:               -222.10874122

 ITER.      SQ.NORM     CORR.ENERGY   TOTAL ENERGY   ENERGY CHANGE        DEN1      VAR(S)    VAR(P)  DIIS     TIME  TIME/IT
   1      1.24420312    -0.88429915  -222.14152965    -0.02338937    -0.00215444  0.29D-02  0.40D-02  1  1    55.78    12.68
   2      1.25997992    -0.88646590  -222.14369640    -0.00216675    -0.01888332  0.58D-04  0.50D-03  2  2    68.17    13.01
   3      1.26585329    -0.88661561  -222.14384611    -0.00014970    -0.00367096  0.45D-04  0.27D-04  3  3    80.48    12.98
   4      1.26766668    -0.88665372  -222.14388421    -0.00003811    -0.00083065  0.45D-05  0.39D-05  4  4    92.66    12.89
   5      1.26825328    -0.88666735  -222.14389785    -0.00001364    -0.00016543  0.16D-05  0.35D-06  5  5   104.90    12.84
   6      1.26846849    -0.88665757  -222.14388806     0.00000979    -0.00003616  0.23D-06  0.53D-07  6  6   117.67    12.95
   7      1.26852900    -0.88665580  -222.14388630     0.00000176    -0.00000393  0.24D-07  0.11D-07  6  2   130.27    13.09
   8      1.26854787    -0.88665494  -222.14388543     0.00000086    -0.00000106  0.40D-08  0.14D-08  6  1   142.45    13.07
   9      1.26855414    -0.88665482  -222.14388532     0.00000012     0.00000018  0.59D-09  0.16D-09  6  3   154.57    13.08

 Norm of t1 vector:      0.07519700      S-energy:     0.00000028      T1 diagnostic:  0.01042795
                                                                       D1 diagnostic:  0.02851294
                                                                       D2 diagnostic:  0.15097797 (internal)


 Total CPU time for triples:    225.89 sec


 RESULTS
 =======

  Reference energy                   -221.257230497365
  CCSD singlet pair energy             -0.605252305748
  CCSD triplet pair energy             -0.281402799391
  CCSD correlation energy              -0.886654820272

  Triples (T) contribution             -0.036352622873
  Total correlation energy             -0.923007443145

  CCSD total energy                  -222.143885317637
  CCSD[T] energy                     -222.181190406311
  CCSD-T energy                      -222.179727034769
 !CCSD(T) total energy               -222.180237940509

 Timing summary (sec):

 STEP                 CPU(USER)    SYS     CPU(TOT)    WALL
 Transformation         10.02      0.79     10.81     18.04
 CCSD iterations       144.73      1.80    146.53    118.09
 Triples               225.89      3.92    229.81    230.52

 Program statistics:

 Available memory in ccsd:              1073741131
 Min. memory needed in ccsd:               7623489
 Max. memory used in ccsd:                10267091
 Max. memory used in cckext:               7977282 ( 9 integral passes)



 **********************************************************************************************************************************
 DATASETS  * FILE   NREC   LENGTH (MB)   RECORD NAMES
              1      20     1152.68       500      610      700      900      950      970     1000      129      960     1100   
                                          VAR    BASINP    GEOM    SYMINP    ZMAT    AOBASIS   BASIS     P2S    ABASIS      S 
                                         1400     1410     1200     1210     1080     1600     1650     1300     1700     1380   
                                           T        V       H0       H01     AOSYM     SMH    MOLCAS    ERIS     OPER     JKOP   

              2       4        1.19       700     1000      520     2100   
                                         GEOM     BASIS   MCVARS     RHF  

 PROGRAMS   *        TOTAL   CCSD(T)    HF-SCF       INT
 CPU TIMES  *       380.28    346.83     12.27     21.08
 REAL TIME  *       522.44 SEC
 DISK USED  *         3.16 GB
 **********************************************************************************************************************************

 Dump information in style XML to xml output                                                                      

 Orbitals will not be exported.

 **********************************************************************************************************************************

 CCSD(T)/cc-pVTZ energy=   -222.180237940509

         CCSD(T)          HF-SCF
   -222.18023794   -221.25723050
 **********************************************************************************************************************************
 Molpro calculation terminated
