
 Working directory              : /var/folders/2v/xbgp75_9785319ghcgb4zr4r0000gp/T//molpro.ygCJydphrG/
 Global scratch directory       : /var/folders/2v/xbgp75_9785319ghcgb4zr4r0000gp/T//molpro.ygCJydphrG/
 Wavefunction directory         : /Users/sacpjk/wfu/
 Main file repository           : /var/folders/2v/xbgp75_9785319ghcgb4zr4r0000gp/T//molpro.ygCJydphrG/

 id        : peterk

 Nodes                        nprocs
 Cardiff-University-G34YLXT77Y    1
 GA implementation: MPI file
 GA implementation (serial work in mppx): MPI file

 Using customized tuning parameters: mindgm=1; mindgv=20; mindgc=4; mindgr=1; noblas=0; minvec=7
 default implementation of scratch files=df  


 Variables initialized (1032), CPU time= 0.00 sec
 
 symmetry,nosym
 
 
 geometry={
           11
     C          0.00000000      0.00000000     -1.12416999
     C          0.00000000      1.17942683     -0.18959511
     C          0.00000000     -1.17942683     -0.18959511
     C          0.00000000      0.73434652      1.08066238
     C          0.00000000     -0.73434652      1.08066238
     H          0.87715879      0.00000000     -1.78568428
     H         -0.87715879      0.00000000     -1.78568428
     H          0.00000000      2.21027975     -0.51635501
     H          0.00000000     -2.21027975     -0.51635501
     H          0.00000000      1.34728622      1.97305702
     H          0.00000000     -1.34728622      1.97305702
 }
 basis=cc-pVTZ
 
 
 
 hf; hf; papt; mp4
 
 
 
 {put,xml;noorbitals,nobasis}
 Commands initialized (841), CPU time= 0.01 sec, 704 directives.
 Default parameters read. Elapsed time= 1.06 sec

 Checking input...
 Passed
1


                                         ***  PROGRAM SYSTEM MOLPRO  ***
                                       Copyright, TTI GmbH Stuttgart, 2015
                                    Version 2023.1 linked Tue Jun  6 09:54:11 2023


 **********************************************************************************************************************************
 LABEL *                                                                                                                                                                 
  64 bit serial version                                                                  DATE: 11-Jun-23          TIME: 16:20:16  
 **********************************************************************************************************************************

 SHA1:             8ebb0dd001088a5c915591db1a321413035db0b1
 **********************************************************************************************************************************

 Memory per process:       393 MW
 Total memory per node:    524 MW
 Total GA space:           131 MW

 GA preallocation disabled
 GA check enabled

 Variable memory set to 393.2 MW

 ZSYMEL=NOSYM


 Geometry recognized as XYZ

 SETTING BASIS          =    CC-PVTZ


 Recomputing integrals since basis changed


 Using spherical harmonics

 Library entry C      S cc-pVTZ              selected for orbital group  1
 Library entry C      P cc-pVTZ              selected for orbital group  1
 Library entry C      D cc-pVTZ              selected for orbital group  1
 Library entry C      F cc-pVTZ              selected for orbital group  1
 Library entry H      S cc-pVTZ              selected for orbital group  2
 Library entry H      P cc-pVTZ              selected for orbital group  2
 Library entry H      D cc-pVTZ              selected for orbital group  2


 PROGRAM * SEWARD (Integral evaluation for generally contracted gaussian basis sets)     Author: Roland Lindh, 1990

 Geometry written to block  1 of record 700


 Point group  C1  



 ATOMIC COORDINATES

 NR  ATOM    CHARGE       X              Y              Z

   1  C       6.00    0.000000000    0.000000000   -2.124373399
   2  C       6.00    0.000000000    2.228793693   -0.358282832
   3  C       6.00    0.000000000   -2.228793693   -0.358282832
   4  C       6.00    0.000000000    1.387713803    2.042155931
   5  C       6.00    0.000000000   -1.387713803    2.042155931
   6  H       1.00    1.657589881    0.000000000   -3.374454234
   7  H       1.00   -1.657589881    0.000000000   -3.374454234
   8  H       1.00    0.000000000    4.176823386   -0.975769552
   9  H       1.00    0.000000000   -4.176823386   -0.975769552
  10  H       1.00    0.000000000    2.546001967    3.728537396
  11  H       1.00    0.000000000   -2.546001967    3.728537396

 Bond lengths in Bohr (Angstrom)

 1-2  2.843694290  1-3  2.843694290  1-6  2.076127720  1-7  2.076127720  2-4  2.543525435
     ( 1.504818213)     ( 1.504818213)     ( 1.098639476)     ( 1.098639476)     ( 1.345975696)

  2- 8  2.043553164   3- 5  2.543525435   3- 9  2.043553164   4- 5  2.775427607   4-10  2.045852858
       ( 1.081401764)       ( 1.345975696)       ( 1.081401764)       ( 1.468693040)       ( 1.082618709)

  5-11  2.045852858
       ( 1.082618709)

 Bond angles

  1-2-4  109.08347620   1-2-8  124.01920166   1-3-5  109.08347620   1-3-9  124.01920166

  2-1-3  103.21356521   2-1-6  111.95946094   2-1-7  111.95946094   2-4-5  109.30974119

  2- 4-10  126.20710066   3- 1- 6  111.95946094   3- 1- 7  111.95946094   3- 5- 4  109.30974119

  3- 5-11  126.20710066   4- 2- 8  126.89732214   4- 5-11  124.48315815   5- 3- 9  126.89732214

  5- 4-10  124.48315815   6- 1- 7  105.95603988

 NUCLEAR CHARGE:                   36
 NUMBER OF PRIMITIVE AOS:         337
 NUMBER OF SYMMETRY AOS:          306
 NUMBER OF CONTRACTIONS:          234   (  234A   )
 NUMBER OF INNER CORE ORBITALS:     0   (    0A   )
 NUMBER OF OUTER CORE ORBITALS:     5   (    5A   )
 NUMBER OF VALENCE ORBITALS:       26   (   26A   )


 NUCLEAR REPULSION ENERGY  156.67952411

 EXTRA SYMMETRY OF AOS IN SYMMETRY 1:   1 1 1 1 1 1 1 1 1 1   1 1 1 1 2 1 1 1 1 2   1 1 1 1 1 1 1 2 1 1   1 1 1 1 2 1 1 2 1 1
                                        2 1 1 1 2 2 1 1 1 2   2 1 1 2 1 1 2 2 1 1   1 1 1 1 2 1 1 2 1 1   2 1 1 1 2 2 1 1 1 2
                                        2 1 1 2 1 1 2 2 1 1   1 1 1 1 2 1 1 2 1 1   2 1 1 1 2 2 1 1 1 2   2 1 1 2 1 1 2 2 1 1
                                        1 1 1 1 2 1 1 2 1 1   2 1 1 1 2 2 1 1 1 2   2 1 1 2 1 1 2 2 1 1   1 1 1 1 2 1 1 2 1 1
                                        2 1 1 2 1 1 1 1 2 1   1 2 1 1 2 1 1 2 1 1   1 2 1 1 2 1 1 1 2 2   1 1 1 1 1 2 1 1 2 1
                                        1 1 2 2 1 1 1 1 1 2   1 1 2 1 1 1 2 2 1 1   1 1 1 2 1 1 2 1 1 1   2 2 1 1

 Eigenvalues of metric

         1 0.158E-03 0.256E-03 0.952E-03 0.102E-02 0.104E-02 0.123E-02 0.129E-02 0.133E-02


 Contracted 2-electron integrals neglected if value below      1.0D-11
 AO integral compression algorithm  1   Integral accuracy      1.0D-11

     1036.517 MB (compressed) written to integral file ( 32.0%)


 NUMBER OF SORTED TWO-ELECTRON INTEGRALS:  378001260.     BUFFER LENGTH:  32768
 NUMBER OF SEGMENTS:  24  SEGMENT LENGTH:   15999762      RECORD LENGTH: 524288

 Memory used in sort:      16.56 MW

 SORT1 READ   404912295. AND WROTE   243880957. INTEGRALS IN    709 RECORDS. CPU TIME:     2.87 SEC, REAL TIME:     3.72 SEC
 SORT2 READ   243880957. AND WROTE   378001260. INTEGRALS IN   3954 RECORDS. CPU TIME:     2.08 SEC, REAL TIME:     2.65 SEC

 FILE SIZES:   FILE 1:  1068.7 MBYTE,  FILE 4:  2973.8 MBYTE,   TOTAL:   4042.5 MBYTE

 OPERATOR DM      FOR CENTER  0  COORDINATES:    0.000000    0.000000    0.000000


 **********************************************************************************************************************************
 DATASETS  * FILE   NREC   LENGTH (MB)   RECORD NAMES
              1      19      934.69       500      610      700      900      950      970     1000      129      960     1100   
                                          VAR    BASINP    GEOM    SYMINP    ZMAT    AOBASIS   BASIS     P2S    ABASIS      S 
                                         1400     1410     1200     1210     1080     1600     1650     1300     1700   
                                           T        V       H0       H01     AOSYM     SMH    MOLCAS    ERIS     OPER   

 PROGRAMS   *        TOTAL       INT
 CPU TIMES  *        14.32     14.22
 REAL TIME  *        20.06 SEC
 DISK USED  *         3.77 GB
 **********************************************************************************************************************************


 Program * Restricted Hartree-Fock

 Orbital guess generated from atomic densities. Full valence occupancy:   31

 Initial occupancy:  18

 NELEC=   36   SYM=1   MS2= 0   THRE=1.0D-08   THRD=3.2D-06   THRG=3.2D-06  HFMA2=F  DIIS_START=2   DIIS_MAX=10   DIIS_INCORE=F

 Level shifts:    0.00 (CLOSED)    0.00 (OPEN)    0.30 (GAP_MIN)

 ITER           ETOT              DE          GRAD        DDIFF     DIIS  NEXP   TIME(IT)  TIME(TOT)  DIAG
   1     -192.79504279    -192.79504279     0.00D+00     0.48D-01     0     0       2.11      4.00    start
   2     -192.84763476      -0.05259197     0.32D-02     0.46D-02     1     0       2.07      6.07    diag
   3     -192.85625327      -0.00861851     0.14D-02     0.16D-02     2     0       2.05      8.12    diag
   4     -192.85768640      -0.00143313     0.42D-03     0.73D-03     3     0       2.09     10.21    diag
   5     -192.85775228      -0.00006588     0.82D-04     0.16D-03     4     0       2.06     12.27    diag
   6     -192.85776538      -0.00001310     0.39D-04     0.60D-04     5     0       2.11     14.38    diag
   7     -192.85776694      -0.00000156     0.11D-04     0.21D-04     6     0       2.08     16.46    diag
   8     -192.85776704      -0.00000010     0.27D-05     0.56D-05     7     0       2.04     18.50    fixocc
   9     -192.85776705      -0.00000001     0.82D-06     0.19D-05     8     0       1.99     20.49    diag
  10     -192.85776705      -0.00000000     0.17D-06     0.29D-06     0     0       2.06     22.55    diag/orth

 Final occupancy:  18

 !RHF STATE 1.1 Energy               -192.857767045580
  RHF One-electron energy            -569.554357447479
  RHF Two-electron energy             220.017066296289
  RHF Kinetic energy                  192.567168194089
  RHF Nuclear energy                  156.679524105610
  RHF Virial quotient                  -1.001509077867

 !RHF STATE 1.1 Dipole moment           0.00000000    -0.00000000    -0.14229030
 Dipole moment /Debye                   0.00000000    -0.00000000    -0.36166586

 Orbital energies:

           1.1          2.1          3.1          4.1          5.1          6.1          7.1          8.1          9.1         10.1
    -11.229806   -11.225919   -11.225356   -11.223832   -11.223660    -1.147712    -0.962013    -0.952132    -0.753222    -0.724721

          11.1         12.1         13.1         14.1         15.1         16.1         17.1         18.1         19.1         20.1
     -0.693158    -0.589647    -0.559387    -0.526151    -0.504870    -0.499949    -0.411954    -0.306620     0.122739     0.149190


 HOMO     18.1    -0.306620 =      -8.3436eV
 LUMO     19.1     0.122739 =       3.3399eV
 LUMO-HOMO         0.429360 =      11.6835eV

 Orbitals saved in record  2100.2


 **********************************************************************************************************************************
 DATASETS  * FILE   NREC   LENGTH (MB)   RECORD NAMES
              1      19      934.69       500      610      700      900      950      970     1000      129      960     1100   
                                          VAR    BASINP    GEOM    SYMINP    ZMAT    AOBASIS   BASIS     P2S    ABASIS      S 
                                         1400     1410     1200     1210     1080     1600     1650     1300     1700   
                                           T        V       H0       H01     AOSYM     SMH    MOLCAS    ERIS     OPER   

              2       4        1.41       700     1000      520     2100   
                                         GEOM     BASIS   MCVARS     RHF  

 PROGRAMS   *        TOTAL    HF-SCF       INT
 CPU TIMES  *        36.87     22.55     14.22
 REAL TIME  *        46.07 SEC
 DISK USED  *         3.77 GB
 **********************************************************************************************************************************


 Program * Restricted Hartree-Fock

 Molecular orbitals read from record     2100.2  Type=RHF/CANONICAL  

 Initial occupancy:  18

 NELEC=   36   SYM=1   MS2= 0   THRE=1.0D-08   THRD=3.2D-06   THRG=3.2D-06  HFMA2=F  DIIS_START=2   DIIS_MAX=10   DIIS_INCORE=F

 Level shifts:    0.00 (CLOSED)    0.00 (OPEN)    0.30 (GAP_MIN)

 ITER           ETOT              DE          GRAD        DDIFF     DIIS  NEXP   TIME(IT)  TIME(TOT)  DIAG
   1     -192.85776705    -192.85776705     0.00D+00     0.49D-01     0     0       2.09      2.09    start
   2     -192.85776705      -0.00000000     0.70D-07     0.11D-06     1     0       2.15      4.24    diag

 Final occupancy:  18

 !RHF STATE 1.1 Energy               -192.857767045633
  RHF One-electron energy            -569.554366278762
  RHF Two-electron energy             220.017075127519
  RHF Kinetic energy                  192.567171785792
  RHF Nuclear energy                  156.679524105610
  RHF Virial quotient                  -1.001509059188

 !RHF STATE 1.1 Dipole moment          -0.00000000    -0.00000000    -0.14228723
 Dipole moment /Debye                  -0.00000000    -0.00000000    -0.36165806

 Orbital energies:

           1.1          2.1          3.1          4.1          5.1          6.1          7.1          8.1          9.1         10.1
    -11.229800   -11.225920   -11.225358   -11.223835   -11.223662    -1.147713    -0.962014    -0.952131    -0.753222    -0.724721

          11.1         12.1         13.1         14.1         15.1         16.1         17.1         18.1         19.1         20.1
     -0.693158    -0.589646    -0.559387    -0.526151    -0.504870    -0.499948    -0.411954    -0.306622     0.122739     0.149191


 HOMO     18.1    -0.306622 =      -8.3436eV
 LUMO     19.1     0.122739 =       3.3399eV
 LUMO-HOMO         0.429361 =      11.6835eV

 Orbitals saved in record  2101.2


 **********************************************************************************************************************************
 DATASETS  * FILE   NREC   LENGTH (MB)   RECORD NAMES
              1      19      934.69       500      610      700      900      950      970     1000      129      960     1100   
                                          VAR    BASINP    GEOM    SYMINP    ZMAT    AOBASIS   BASIS     P2S    ABASIS      S 
                                         1400     1410     1200     1210     1080     1600     1650     1300     1700   
                                           T        V       H0       H01     AOSYM     SMH    MOLCAS    ERIS     OPER   

              2       5        2.98       700     1000      520     2100     2101   
                                         GEOM     BASIS   MCVARS     RHF      RHF  

 PROGRAMS   *        TOTAL    HF-SCF    HF-SCF       INT
 CPU TIMES  *        41.13      4.24     22.55     14.22
 REAL TIME  *        51.35 SEC
 DISK USED  *         3.77 GB
 **********************************************************************************************************************************


 PROGRAM * PAPT (Closed-shell)     Authors: C. Hampel, H.-J. Werner, 1991, P.J. Knowles, 2021


 Convergence thresholds:  THRVAR = 1.00D-08  THRDEN = 1.00D-06

 Number of core orbitals:           5 (   5 )
 Number of closed-shell orbitals:  13 (  13 )
 Number of external orbitals:     216 ( 216 )

 Molecular orbitals read from record     2101.2  Type=RHF/CANONICAL  

 Number of N-1 electron functions:              13
 Number of N-2 electron functions:              91
 Number of singly external CSFs:              2808
 Number of doubly external CSFs:           3943836
 Total number of CSFs:                     3946645

 Length of J-op  integral file:               0.00 MB
 Length of K-op  integral file:               3.82 MB

 Integral transformation finished. Total CPU:   5.07 sec, npass=  1  Memory used:   9.44 MW

 Reference energy:                   -192.85776705

                        CORR.ENERGY   TOTAL ENERGY   ENERGY CHANGE
 MP2:                   -0.80534146  -193.66310851    -0.80534146

 SCS-MP2 correlation energy:           -0.79886017   (PS=  1.200000  PT=  0.333333)
 SCS-MP2 total energy:               -193.65662722
 Iteration:   1     0.2757D+00
 Iteration:   2     0.4178D+00
 Iteration:   3     0.8654D-01
 Iteration:   4     0.1013D+00
 Iteration:   5     0.4341D-01
 Iteration:   6     0.1671D-01
 Iteration:   7     0.5536D+00
 Iteration:   8     0.4402D-02
 Iteration:   9     0.5450D-02
 Iteration:  10     0.1726D-02
 Iteration:  11     0.7402D-03
 Iteration:  12     0.8357D-02
 Iteration:  13     0.2935D-03
 Iteration:  14     0.3048D-03
 Iteration:  15     0.1782D-03
 Iteration:  16     0.7686D-04
 PAPT operator written to  7000.1
 PAPT orbitals and eigenvalues written to  7000.2

 MP3(D):                -0.83576068  -193.69352773    -0.03041922



 RESULTS
 =======

  Reference energy                   -192.857767045634
  MP3 singlet pair energy              -0.564593550909
  MP3 triplet pair energy              -0.271167131495
  MP3 correlation energy               -0.835760682405

 !MP3 total energy                   -193.693527728038

 Timing summary (sec):

 STEP                 CPU(USER)    SYS     CPU(TOT)    WALL
 Transformation          5.35      0.42      5.77      6.19
 CCSD iterations        66.82      0.59     67.41     30.11

 Program statistics:

 Available memory in ccsd:               393215306
 Min. memory needed in ccsd:              10107745
 Max. memory used in ccsd:                13644421
 Max. memory used in cckext:              10474438 ( 1 integral passes)



 **********************************************************************************************************************************
 DATASETS  * FILE   NREC   LENGTH (MB)   RECORD NAMES
              1      21      992.85       500      610      700      900      950      970     1000      129      960     1100   
                                          VAR    BASINP    GEOM    SYMINP    ZMAT    AOBASIS   BASIS     P2S    ABASIS      S 
                                         1400     1410     1200     1210     1080     1600     1650     1300     1700     1380   
                                           T        V       H0       H01     AOSYM     SMH    MOLCAS    ERIS     OPER     JKOP   
                                         7000   
                                        PAPT AO    

              2       6        4.34       700     1000      520     2100     2101     7000   
                                         GEOM     BASIS   MCVARS     RHF      RHF     PAPT   

 PROGRAMS   *        TOTAL      PAPT    HF-SCF    HF-SCF       INT
 CPU TIMES  *        72.06     30.93      4.24     22.55     14.22
 REAL TIME  *        88.27 SEC
 DISK USED  *         3.77 GB
 **********************************************************************************************************************************


 PROGRAM * MP4 (Closed-shell)     Authors: C. Hampel, H.-J. Werner, 1991, M. Deegan, P.J. Knowles, 1992


 Convergence thresholds:  THRVAR = 1.00D-08  THRDEN = 1.00D-06

 MP4(T)     terms to be evaluated (factor= 0.000)


 Number of core orbitals:           5 (   5 )
 Number of closed-shell orbitals:  13 (  13 )
 Number of external orbitals:     216 ( 216 )

 Molecular orbitals read from record     7000.2  Type=PAPT/CANONICAL (state 1.1)

 Number of N-1 electron functions:              13
 Number of N-2 electron functions:              91
 Number of singly external CSFs:              2808
 Number of doubly external CSFs:           3943836
 Total number of CSFs:                     3946645

 Length of J-op  integral file:               0.00 MB
 Length of K-op  integral file:               3.82 MB

 Memory could be reduced to 166.40 Mwords without degradation in triples

 Integral transformation finished. Total CPU:  13.27 sec, npass=  1  Memory used:  99.51 MW
 Orbital energies read from record       7000.2  Type=PAPT/CANONICAL (state 1.1)

 Reference energy:                   -192.85776705

                        CORR.ENERGY   TOTAL ENERGY   ENERGY CHANGE
 MP2:                   -0.84376243  -193.70152948    -0.84376243

 SCS-MP2 correlation energy:           -0.84154833   (PS=  1.200000  PT=  0.333333)
 SCS-MP2 total energy:               -193.69931538

 MP3(D):                -0.84409650  -193.70186355    -0.00033407
 MP4(DQ):               -0.83004996  -193.68781700     0.01404655
 MP4(SDQ):              -0.83639873  -193.69416578    -0.00634877

 Norm of t1 vector:      0.06617536      S-energy:    -0.00634877      T1 diagnostic:  0.00917687

 Largest off-diagonal element in interal  block of Fock matrix:  0.16D+00
 Largest off-diagonal element in external block of Fock matrix:  0.25D+00


 Total CPU time for triples:    313.46 sec


 RESULTS
 =======

  Reference energy                   -192.857767045634
  MP4(SDQ) singlet pair energy         -0.562969149771
  MP4(SDQ) triplet pair energy         -0.267080805930
  MP4(SDQ) correlation energy          -0.836398729485

  Triples contribution                 -0.046903418324
  Total correlation energy             -0.883302147809

  MP4(SDQ) total energy              -193.694165775119
 !MP4(SDTQ) total energy             -193.741069193443

 Timing summary (sec):

 STEP                 CPU(USER)    SYS     CPU(TOT)    WALL
 Transformation         15.64      1.27     16.91     17.88
 CCSD iterations        91.47      0.49     91.96     21.74
 Triples               313.46      9.59    323.05    342.94

 Program statistics:

 Available memory in ccsd:               393215306
 Min. memory needed in ccsd:              10107745
 Max. memory used in ccsd:                13644421
 Max. memory used in cckext:              10474438 ( 1 integral passes)



 **********************************************************************************************************************************
 DATASETS  * FILE   NREC   LENGTH (MB)   RECORD NAMES
              1      22     1494.92       500      610      700      900      950      970     1000      129      960     1100   
                                          VAR    BASINP    GEOM    SYMINP    ZMAT    AOBASIS   BASIS     P2S    ABASIS      S 
                                         1400     1410     1200     1210     1080     1600     1650     1300     1700     1380   
                                           T        V       H0       H01     AOSYM     SMH    MOLCAS    ERIS     OPER     JKOP   
                                         7000     1380(1)
                                        PAPT AO   JKOP   

              2       6        4.34       700     1000      520     2100     2101     7000   
                                         GEOM     BASIS   MCVARS     RHF      RHF     PAPT   

 PROGRAMS   *        TOTAL       MP4      PAPT    HF-SCF    HF-SCF       INT
 CPU TIMES  *       420.46    348.40     30.93      4.24     22.55     14.22
 REAL TIME  *       471.20 SEC
 DISK USED  *         3.77 GB
 **********************************************************************************************************************************

 Dump information in style XML to xml output                                                                      

 Orbitals will not be exported.

 **********************************************************************************************************************************

 MP4/cc-pVTZ energy=   -193.741069193443

             MP4            PAPT          HF-SCF          HF-SCF
   -193.74106919   -193.69352773   -192.85776705   -192.85776705
 **********************************************************************************************************************************
 Molpro calculation terminated
