
 Working directory              : /var/folders/2v/xbgp75_9785319ghcgb4zr4r0000gp/T//molpro.MRlEMd7vnf/
 Global scratch directory       : /var/folders/2v/xbgp75_9785319ghcgb4zr4r0000gp/T//molpro.MRlEMd7vnf/
 Wavefunction directory         : /Users/sacpjk/wfu/
 Main file repository           : /var/folders/2v/xbgp75_9785319ghcgb4zr4r0000gp/T//molpro.MRlEMd7vnf/

 id        : peterk

 Nodes                        nprocs
 Cardiff-University-G34YLXT77Y    1
 GA implementation: MPI file
 GA implementation (serial work in mppx): MPI file

 Using customized tuning parameters: mindgm=1; mindgv=20; mindgc=4; mindgr=1; noblas=0; minvec=7
 default implementation of scratch files=df  


 Variables initialized (1032), CPU time= 0.01 sec
 
 symmetry,nosym
 
 
 geometry={
 7
  n          0.417200135251   -0.477271134948   -0.662731774095
  h          0.321512727175   -1.446102175141   -0.386878863336
  h         -0.171939531839   -0.363837067214   -1.477491632290
  c         -0.066245324842    0.390808478814    0.417645924696
  h          0.037904429088    1.427874118971    0.109793626562
  h         -1.104073161745    0.217404506673    0.708776063553
  h          0.565640726860    0.251123272951    1.290886655016
 }
 basis=aug-cc-pVTZ
 
 
 
 hf; hf; papt; mp3
 
 
 
 {put,xml;noorbitals,nobasis}
 Commands initialized (841), CPU time= 0.00 sec, 704 directives.
 Default parameters read. Elapsed time= 2.15 sec

 Checking input...
 Passed
1


                                         ***  PROGRAM SYSTEM MOLPRO  ***
                                       Copyright, TTI GmbH Stuttgart, 2015
                                    Version 2023.1 linked Tue Jun  6 09:54:11 2023


 **********************************************************************************************************************************
 LABEL *                                                                                                                                                                 
  64 bit serial version                                                                  DATE: 09-Jun-23          TIME: 01:15:14  
 **********************************************************************************************************************************

 SHA1:             8ebb0dd001088a5c915591db1a321413035db0b1
 **********************************************************************************************************************************

 Memory per process:       805 MW
 Total memory per node:   1074 MW
 Total GA space:           268 MW

 GA preallocation disabled
 GA check enabled

 Variable memory set to 805.3 MW

 ZSYMEL=NOSYM


 Geometry recognized as XYZ

 SETTING BASIS          =    AUG-CC-PVTZ


 Recomputing integrals since basis changed


 Using spherical harmonics

 Library entry N      S aug-cc-pVTZ          selected for orbital group  1
 Library entry N      P aug-cc-pVTZ          selected for orbital group  1
 Library entry N      D aug-cc-pVTZ          selected for orbital group  1
 Library entry N      F aug-cc-pVTZ          selected for orbital group  1
 Library entry H      S aug-cc-pVTZ          selected for orbital group  2
 Library entry H      P aug-cc-pVTZ          selected for orbital group  2
 Library entry H      D aug-cc-pVTZ          selected for orbital group  2
 Library entry C      S aug-cc-pVTZ          selected for orbital group  3
 Library entry C      P aug-cc-pVTZ          selected for orbital group  3
 Library entry C      D aug-cc-pVTZ          selected for orbital group  3
 Library entry C      F aug-cc-pVTZ          selected for orbital group  3


 PROGRAM * SEWARD (Integral evaluation for generally contracted gaussian basis sets)     Author: Roland Lindh, 1990

 Geometry written to block  1 of record 700


 Point group  C1  



 ATOMIC COORDINATES

 NR  ATOM    CHARGE       X              Y              Z

   1  N       7.00    0.788393995   -0.901911732   -1.252381547
   2  H       1.00    0.607571000   -2.732737059   -0.731095095
   3  H       1.00   -0.324918625   -0.687552411   -2.792054536
   4  C       6.00   -0.125185521    0.738520992    0.789236415
   5  H       1.00    0.071628990    2.698291025    0.207479884
   6  H       1.00   -2.086395897    0.410834976    1.339392644
   7  H       1.00    1.068906059    0.474554209    2.439422236

 Bond lengths in Bohr (Angstrom)

 1-2  1.912160532  1-3  1.912068990  1-4  2.773779183  4-5  2.053746624  4-6  2.063103522
     ( 1.011871777)     ( 1.011823335)     ( 1.467820732)     ( 1.086795910)     ( 1.091747367)

 4-7  2.053934373
     ( 1.086895263)

 Bond angles

  1-4-5  108.92232449   1-4-6  114.54691082   1-4-7  108.89704666   2-1-3  105.77144000

  2-1-4  109.53896727   3-1-4  109.54911814   5-4-6  108.55407821   5-4-7  107.12795867

  6-4-7  108.54184764

 NUCLEAR CHARGE:                   18
 NUMBER OF PRIMITIVE AOS:         269
 NUMBER OF SYMMETRY AOS:          241
 NUMBER OF CONTRACTIONS:          207   (  207A   )
 NUMBER OF INNER CORE ORBITALS:     0   (    0A   )
 NUMBER OF OUTER CORE ORBITALS:     2   (    2A   )
 NUMBER OF VALENCE ORBITALS:       13   (   13A   )


 NUCLEAR REPULSION ENERGY   42.04336543

 Eigenvalues of metric

         1 0.387E-04 0.623E-04 0.643E-04 0.137E-03 0.161E-03 0.251E-03 0.393E-03 0.659E-03


 Contracted 2-electron integrals neglected if value below      1.0D-12
 AO integral compression algorithm  1   Integral accuracy      1.0D-12

     1342.964 MB (compressed) written to integral file ( 62.8%)


 NUMBER OF SORTED TWO-ELECTRON INTEGRALS:  231738156.     BUFFER LENGTH:  32768
 NUMBER OF SEGMENTS:  15  SEGMENT LENGTH:   15999503      RECORD LENGTH: 524288

 Memory used in sort:      16.56 MW

 SORT1 READ   267401021. AND WROTE   230448915. INTEGRALS IN    665 RECORDS. CPU TIME:     1.83 SEC, REAL TIME:     2.44 SEC
 SORT2 READ   230448915. AND WROTE   231738156. INTEGRALS IN   5123 RECORDS. CPU TIME:     1.44 SEC, REAL TIME:     1.92 SEC

 FILE SIZES:   FILE 1:  1374.7 MBYTE,  FILE 4:  2789.3 MBYTE,   TOTAL:   4163.9 MBYTE

 OPERATOR DM      FOR CENTER  0  COORDINATES:    0.000000    0.000000    0.000000


 **********************************************************************************************************************************
 DATASETS  * FILE   NREC   LENGTH (MB)   RECORD NAMES
              1      19     1166.55       500      610      700      900      950      970     1000      129      960     1100   
                                          VAR    BASINP    GEOM    SYMINP    ZMAT    AOBASIS   BASIS     P2S    ABASIS      S 
                                         1400     1410     1200     1210     1080     1600     1650     1300     1700   
                                           T        V       H0       H01     AOSYM     SMH    MOLCAS    ERIS     OPER   

 PROGRAMS   *        TOTAL       INT
 CPU TIMES  *         8.21      8.12
 REAL TIME  *        19.17 SEC
 DISK USED  *         3.88 GB
 **********************************************************************************************************************************


 Program * Restricted Hartree-Fock

 Orbital guess generated from atomic densities. Full valence occupancy:   15

 Initial occupancy:   9

 NELEC=   18   SYM=1   MS2= 0   THRE=1.0D-08   THRD=3.2D-06   THRG=3.2D-06  HFMA2=F  DIIS_START=2   DIIS_MAX=10   DIIS_INCORE=F

 Level shifts:    0.00 (CLOSED)    0.00 (OPEN)    0.30 (GAP_MIN)

 ITER           ETOT              DE          GRAD        DDIFF     DIIS  NEXP   TIME(IT)  TIME(TOT)  DIAG
   1      -95.22551081     -95.22551081     0.00D+00     0.41D-01     0     0       1.14      2.14    start
   2      -95.25114326      -0.02563245     0.37D-02     0.43D-02     1     0       1.07      3.21    diag
   3      -95.25490970      -0.00376643     0.16D-02     0.12D-02     2     0       1.14      4.35    diag
   4      -95.25543023      -0.00052054     0.46D-03     0.42D-03     3     0       1.19      5.54    diag
   5      -95.25545666      -0.00002643     0.90D-04     0.79D-04     4     0       1.29      6.83    diag
   6      -95.25545839      -0.00000173     0.22D-04     0.24D-04     5     0       1.14      7.97    diag
   7      -95.25545852      -0.00000013     0.60D-05     0.64D-05     6     0       1.05      9.02    diag
   8      -95.25545853      -0.00000002     0.16D-05     0.27D-05     7     0       1.10     10.12    fixocc
   9      -95.25545853      -0.00000000     0.41D-06     0.78D-06     8     0       1.05     11.17    diag
  10      -95.25545853      -0.00000000     0.89D-07     0.90D-07     0     0       1.03     12.20    diag/orth

 Final occupancy:   9

 !RHF STATE 1.1 Energy                -95.255458532236
  RHF One-electron energy            -211.441016177667
  RHF Two-electron energy              74.142192211124
  RHF Kinetic energy                   95.124589078711
  RHF Nuclear energy                   42.043365434307
  RHF Virial quotient                  -1.001375768924

 !RHF STATE 1.1 Dipole moment          -0.54158328    -0.13229616     0.11396928
 Dipole moment /Debye                  -1.37656740    -0.33626329     0.28968102

 Orbital energies:

           1.1          2.1          3.1          4.1          5.1          6.1          7.1          8.1          9.1         10.1
    -15.539843   -11.240286    -1.169700    -0.896712    -0.661339    -0.603920    -0.555672    -0.517236    -0.393607     0.029471

          11.1
      0.042843


 HOMO      9.1    -0.393607 =     -10.7106eV
 LUMO     10.1     0.029471 =       0.8019eV
 LUMO-HOMO         0.423078 =      11.5125eV

 Orbitals saved in record  2100.2


 **********************************************************************************************************************************
 DATASETS  * FILE   NREC   LENGTH (MB)   RECORD NAMES
              1      19     1166.55       500      610      700      900      950      970     1000      129      960     1100   
                                          VAR    BASINP    GEOM    SYMINP    ZMAT    AOBASIS   BASIS     P2S    ABASIS      S 
                                         1400     1410     1200     1210     1080     1600     1650     1300     1700   
                                           T        V       H0       H01     AOSYM     SMH    MOLCAS    ERIS     OPER   

              2       4        1.16       700     1000      520     2100   
                                         GEOM     BASIS   MCVARS     RHF  

 PROGRAMS   *        TOTAL    HF-SCF       INT
 CPU TIMES  *        20.41     12.20      8.12
 REAL TIME  *        34.24 SEC
 DISK USED  *         3.88 GB
 **********************************************************************************************************************************


 Program * Restricted Hartree-Fock

 Molecular orbitals read from record     2100.2  Type=RHF/CANONICAL  

 Initial occupancy:   9

 NELEC=   18   SYM=1   MS2= 0   THRE=1.0D-08   THRD=3.2D-06   THRG=3.2D-06  HFMA2=F  DIIS_START=2   DIIS_MAX=10   DIIS_INCORE=F

 Level shifts:    0.00 (CLOSED)    0.00 (OPEN)    0.30 (GAP_MIN)

 ITER           ETOT              DE          GRAD        DDIFF     DIIS  NEXP   TIME(IT)  TIME(TOT)  DIAG
   1      -95.25545853     -95.25545853     0.00D+00     0.42D-01     0     0       1.12      1.12    start
   2      -95.25545853      -0.00000000     0.42D-07     0.44D-07     1     0       1.20      2.32    diag

 Final occupancy:   9

 !RHF STATE 1.1 Energy                -95.255458532246
  RHF One-electron energy            -211.441018904779
  RHF Two-electron energy              74.142194938226
  RHF Kinetic energy                   95.124589441800
  RHF Nuclear energy                   42.043365434307
  RHF Virial quotient                  -1.001375765101

 !RHF STATE 1.1 Dipole moment          -0.54158495    -0.13229615     0.11397004
 Dipole moment /Debye                  -1.37657164    -0.33626328     0.28968295

 Orbital energies:

           1.1          2.1          3.1          4.1          5.1          6.1          7.1          8.1          9.1         10.1
    -15.539844   -11.240285    -1.169700    -0.896712    -0.661339    -0.603919    -0.555672    -0.517236    -0.393608     0.029471

          11.1
      0.042843


 HOMO      9.1    -0.393608 =     -10.7106eV
 LUMO     10.1     0.029471 =       0.8019eV
 LUMO-HOMO         0.423078 =      11.5125eV

 Orbitals saved in record  2101.2


 **********************************************************************************************************************************
 DATASETS  * FILE   NREC   LENGTH (MB)   RECORD NAMES
              1      19     1166.55       500      610      700      900      950      970     1000      129      960     1100   
                                          VAR    BASINP    GEOM    SYMINP    ZMAT    AOBASIS   BASIS     P2S    ABASIS      S 
                                         1400     1410     1200     1210     1080     1600     1650     1300     1700   
                                           T        V       H0       H01     AOSYM     SMH    MOLCAS    ERIS     OPER   

              2       5        2.41       700     1000      520     2100     2101   
                                         GEOM     BASIS   MCVARS     RHF      RHF  

 PROGRAMS   *        TOTAL    HF-SCF    HF-SCF       INT
 CPU TIMES  *        22.76      2.35     12.20      8.12
 REAL TIME  *        37.66 SEC
 DISK USED  *         3.88 GB
 **********************************************************************************************************************************


 PROGRAM * PAPT (Closed-shell)     Authors: C. Hampel, H.-J. Werner, 1991, P.J. Knowles, 2021


 Convergence thresholds:  THRVAR = 1.00D-08  THRDEN = 1.00D-06

 Number of core orbitals:           2 (   2 )
 Number of closed-shell orbitals:   7 (   7 )
 Number of external orbitals:     198 ( 198 )

 Molecular orbitals read from record     2101.2  Type=RHF/CANONICAL  

 Number of N-1 electron functions:               7
 Number of N-2 electron functions:              28
 Number of singly external CSFs:              1386
 Number of doubly external CSFs:            961191
 Total number of CSFs:                      962578

 Length of J-op  integral file:               0.00 MB
 Length of K-op  integral file:               3.00 MB

 Integral transformation finished. Total CPU:   1.67 sec, npass=  1  Memory used:   2.95 MW

 Reference energy:                    -95.25545853

                        CORR.ENERGY   TOTAL ENERGY   ENERGY CHANGE
 MP2:                   -0.41168806   -95.66714659    -0.41168806

 SCS-MP2 correlation energy:           -0.41614390   (PS=  1.200000  PT=  0.333333)
 SCS-MP2 total energy:                -95.67160244
 Iteration:   1     0.1818D+00
 Iteration:   2     0.2235D+00
 Iteration:   3     0.3925D-01
 Iteration:   4     0.3353D-01
 Iteration:   5     0.2469D-01
 Iteration:   6     0.7888D-02
 Iteration:   7     0.7948D+00
 Iteration:   8     0.2730D-02
 Iteration:   9     0.2775D-02
 Iteration:  10     0.2453D-02
 Iteration:  11     0.1091D-02
 Iteration:  12     0.5531D-01
 Iteration:  13     0.3865D-03
 Iteration:  14     0.3808D-03
 Iteration:  15     0.4080D-03
 Iteration:  16     0.1004D-03
 Iteration:  17     0.1189D-03
 Iteration:  18     0.5984D-04
 PAPT operator written to  7000.1
 PAPT orbitals and eigenvalues written to  7000.2

 MP3(D):                -0.43292600   -95.68838453    -0.02123794



 RESULTS
 =======

  Reference energy                    -95.255458532246
  MP3 singlet pair energy              -0.304343697776
  MP3 triplet pair energy              -0.128582299591
  MP3 correlation energy               -0.432925997367

 !MP3 total energy                    -95.688384529613

 Timing summary (sec):

 STEP                 CPU(USER)    SYS     CPU(TOT)    WALL
 Transformation          1.69      0.23      1.92      2.12
 CCSD iterations        26.85      0.35     27.20      6.91

 Program statistics:

 Available memory in ccsd:               805306163
 Min. memory needed in ccsd:               3040312
 Max. memory used in ccsd:                 3839467
 Max. memory used in cckext:               2734686 ( 1 integral passes)



 **********************************************************************************************************************************
 DATASETS  * FILE   NREC   LENGTH (MB)   RECORD NAMES
              1      21     1181.13       500      610      700      900      950      970     1000      129      960     1100   
                                          VAR    BASINP    GEOM    SYMINP    ZMAT    AOBASIS   BASIS     P2S    ABASIS      S 
                                         1400     1410     1200     1210     1080     1600     1650     1300     1700     1380   
                                           T        V       H0       H01     AOSYM     SMH    MOLCAS    ERIS     OPER     JKOP   
                                         7000   
                                        PAPT AO    

              2       6        3.49       700     1000      520     2100     2101     7000   
                                         GEOM     BASIS   MCVARS     RHF      RHF     PAPT   

 PROGRAMS   *        TOTAL      PAPT    HF-SCF    HF-SCF       INT
 CPU TIMES  *        28.44      5.68      2.35     12.20      8.12
 REAL TIME  *        48.26 SEC
 DISK USED  *         3.88 GB
 **********************************************************************************************************************************


 PROGRAM * MP3 (Closed-shell)     Authors: C. Hampel, H.-J. Werner, 1991, M. Deegan, P.J. Knowles, 1992


 Convergence thresholds:  THRVAR = 1.00D-08  THRDEN = 1.00D-06

 Number of core orbitals:           2 (   2 )
 Number of closed-shell orbitals:   7 (   7 )
 Number of external orbitals:     198 ( 198 )

 Molecular orbitals read from record     7000.2  Type=PAPT/CANONICAL (state 1.1)

 Number of N-1 electron functions:               7
 Number of N-2 electron functions:              28
 Number of singly external CSFs:              1386
 Number of doubly external CSFs:            961191
 Total number of CSFs:                      962578

 Length of J-op  integral file:               0.00 MB
 Length of K-op  integral file:               3.00 MB

 Integral transformation finished. Total CPU:   1.23 sec, npass=  1  Memory used:   2.95 MW
 Orbital energies read from record       7000.2  Type=PAPT/CANONICAL (state 1.1)

 Reference energy:                    -95.25545853

                        CORR.ENERGY   TOTAL ENERGY   ENERGY CHANGE
 MP2:                   -0.43768941   -95.69314794    -0.43768941

 SCS-MP2 correlation energy:           -0.44421364   (PS=  1.200000  PT=  0.333333)
 SCS-MP2 total energy:                -95.69967218

 MP3(D):                -0.43789522   -95.69335375    -0.00020581



 RESULTS
 =======

  Reference energy                    -95.255458532246
  MP3 singlet pair energy              -0.309836474218
  MP3 triplet pair energy              -0.128058747953
  MP3 correlation energy               -0.437895222172

 !MP3 total energy                    -95.693353754418

 Timing summary (sec):

 STEP                 CPU(USER)    SYS     CPU(TOT)    WALL
 Transformation          2.24      0.27      2.51      2.72
 CCSD iterations        30.36      0.14     30.50      2.25

 Program statistics:

 Available memory in ccsd:               805306163
 Min. memory needed in ccsd:               3040312
 Max. memory used in ccsd:                 3839467
 Max. memory used in cckext:               2734686 ( 1 integral passes)



 **********************************************************************************************************************************
 DATASETS  * FILE   NREC   LENGTH (MB)   RECORD NAMES
              1      21     1181.13       500      610      700      900      950      970     1000      129      960     1100   
                                          VAR    BASINP    GEOM    SYMINP    ZMAT    AOBASIS   BASIS     P2S    ABASIS      S 
                                         1400     1410     1200     1210     1080     1600     1650     1300     1700     1380   
                                           T        V       H0       H01     AOSYM     SMH    MOLCAS    ERIS     OPER     JKOP   
                                         7000   
                                        PAPT AO    

              2       6        3.49       700     1000      520     2100     2101     7000   
                                         GEOM     BASIS   MCVARS     RHF      RHF     PAPT   

 PROGRAMS   *        TOTAL       MP3      PAPT    HF-SCF    HF-SCF       INT
 CPU TIMES  *        32.50      4.05      5.68      2.35     12.20      8.12
 REAL TIME  *        53.49 SEC
 DISK USED  *         3.88 GB
 **********************************************************************************************************************************

 Dump information in style XML to xml output                                                                      

 Orbitals will not be exported.

 **********************************************************************************************************************************

 MP3/aug-cc-pVTZ energy=    -95.693353754418

             MP3            PAPT          HF-SCF          HF-SCF
    -95.69335375    -95.68838453    -95.25545853    -95.25545853
 **********************************************************************************************************************************
 Molpro calculation terminated
