
 Working directory              : /var/folders/2v/xbgp75_9785319ghcgb4zr4r0000gp/T//molpro.oi4vYUJiin/
 Global scratch directory       : /var/folders/2v/xbgp75_9785319ghcgb4zr4r0000gp/T//molpro.oi4vYUJiin/
 Wavefunction directory         : /Users/sacpjk/wfu/
 Main file repository           : /var/folders/2v/xbgp75_9785319ghcgb4zr4r0000gp/T//molpro.oi4vYUJiin/

 id        : peterk

 Nodes                        nprocs
 Cardiff-University-G34YLXT77Y    1
 GA implementation: MPI file
 GA implementation (serial work in mppx): MPI file

 Using customized tuning parameters: mindgm=1; mindgv=20; mindgc=4; mindgr=1; noblas=0; minvec=7
 default implementation of scratch files=df  


 Variables initialized (1032), CPU time= 0.00 sec
 
 symmetry,nosym
 
 
 geometry={
 10
  n         -0.472418023626   -0.617684221153   -0.406552790556
  h         -0.568105431702   -1.586515261346   -0.130699879797
  h         -1.061557690768   -0.504250153419   -1.221312648750
  c         -0.955863483772    0.250395392662    0.673824908288
  h         -0.851713729789    1.287461032818    0.365972610155
  h         -1.993691320675    0.076991420521    0.964955047145
  h         -0.323977432017    0.110710186799    1.547065638608
  o          2.154314357207    0.579220653648   -0.301451296474
  h          1.336796948963    0.082948165603   -0.474604198882
  h          2.736215806180    0.320722783867   -1.017197389739
 }
 basis=aug-cc-pVTZ
 
 
 
 hf; hf; papt; mp2
 
 
 
 {put,xml;noorbitals,nobasis}
 Commands initialized (841), CPU time= 0.01 sec, 704 directives.
 Default parameters read. Elapsed time= 1.33 sec

 Checking input...
 Passed
1


                                         ***  PROGRAM SYSTEM MOLPRO  ***
                                       Copyright, TTI GmbH Stuttgart, 2015
                                    Version 2023.1 linked Tue Jun  6 09:54:11 2023


 **********************************************************************************************************************************
 LABEL *                                                                                                                                                                 
  64 bit serial version                                                                  DATE: 09-Jun-23          TIME: 01:02:43  
 **********************************************************************************************************************************

 SHA1:             8ebb0dd001088a5c915591db1a321413035db0b1
 **********************************************************************************************************************************

 Memory per process:       805 MW
 Total memory per node:   1074 MW
 Total GA space:           268 MW

 GA preallocation disabled
 GA check enabled

 Variable memory set to 805.3 MW

 ZSYMEL=NOSYM


 Geometry recognized as XYZ

 SETTING BASIS          =    AUG-CC-PVTZ


 Recomputing integrals since basis changed


 Using spherical harmonics

 Library entry N      S aug-cc-pVTZ          selected for orbital group  1
 Library entry N      P aug-cc-pVTZ          selected for orbital group  1
 Library entry N      D aug-cc-pVTZ          selected for orbital group  1
 Library entry N      F aug-cc-pVTZ          selected for orbital group  1
 Library entry H      S aug-cc-pVTZ          selected for orbital group  2
 Library entry H      P aug-cc-pVTZ          selected for orbital group  2
 Library entry H      D aug-cc-pVTZ          selected for orbital group  2
 Library entry C      S aug-cc-pVTZ          selected for orbital group  3
 Library entry C      P aug-cc-pVTZ          selected for orbital group  3
 Library entry C      D aug-cc-pVTZ          selected for orbital group  3
 Library entry C      F aug-cc-pVTZ          selected for orbital group  3
 Library entry O      S aug-cc-pVTZ          selected for orbital group  5
 Library entry O      P aug-cc-pVTZ          selected for orbital group  5
 Library entry O      D aug-cc-pVTZ          selected for orbital group  5
 Library entry O      F aug-cc-pVTZ          selected for orbital group  5


 PROGRAM * SEWARD (Integral evaluation for generally contracted gaussian basis sets)     Author: Roland Lindh, 1990

 Geometry written to block  1 of record 700


 Point group  C1  



 ATOMIC COORDINATES

 NR  ATOM    CHARGE       X              Y              Z

   1  N       7.00   -0.892740681   -1.167254009   -0.768273429
   2  H       1.00   -1.073563676   -2.998079336   -0.246986977
   3  H       1.00   -2.006053301   -0.952894688   -2.307946419
   4  C       6.00   -1.806320197    0.473178715    1.273344533
   5  H       1.00   -1.609505686    2.432948748    0.691588002
   6  H       1.00   -3.767530573    0.145492699    1.823500762
   7  H       1.00   -0.612228617    0.209211932    2.923530354
   8  O       8.00    4.071064121    1.094568401   -0.569660390
   9  H       1.00    2.526180118    0.156749316   -0.896871953
  10  H       1.00    5.170698492    0.606078223   -1.922224481

 Bond lengths in Bohr (Angstrom)

 1-2  1.912160532  1-3  1.912068990  1-4  2.773779183  4-5  2.053746624  4-6  2.063103522
     ( 1.011871777)     ( 1.011823335)     ( 1.467820732)     ( 1.086795910)     ( 1.091747367)

  4- 7  2.053934373   8- 9  1.836637860   8-10  1.810317105
       ( 1.086895263)       ( 0.971906900)       ( 0.957978557)

 Bond angles

  1-4-5  108.92232449   1-4-6  114.54691082   1-4-7  108.89704666   2-1-3  105.77144000

  2-1-4  109.53896727   3-1-4  109.54911814   5-4-6  108.55407821   5-4-7  107.12795867

  6- 4- 7  108.54184764   9- 8-10  103.88906569

 NUCLEAR CHARGE:                   28
 NUMBER OF PRIMITIVE AOS:         390
 NUMBER OF SYMMETRY AOS:          349
 NUMBER OF CONTRACTIONS:          299   (  299A   )
 NUMBER OF INNER CORE ORBITALS:     0   (    0A   )
 NUMBER OF OUTER CORE ORBITALS:     3   (    3A   )
 NUMBER OF VALENCE ORBITALS:       19   (   19A   )


 NUCLEAR REPULSION ENERGY   81.87844190


 Eigenvalues of metric

         1 0.289E-04 0.357E-04 0.576E-04 0.591E-04 0.113E-03 0.131E-03 0.172E-03 0.256E-03


 Contracted 2-electron integrals neglected if value below      1.0D-12
 AO integral compression algorithm  1   Integral accuracy      1.0D-12

     4668.260 MB (compressed) written to integral file ( 52.3%)


 NUMBER OF SORTED TWO-ELECTRON INTEGRALS: 1005783675.     BUFFER LENGTH:  32768
 NUMBER OF SEGMENTS:  63  SEGMENT LENGTH:   15999984      RECORD LENGTH: 131072

 Memory used in sort:      16.16 MW

 SORT1 READ  1116662405. AND WROTE   954717082. INTEGRALS IN  10954 RECORDS. CPU TIME:     8.35 SEC, REAL TIME:    16.28 SEC
 SORT2 READ   954717082. AND WROTE  1005783675. INTEGRALS IN  17808 RECORDS. CPU TIME:     5.13 SEC, REAL TIME:    33.78 SEC

 FILE SIZES:   FILE 1:  4701.7 MBYTE,  FILE 4: 11486.2 MBYTE,   TOTAL:  16187.9 MBYTE

 OPERATOR DM      FOR CENTER  0  COORDINATES:    0.000000    0.000000    0.000000


 **********************************************************************************************************************************
 DATASETS  * FILE   NREC   LENGTH (MB)   RECORD NAMES
              1      19     4107.83       500      610      700      900      950      970     1000      129      960     1100   
                                          VAR    BASINP    GEOM    SYMINP    ZMAT    AOBASIS   BASIS     P2S    ABASIS      S 
                                         1400     1410     1200     1210     1080     1600     1650     1300     1700   
                                           T        V       H0       H01     AOSYM     SMH    MOLCAS    ERIS     OPER   

 PROGRAMS   *        TOTAL       INT
 CPU TIMES  *        32.30     32.19
 REAL TIME  *        82.79 SEC
 DISK USED  *        15.08 GB
 **********************************************************************************************************************************


 Program * Restricted Hartree-Fock

 Orbital guess generated from atomic densities. Full valence occupancy:   22

 Initial occupancy:  14

 NELEC=   28   SYM=1   MS2= 0   THRE=1.0D-08   THRD=3.2D-06   THRG=3.2D-06  HFMA2=F  DIIS_START=2   DIIS_MAX=10   DIIS_INCORE=F

 Level shifts:    0.00 (CLOSED)    0.00 (OPEN)    0.30 (GAP_MIN)

 ITER           ETOT              DE          GRAD        DDIFF     DIIS  NEXP   TIME(IT)  TIME(TOT)  DIAG
   1     -171.25587085    -171.25587085     0.00D+00     0.35D-01     0     0       4.21      7.93    start
   2     -171.30730620      -0.05143535     0.42D-02     0.46D-02     1     0       4.04     11.97    diag
   3     -171.32184074      -0.01453454     0.24D-02     0.15D-02     2     0       4.51     16.48    diag
   4     -171.32260108      -0.00076035     0.37D-03     0.39D-03     3     0       4.28     20.76    diag
   5     -171.32264939      -0.00004830     0.86D-04     0.94D-04     4     0       4.34     25.10    diag
   6     -171.32265336      -0.00000397     0.27D-04     0.27D-04     5     0       4.19     29.29    diag
   7     -171.32265383      -0.00000047     0.85D-05     0.92D-05     6     0       4.53     33.82    diag
   8     -171.32265387      -0.00000003     0.18D-05     0.25D-05     7     0       4.67     38.49    fixocc
   9     -171.32265387      -0.00000000     0.59D-06     0.78D-06     8     0       4.47     42.96    diag
  10     -171.32265387      -0.00000000     0.16D-06     0.18D-06     0     0       4.50     47.46    diag/orth

 Final occupancy:  14

 !RHF STATE 1.1 Energy               -171.322653868695
  RHF One-electron energy            -395.873027037699
  RHF Two-electron energy             142.671931268126
  RHF Kinetic energy                  171.104338107978
  RHF Nuclear energy                   81.878441900878
  RHF Virial quotient                  -1.001275921833

 !RHF STATE 1.1 Dipole moment          -0.97306863    -0.69848050    -0.41862995
 Dipole moment /Debye                  -2.47329376    -1.77536035    -1.06405120

 Orbital energies:

           1.1          2.1          3.1          4.1          5.1          6.1          7.1          8.1          9.1         10.1
    -20.525106   -15.560895   -11.249552    -1.312234    -1.190814    -0.909303    -0.684682    -0.680184    -0.615486    -0.569160

          11.1         12.1         13.1         14.1         15.1         16.1
     -0.550475    -0.528624    -0.471324    -0.416725     0.024572     0.038782


 HOMO     14.1    -0.416725 =     -11.3397eV
 LUMO     15.1     0.024572 =       0.6686eV
 LUMO-HOMO         0.441297 =      12.0083eV

 Orbitals saved in record  2100.2


 **********************************************************************************************************************************
 DATASETS  * FILE   NREC   LENGTH (MB)   RECORD NAMES
              1      19     4107.83       500      610      700      900      950      970     1000      129      960     1100   
                                          VAR    BASINP    GEOM    SYMINP    ZMAT    AOBASIS   BASIS     P2S    ABASIS      S 
                                         1400     1410     1200     1210     1080     1600     1650     1300     1700   
                                           T        V       H0       H01     AOSYM     SMH    MOLCAS    ERIS     OPER   

              2       4        1.94       700     1000      520     2100   
                                         GEOM     BASIS   MCVARS     RHF  

 PROGRAMS   *        TOTAL    HF-SCF       INT
 CPU TIMES  *        79.76     47.46     32.19
 REAL TIME  *       142.56 SEC
 DISK USED  *        15.08 GB
 **********************************************************************************************************************************


 Program * Restricted Hartree-Fock

 Molecular orbitals read from record     2100.2  Type=RHF/CANONICAL  

 Initial occupancy:  14

 NELEC=   28   SYM=1   MS2= 0   THRE=1.0D-08   THRD=3.2D-06   THRG=3.2D-06  HFMA2=F  DIIS_START=2   DIIS_MAX=10   DIIS_INCORE=F

 Level shifts:    0.00 (CLOSED)    0.00 (OPEN)    0.30 (GAP_MIN)

 ITER           ETOT              DE          GRAD        DDIFF     DIIS  NEXP   TIME(IT)  TIME(TOT)  DIAG
   1     -171.32265387    -171.32265387     0.00D+00     0.36D-01     0     0       4.37      4.37    start
   2     -171.32265387      -0.00000000     0.67D-07     0.76D-07     1     0       4.52      8.89    diag

 Final occupancy:  14

 !RHF STATE 1.1 Energy               -171.322653868731
  RHF One-electron energy            -395.873051118502
  RHF Two-electron energy             142.671955348893
  RHF Kinetic energy                  171.104354100454
  RHF Nuclear energy                   81.878441900878
  RHF Virial quotient                  -1.001275828248

 !RHF STATE 1.1 Dipole moment          -0.97306610    -0.69848104    -0.41863124
 Dipole moment /Debye                  -2.47328732    -1.77536173    -1.06405448

 Orbital energies:

           1.1          2.1          3.1          4.1          5.1          6.1          7.1          8.1          9.1         10.1
    -20.525109   -15.560894   -11.249559    -1.312235    -1.190814    -0.909305    -0.684682    -0.680184    -0.615487    -0.569161

          11.1         12.1         13.1         14.1         15.1         16.1
     -0.550476    -0.528625    -0.471326    -0.416726     0.024572     0.038782


 HOMO     14.1    -0.416726 =     -11.3397eV
 LUMO     15.1     0.024572 =       0.6686eV
 LUMO-HOMO         0.441298 =      12.0083eV

 Orbitals saved in record  2101.2


 **********************************************************************************************************************************
 DATASETS  * FILE   NREC   LENGTH (MB)   RECORD NAMES
              1      19     4107.83       500      610      700      900      950      970     1000      129      960     1100   
                                          VAR    BASINP    GEOM    SYMINP    ZMAT    AOBASIS   BASIS     P2S    ABASIS      S 
                                         1400     1410     1200     1210     1080     1600     1650     1300     1700   
                                           T        V       H0       H01     AOSYM     SMH    MOLCAS    ERIS     OPER   

              2       5        4.43       700     1000      520     2100     2101   
                                         GEOM     BASIS   MCVARS     RHF      RHF  

 PROGRAMS   *        TOTAL    HF-SCF    HF-SCF       INT
 CPU TIMES  *        88.66      8.90     47.46     32.19
 REAL TIME  *       153.85 SEC
 DISK USED  *        15.08 GB
 **********************************************************************************************************************************


 PROGRAM * PAPT (Closed-shell)     Authors: C. Hampel, H.-J. Werner, 1991, P.J. Knowles, 2021


 Convergence thresholds:  THRVAR = 1.00D-08  THRDEN = 1.00D-06

 Number of core orbitals:           3 (   3 )
 Number of closed-shell orbitals:  11 (  11 )
 Number of external orbitals:     285 ( 285 )

 Molecular orbitals read from record     2101.2  Type=RHF/CANONICAL  

 Number of N-1 electron functions:              11
 Number of N-2 electron functions:              66
 Number of singly external CSFs:              3135
 Number of doubly external CSFs:           4915680
 Total number of CSFs:                     4918816

 Length of J-op  integral file:               0.00 MB
 Length of K-op  integral file:               6.20 MB

 Integral transformation finished. Total CPU:   8.43 sec, npass=  1  Memory used:  11.78 MW

 Reference energy:                   -171.32265387

                        CORR.ENERGY   TOTAL ENERGY   ENERGY CHANGE
 MP2:                   -0.68580938  -172.00846325    -0.68580938

 SCS-MP2 correlation energy:           -0.68625526   (PS=  1.200000  PT=  0.333333)
 SCS-MP2 total energy:               -172.00890913
 Iteration:   1     0.2160D+00
 Iteration:   2     0.2439D+00
 Iteration:   3     0.9580D-01
 Iteration:   4     0.9397D-01
 Iteration:   5     0.1335D+01
 Iteration:   6     0.1154D+00
 Iteration:   7     0.1189D+00
 Iteration:   8     0.2763D+00
 Iteration:   9     0.3337D-01
 Iteration:  10     0.9182D-01
 Iteration:  11     0.1580D-01
 Iteration:  12     0.2131D-01
 Iteration:  13     0.1076D-01
 Iteration:  14     0.5590D-02
 Iteration:  15     0.1275D-01
 Iteration:  16     0.2338D-02
 Iteration:  17     0.2732D-01
 Iteration:  18     0.7125D-03
 Iteration:  19     0.6440D-03
 Iteration:  20     0.7550D-03
 Iteration:  21     0.2141D-03
 Iteration:  22     0.1498D-02
 Iteration:  23     0.1156D-03
 Iteration:  24     0.1229D-03
 Iteration:  25     0.1035D-03
 Iteration:  26     0.2826D-04
 PAPT operator written to  7000.1
 PAPT orbitals and eigenvalues written to  7000.2

 MP3(D):                -0.70890500  -172.03155887    -0.02309562



 RESULTS
 =======

  Reference energy                   -171.322653868731
  MP3 singlet pair energy              -0.487355414481
  MP3 triplet pair energy              -0.221549586514
  MP3 correlation energy               -0.708905000995

 !MP3 total energy                   -172.031558869726

 Timing summary (sec):

 STEP                 CPU(USER)    SYS     CPU(TOT)    WALL
 Transformation          8.73      1.22      9.95     10.86
 CCSD iterations       121.83      1.92    123.75     39.77

 Program statistics:

 Available memory in ccsd:               805305870
 Min. memory needed in ccsd:              12971303
 Max. memory used in ccsd:                17351877
 Max. memory used in cckext:              12544676 ( 1 integral passes)



 **********************************************************************************************************************************
 DATASETS  * FILE   NREC   LENGTH (MB)   RECORD NAMES
              1      21     4177.14       500      610      700      900      950      970     1000      129      960     1100   
                                          VAR    BASINP    GEOM    SYMINP    ZMAT    AOBASIS   BASIS     P2S    ABASIS      S 
                                         1400     1410     1200     1210     1080     1600     1650     1300     1700     1380   
                                           T        V       H0       H01     AOSYM     SMH    MOLCAS    ERIS     OPER     JKOP   
                                         7000   
                                        PAPT AO    

              2       6        6.58       700     1000      520     2100     2101     7000   
                                         GEOM     BASIS   MCVARS     RHF      RHF     PAPT   

 PROGRAMS   *        TOTAL      PAPT    HF-SCF    HF-SCF       INT
 CPU TIMES  *       130.46     41.80      8.90     47.46     32.19
 REAL TIME  *       204.85 SEC
 DISK USED  *        15.08 GB
 **********************************************************************************************************************************


 PROGRAM * MP2 (Closed-shell)     Authors: C. Hampel, H.-J. Werner, 1991, M. Deegan, P.J. Knowles, 1992


 Convergence thresholds:  THRVAR = 1.00D-08  THRDEN = 1.00D-06

 Number of core orbitals:           3 (   3 )
 Number of closed-shell orbitals:  11 (  11 )
 Number of external orbitals:     285 ( 285 )

 Molecular orbitals read from record     7000.2  Type=PAPT/CANONICAL (state 1.1)

 Number of N-1 electron functions:              11
 Number of N-2 electron functions:              66
 Number of singly external CSFs:              3135
 Number of doubly external CSFs:           4915680
 Total number of CSFs:                     4918816

 Length of J-op  integral file:               0.00 MB
 Length of K-op  integral file:               6.20 MB

 Integral transformation finished. Total CPU:   8.15 sec, npass=  1  Memory used:  11.78 MW
 Orbital energies read from record       7000.2  Type=PAPT/CANONICAL (state 1.1)

 Memory needed for MP2:                      0.44 MW

 SCS-MP2 correlation energy:           -0.718537017991   (PS=  1.200000  PT=  0.333333)
 SCS-MP2 total energy:               -172.041190886722


  Reference energy                   -171.322653868731
  MP2 singlet pair energy              -0.473198435930
  MP2 triplet pair energy              -0.242194652477
  MP2 correlation energy               -0.715393088407

 !MP2 total energy                   -172.038046957138


 **********************************************************************************************************************************
 DATASETS  * FILE   NREC   LENGTH (MB)   RECORD NAMES
              1      21     4177.14       500      610      700      900      950      970     1000      129      960     1100   
                                          VAR    BASINP    GEOM    SYMINP    ZMAT    AOBASIS   BASIS     P2S    ABASIS      S 
                                         1400     1410     1200     1210     1080     1600     1650     1300     1700     1380   
                                           T        V       H0       H01     AOSYM     SMH    MOLCAS    ERIS     OPER     JKOP   
                                         7000   
                                        PAPT AO    

              2       6        6.58       700     1000      520     2100     2101     7000   
                                         GEOM     BASIS   MCVARS     RHF      RHF     PAPT   

 PROGRAMS   *        TOTAL       MP2      PAPT    HF-SCF    HF-SCF       INT
 CPU TIMES  *       143.44     12.97     41.80      8.90     47.46     32.19
 REAL TIME  *       221.59 SEC
 DISK USED  *        15.08 GB
 **********************************************************************************************************************************

 Dump information in style XML to xml output                                                                      

 Orbitals will not be exported.

 **********************************************************************************************************************************

 MP2/aug-cc-pVTZ energy=   -172.038046957138

             MP2            PAPT          HF-SCF          HF-SCF
   -172.03804696   -172.03155887   -171.32265387   -171.32265387
 **********************************************************************************************************************************
 Molpro calculation terminated
