
 Working directory              : /var/folders/2v/xbgp75_9785319ghcgb4zr4r0000gp/T//molpro.1u3oOKFeTU/
 Global scratch directory       : /var/folders/2v/xbgp75_9785319ghcgb4zr4r0000gp/T//molpro.1u3oOKFeTU/
 Wavefunction directory         : /Users/sacpjk/wfu/
 Main file repository           : /var/folders/2v/xbgp75_9785319ghcgb4zr4r0000gp/T//molpro.1u3oOKFeTU/

 id        : peterk

 Nodes                        nprocs
 Cardiff-University-G34YLXT77Y    1
 GA implementation: MPI file
 GA implementation (serial work in mppx): MPI file

 Using customized tuning parameters: mindgm=1; mindgv=20; mindgc=4; mindgr=1; noblas=0; minvec=7
 default implementation of scratch files=df  


 Variables initialized (1032), CPU time= 0.00 sec
 
 symmetry,nosym
 
 
 geometry={
           13
     O          1.80918288     -1.48197632     -0.13563937
     P          1.64426933      0.11003422     -0.02161273
     O          2.62578344      0.89602816     -0.77013022
     O          0.11515077      0.34531982     -0.62604247
     P         -1.28269265      0.12043285      0.12727966
     O         -1.13992226      0.08855444      1.59898901
     O         -2.22040995      1.24159820     -0.50834791
     O         -1.92869837     -1.20324705     -0.45237675
     O          1.48219368      0.38322654      1.51502256
     H          2.40822260     -1.70928404     -0.86653892
     H         -1.95592225      2.14725276     -0.27254575
     H         -2.09204168     -1.18205223     -1.41071749
     H          0.53488444      0.24411265      1.82266037
 }
 basis=cc-pVDZ
 
 
 
 hf; hf; papt; mp4
 
 
 
 {put,xml;noorbitals,nobasis}
 Commands initialized (841), CPU time= 0.01 sec, 704 directives.
 Default parameters read. Elapsed time= 0.40 sec

 Checking input...
 Passed
1


                                         ***  PROGRAM SYSTEM MOLPRO  ***
                                       Copyright, TTI GmbH Stuttgart, 2015
                                    Version 2023.1 linked Tue Jun  6 09:54:11 2023


 **********************************************************************************************************************************
 LABEL *                                                                                                                                                                 
  64 bit serial version                                                                  DATE: 13-Jun-23          TIME: 07:25:07  
 **********************************************************************************************************************************

 SHA1:             8ebb0dd001088a5c915591db1a321413035db0b1
 **********************************************************************************************************************************

 Memory per process:       393 MW
 Total memory per node:    524 MW
 Total GA space:           131 MW

 GA preallocation disabled
 GA check enabled

 Variable memory set to 393.2 MW

 ZSYMEL=NOSYM


 Geometry recognized as XYZ

 SETTING BASIS          =    CC-PVDZ


 Recomputing integrals since basis changed


 Using spherical harmonics

 Library entry O      S cc-pVDZ              selected for orbital group  1
 Library entry O      P cc-pVDZ              selected for orbital group  1
 Library entry O      D cc-pVDZ              selected for orbital group  1
 Library entry P      S cc-pVDZ              selected for orbital group  2
 Library entry P      P cc-pVDZ              selected for orbital group  2
 Library entry P      D cc-pVDZ              selected for orbital group  2
 Library entry H      S cc-pVDZ              selected for orbital group  6
 Library entry H      P cc-pVDZ              selected for orbital group  6


 PROGRAM * SEWARD (Integral evaluation for generally contracted gaussian basis sets)     Author: Roland Lindh, 1990

 Geometry written to block  1 of record 700


 Point group  C1  



 ATOMIC COORDINATES

 NR  ATOM    CHARGE       X              Y              Z

   1  O       8.00    3.418860153   -2.800529368   -0.256321261
   2  P      15.00    3.107218709    0.207934540   -0.040842141
   3  O       8.00    4.962011564    1.693247822   -1.455335196
   4  O       8.00    0.217603418    0.652559885   -1.183048811
   5  P      15.00   -2.423937811    0.227585103    0.240523699
   6  O       8.00   -2.154140875    0.167343639    3.021651305
   7  O       8.00   -4.195966690    2.346280555   -0.960638326
   8  O       8.00   -3.644711696   -2.273807385   -0.854868163
   9  O       8.00    2.800940119    0.724193204    2.862977711
  10  H       1.00    4.550881161   -3.230078705   -1.637521235
  11  H       1.00   -3.696157374    4.057719637   -0.515036824
  12  H       1.00   -3.953385817   -2.233754980   -2.665869695
  13  H       1.00    1.010785100    0.461306052    3.444328918

 Bond lengths in Bohr (Angstrom)

  1- 2  3.032228014   1-10  1.836762795   2- 3  2.765357606   2- 4  3.138822120   2- 5  5.538343193
       ( 1.604585963)       ( 0.971973013)       ( 1.463364225)       ( 1.660993135)       ( 2.930765004)

 2-9  2.965214885  4-5  3.030660377  5-6  2.794832765  5-7  3.011934092  5-8  2.991176455
     ( 1.569124142)     ( 1.603756405)     ( 1.478961808)     ( 1.593846882)     ( 1.582862414)

  7-11  1.837768697   8-12  1.837555566   9-13  1.900456227
       ( 0.972505313)       ( 0.972392529)       ( 1.005678126)

 Bond angles

  1-2-3  115.31669222   1-2-4  102.08135034   1-2-5   96.30226133   1-2-9  104.65202332

  2- 1-10  110.41450845   2- 4- 5  127.70604244   2- 5- 4   26.64008509   2- 5- 6   87.36740501

  2- 5- 7  124.73683139   2- 5- 8  112.70731037   2- 9-13  111.88711401   3- 2- 4  110.80896956

  3-2-5  133.94236567   3-2-9  118.46872697   4-2-5   25.65387247   4-2-9  103.68652937

  4-5-6  112.72464706   4-5-7  103.11061433   4-5-8  107.51599394   5-2-9   81.16870440

  5- 7-11  113.47664849   5- 8-12  114.28309143   6- 5- 7  117.95656176   6- 5- 8  112.69246755

  7-5-8  101.65936328

 NUCLEAR CHARGE:                   90
 NUMBER OF PRIMITIVE AOS:         301
 NUMBER OF SYMMETRY AOS:          292
 NUMBER OF CONTRACTIONS:          154   (  154A   )
 NUMBER OF INNER CORE ORBITALS:     2   (    2A   )
 NUMBER OF OUTER CORE ORBITALS:    15   (   15A   )
 NUMBER OF VALENCE ORBITALS:       40   (   40A   )


 NUCLEAR REPULSION ENERGY  776.59521062


 Eigenvalues of metric

         1 0.569E-02 0.929E-02 0.122E-01 0.124E-01 0.135E-01 0.148E-01 0.149E-01 0.167E-01


 Contracted 2-electron integrals neglected if value below      1.0D-11
 AO integral compression algorithm  1   Integral accuracy      1.0D-11

     230.687 MB (compressed) written to integral file ( 40.0%)


 NUMBER OF SORTED TWO-ELECTRON INTEGRALS:   71228080.     BUFFER LENGTH:  32768
 NUMBER OF SEGMENTS:   5  SEGMENT LENGTH:   15999503      RECORD LENGTH: 524288

 Memory used in sort:      16.56 MW

 SORT1 READ    71937298. AND WROTE    60357703. INTEGRALS IN    175 RECORDS. CPU TIME:     0.55 SEC, REAL TIME:     0.73 SEC
 SORT2 READ    60357703. AND WROTE    71228080. INTEGRALS IN    880 RECORDS. CPU TIME:     0.57 SEC, REAL TIME:     0.69 SEC

 FILE SIZES:   FILE 1:   261.8 MBYTE,  FILE 4:   734.1 MBYTE,   TOTAL:    995.9 MBYTE

 OPERATOR DM      FOR CENTER  0  COORDINATES:    0.000000    0.000000    0.000000


 **********************************************************************************************************************************
 DATASETS  * FILE   NREC   LENGTH (MB)   RECORD NAMES
              1      19      224.53       500      610      700      900      950      970     1000      129      960     1100   
                                          VAR    BASINP    GEOM    SYMINP    ZMAT    AOBASIS   BASIS     P2S    ABASIS      S 
                                         1400     1410     1200     1210     1080     1600     1650     1300     1700   
                                           T        V       H0       H01     AOSYM     SMH    MOLCAS    ERIS     OPER   

 PROGRAMS   *        TOTAL       INT
 CPU TIMES  *         3.87      3.77
 REAL TIME  *         6.25 SEC
 DISK USED  *       950.29 MB
 **********************************************************************************************************************************


 Program * Restricted Hartree-Fock

 Orbital guess generated from atomic densities. Full valence occupancy:   57

 Initial occupancy:  45

 NELEC=   90   SYM=1   MS2= 0   THRE=1.0D-08   THRD=3.2D-06   THRG=3.2D-06  HFMA2=F  DIIS_START=2   DIIS_MAX=10   DIIS_INCORE=F

 Level shifts:    0.00 (CLOSED)    0.00 (OPEN)    0.30 (GAP_MIN)

 ITER           ETOT              DE          GRAD        DDIFF     DIIS  NEXP   TIME(IT)  TIME(TOT)  DIAG
   1    -1207.78249366   -1207.78249366     0.00D+00     0.12D+00     0     0       0.37      0.70    start
   2    -1207.96062515      -0.17813149     0.82D-02     0.25D-01     1     0       0.36      1.06    diag
   3    -1208.05160467      -0.09097952     0.50D-02     0.86D-02     2     0       0.36      1.42    diag
   4    -1208.05361331      -0.00200864     0.69D-03     0.14D-02     3     0       0.36      1.78    diag
   5    -1208.05389376      -0.00028045     0.25D-03     0.56D-03     4     0       0.36      2.14    diag
   6    -1208.05391023      -0.00001647     0.51D-04     0.12D-03     5     0       0.36      2.50    diag
   7    -1208.05391172      -0.00000149     0.11D-04     0.33D-04     6     0       0.36      2.86    diag
   8    -1208.05391181      -0.00000009     0.29D-05     0.83D-05     7     0       0.37      3.23    fixocc
   9    -1208.05391181      -0.00000001     0.86D-06     0.26D-05     8     0       0.36      3.59    diag
  10    -1208.05391182      -0.00000000     0.31D-06     0.72D-06     0     0       0.37      3.96    diag/orth

 Final occupancy:  45

 !RHF STATE 1.1 Energy              -1208.053911815266
  RHF One-electron energy           -3215.555693621058
  RHF Two-electron energy            1230.906571183567
  RHF Kinetic energy                 1207.372094666271
  RHF Nuclear energy                  776.595210622224
  RHF Virial quotient                  -1.000564711701

 !RHF STATE 1.1 Dipole moment          -1.18285285    -0.25578923    -1.21387952
 Dipole moment /Debye                  -3.00651207    -0.65015139    -3.08537398

 Orbital energies:

           1.1          2.1          3.1          4.1          5.1          6.1          7.1          8.1          9.1         10.1
    -80.183790   -80.156616   -20.645443   -20.641947   -20.641831   -20.620227   -20.603571   -20.561257   -20.526256    -7.702238

          11.1         12.1         13.1         14.1         15.1         16.1         17.1         18.1         19.1         20.1
     -7.674823    -5.600280    -5.600164    -5.599859    -5.572790    -5.572595    -5.572215    -1.509442    -1.463821    -1.421800

          21.1         22.1         23.1         24.1         25.1         26.1         27.1         28.1         29.1         30.1
     -1.409333    -1.393010    -1.350662    -1.314406    -0.922740    -0.861270    -0.798230    -0.795173    -0.762846    -0.716499

          31.1         32.1         33.1         34.1         35.1         36.1         37.1         38.1         39.1         40.1
     -0.687008    -0.670330    -0.656176    -0.636733    -0.613826    -0.601957    -0.587955    -0.585064    -0.564181    -0.557535

          41.1         42.1         43.1         44.1         45.1         46.1         47.1
     -0.537979    -0.514915    -0.507852    -0.480276    -0.474331     0.131297     0.169373


 HOMO     45.1    -0.474331 =     -12.9072eV
 LUMO     46.1     0.131297 =       3.5728eV
 LUMO-HOMO         0.605628 =      16.4800eV

 Orbitals saved in record  2100.2


 **********************************************************************************************************************************
 DATASETS  * FILE   NREC   LENGTH (MB)   RECORD NAMES
              1      19      224.53       500      610      700      900      950      970     1000      129      960     1100   
                                          VAR    BASINP    GEOM    SYMINP    ZMAT    AOBASIS   BASIS     P2S    ABASIS      S 
                                         1400     1410     1200     1210     1080     1600     1650     1300     1700   
                                           T        V       H0       H01     AOSYM     SMH    MOLCAS    ERIS     OPER   

              2       4        0.96       700     1000      520     2100   
                                         GEOM     BASIS   MCVARS     RHF  

 PROGRAMS   *        TOTAL    HF-SCF       INT
 CPU TIMES  *         7.83      3.96      3.77
 REAL TIME  *        10.95 SEC
 DISK USED  *       950.29 MB
 **********************************************************************************************************************************


 Program * Restricted Hartree-Fock

 Molecular orbitals read from record     2100.2  Type=RHF/CANONICAL  

 Initial occupancy:  45

 NELEC=   90   SYM=1   MS2= 0   THRE=1.0D-08   THRD=3.2D-06   THRG=3.2D-06  HFMA2=F  DIIS_START=2   DIIS_MAX=10   DIIS_INCORE=F

 Level shifts:    0.00 (CLOSED)    0.00 (OPEN)    0.30 (GAP_MIN)

 ITER           ETOT              DE          GRAD        DDIFF     DIIS  NEXP   TIME(IT)  TIME(TOT)  DIAG
   1    -1208.05391182   -1208.05391182     0.00D+00     0.12D+00     0     0       0.36      0.36    start
   2    -1208.05391182      -0.00000000     0.18D-06     0.41D-06     1     0       0.36      0.72    diag

 Final occupancy:  45

 !RHF STATE 1.1 Energy              -1208.053911815449
  RHF One-electron energy           -3215.555711533647
  RHF Two-electron energy            1230.906589095974
  RHF Kinetic energy                 1207.372112651721
  RHF Nuclear energy                  776.595210622224
  RHF Virial quotient                  -1.000564696796

 !RHF STATE 1.1 Dipole moment          -1.18284384    -0.25578036    -1.21386327
 Dipole moment /Debye                  -3.00648916    -0.65012884    -3.08533267

 Orbital energies:

           1.1          2.1          3.1          4.1          5.1          6.1          7.1          8.1          9.1         10.1
    -80.183790   -80.156618   -20.645452   -20.641971   -20.641819   -20.620232   -20.603567   -20.561236   -20.526262    -7.702238

          11.1         12.1         13.1         14.1         15.1         16.1         17.1         18.1         19.1         20.1
     -7.674824    -5.600281    -5.600164    -5.599860    -5.572791    -5.572597    -5.572216    -1.509442    -1.463823    -1.421805

          21.1         22.1         23.1         24.1         25.1         26.1         27.1         28.1         29.1         30.1
     -1.409333    -1.393009    -1.350656    -1.314408    -0.922740    -0.861271    -0.798234    -0.795173    -0.762846    -0.716496

          31.1         32.1         33.1         34.1         35.1         36.1         37.1         38.1         39.1         40.1
     -0.687009    -0.670332    -0.656175    -0.636736    -0.613830    -0.601956    -0.587959    -0.585063    -0.564179    -0.557536

          41.1         42.1         43.1         44.1         45.1         46.1         47.1
     -0.537980    -0.514909    -0.507847    -0.480277    -0.474333     0.131296     0.169372


 HOMO     45.1    -0.474333 =     -12.9073eV
 LUMO     46.1     0.131296 =       3.5728eV
 LUMO-HOMO         0.605630 =      16.4800eV

 Orbitals saved in record  2101.2


 **********************************************************************************************************************************
 DATASETS  * FILE   NREC   LENGTH (MB)   RECORD NAMES
              1      19      224.53       500      610      700      900      950      970     1000      129      960     1100   
                                          VAR    BASINP    GEOM    SYMINP    ZMAT    AOBASIS   BASIS     P2S    ABASIS      S 
                                         1400     1410     1200     1210     1080     1600     1650     1300     1700   
                                           T        V       H0       H01     AOSYM     SMH    MOLCAS    ERIS     OPER   

              2       5        1.70       700     1000      520     2100     2101   
                                         GEOM     BASIS   MCVARS     RHF      RHF  

 PROGRAMS   *        TOTAL    HF-SCF    HF-SCF       INT
 CPU TIMES  *         8.57      0.74      3.96      3.77
 REAL TIME  *        12.15 SEC
 DISK USED  *       950.29 MB
 **********************************************************************************************************************************


 PROGRAM * PAPT (Closed-shell)     Authors: C. Hampel, H.-J. Werner, 1991, P.J. Knowles, 2021


 Convergence thresholds:  THRVAR = 1.00D-08  THRDEN = 1.00D-06

 Number of core orbitals:          17 (  17 )
 Number of closed-shell orbitals:  28 (  28 )
 Number of external orbitals:     109 ( 109 )

 Molecular orbitals read from record     2101.2  Type=RHF/CANONICAL  

 Number of N-1 electron functions:              28
 Number of N-2 electron functions:             406
 Number of singly external CSFs:              3052
 Number of doubly external CSFs:           4658878
 Total number of CSFs:                     4661931

 Length of J-op  integral file:               0.00 MB
 Length of K-op  integral file:               1.69 MB

 Integral transformation finished. Total CPU:   2.13 sec, npass=  1  Memory used:  15.85 MW

 Reference energy:                  -1208.05391182

                        CORR.ENERGY   TOTAL ENERGY   ENERGY CHANGE
 MP2:                   -1.52459589 -1209.57850771    -1.52459589

 SCS-MP2 correlation energy:           -1.46457601   (PS=  1.200000  PT=  0.333333)
 SCS-MP2 total energy:              -1209.51848782
 Iteration:   1     0.2705D+00
 Iteration:   2     0.5158D+00
 Iteration:   3     0.1082D+00
 Iteration:   4     0.5747D-01
 Iteration:   5     0.6197D-01
 Iteration:   6     0.1151D-01
 Iteration:   7     0.1830D-01
 Iteration:   8     0.1034D-01
 Iteration:   9     0.6955D-02
 Iteration:  10     0.1928D-01
 Iteration:  11     0.3932D-02
 Iteration:  12     0.8562D-02
 Iteration:  13     0.4471D-02
 Iteration:  14     0.2528D-02
 Iteration:  15     0.3029D-01
 Iteration:  16     0.1336D-02
 Iteration:  17     0.1981D-02
 Iteration:  18     0.8384D-03
 Iteration:  19     0.4488D-03
 Iteration:  20     0.1211D-02
 Iteration:  21     0.2191D-03
 Iteration:  22     0.4044D-02
 Iteration:  23     0.1125D-03
 Iteration:  24     0.2941D-03
 Iteration:  25     0.6435D-04
 PAPT operator written to  7000.1
 PAPT orbitals and eigenvalues written to  7000.2

 MP3(D):                -1.52108930 -1209.57500111     0.00350659



 RESULTS
 =======

  Reference energy                  -1208.053911815444
  MP3 singlet pair energy              -0.954965226414
  MP3 triplet pair energy              -0.566124071806
  MP3 correlation energy               -1.521089298220

 !MP3 total energy                  -1209.575001113664

 Timing summary (sec):

 STEP                 CPU(USER)    SYS     CPU(TOT)    WALL
 Transformation          2.35      0.27      2.62      3.09
 CCSD iterations        52.19      0.73     52.92     47.40

 Program statistics:

 Available memory in ccsd:               393212819
 Min. memory needed in ccsd:              12116345
 Max. memory used in ccsd:                16279035
 Max. memory used in cckext:              19795419 ( 1 integral passes)



 **********************************************************************************************************************************
 DATASETS  * FILE   NREC   LENGTH (MB)   RECORD NAMES
              1      21      335.42       500      610      700      900      950      970     1000      129      960     1100   
                                          VAR    BASINP    GEOM    SYMINP    ZMAT    AOBASIS   BASIS     P2S    ABASIS      S 
                                         1400     1410     1200     1210     1080     1600     1650     1300     1700     1380   
                                           T        V       H0       H01     AOSYM     SMH    MOLCAS    ERIS     OPER     JKOP   
                                         7000   
                                        PAPT AO    

              2       6        2.35       700     1000      520     2100     2101     7000   
                                         GEOM     BASIS   MCVARS     RHF      RHF     PAPT   

 PROGRAMS   *        TOTAL      PAPT    HF-SCF    HF-SCF       INT
 CPU TIMES  *        54.45     45.88      0.74      3.96      3.77
 REAL TIME  *        62.99 SEC
 DISK USED  *       950.29 MB
 **********************************************************************************************************************************


 PROGRAM * MP4 (Closed-shell)     Authors: C. Hampel, H.-J. Werner, 1991, M. Deegan, P.J. Knowles, 1992


 Convergence thresholds:  THRVAR = 1.00D-08  THRDEN = 1.00D-06

 MP4(T)     terms to be evaluated (factor= 0.000)


 Number of core orbitals:          17 (  17 )
 Number of closed-shell orbitals:  28 (  28 )
 Number of external orbitals:     109 ( 109 )

 Molecular orbitals read from record     7000.2  Type=PAPT/CANONICAL (state 1.1)

 Number of N-1 electron functions:              28
 Number of N-2 electron functions:             406
 Number of singly external CSFs:              3052
 Number of doubly external CSFs:           4658878
 Total number of CSFs:                     4661931

 Length of J-op  integral file:               0.00 MB
 Length of K-op  integral file:               1.69 MB

 Memory could be reduced to 51.17 Mwords without degradation in triples

 Integral transformation finished. Total CPU:   3.21 sec, npass=  1  Memory used:  69.15 MW
 Orbital energies read from record       7000.2  Type=PAPT/CANONICAL (state 1.1)

 Reference energy:                  -1208.05391182

                        CORR.ENERGY   TOTAL ENERGY   ENERGY CHANGE
 MP2:                   -1.52838285 -1209.58229466    -1.52838285

 SCS-MP2 correlation energy:           -1.47144705   (PS=  1.200000  PT=  0.333333)
 SCS-MP2 total energy:              -1209.52535887

 MP3(D):                -1.52899901 -1209.58291082    -0.00061616
 MP4(DQ):               -1.52942910 -1209.58334092    -0.00043009
 MP4(SDQ):              -1.54373747 -1209.59764929    -0.01430837

 Norm of t1 vector:      0.10947729      S-energy:    -0.01430837      T1 diagnostic:  0.01034463

 Largest off-diagonal element in interal  block of Fock matrix:  0.80D-01
 Largest off-diagonal element in external block of Fock matrix:  0.15D+00


 Total CPU time for triples:    171.77 sec


 RESULTS
 =======

  Reference energy                  -1208.053911815445
  MP4(SDQ) singlet pair energy         -0.954477218053
  MP4(SDQ) triplet pair energy         -0.574951883508
  MP4(SDQ) correlation energy          -1.543737474257

  Triples contribution                 -0.042013713107
  Total correlation energy             -1.585751187365

  MP4(SDQ) total energy             -1209.597649289702
 !MP4(SDTQ) total energy            -1209.639663002809

 Timing summary (sec):

 STEP                 CPU(USER)    SYS     CPU(TOT)    WALL
 Transformation          3.75      0.30      4.05      4.34
 CCSD iterations        79.82      0.66     80.48     27.44
 Triples               171.77     11.54    183.31    193.97

 Program statistics:

 Available memory in ccsd:               393212819
 Min. memory needed in ccsd:              12116345
 Max. memory used in ccsd:                16279035
 Max. memory used in cckext:              19795419 ( 1 integral passes)



 **********************************************************************************************************************************
 DATASETS  * FILE   NREC   LENGTH (MB)   RECORD NAMES
              1      22      475.01       500      610      700      900      950      970     1000      129      960     1100   
                                          VAR    BASINP    GEOM    SYMINP    ZMAT    AOBASIS   BASIS     P2S    ABASIS      S 
                                         1400     1410     1200     1210     1080     1600     1650     1300     1700     1380   
                                           T        V       H0       H01     AOSYM     SMH    MOLCAS    ERIS     OPER     JKOP   
                                         7000     1380(1)
                                        PAPT AO   JKOP   

              2       6        2.35       700     1000      520     2100     2101     7000   
                                         GEOM     BASIS   MCVARS     RHF      RHF     PAPT   

 PROGRAMS   *        TOTAL       MP4      PAPT    HF-SCF    HF-SCF       INT
 CPU TIMES  *       255.26    200.81     45.88      0.74      3.96      3.77
 REAL TIME  *       289.05 SEC
 DISK USED  *       977.95 MB
 **********************************************************************************************************************************

 Dump information in style XML to xml output                                                                      

 Orbitals will not be exported.

 **********************************************************************************************************************************

 MP4/cc-pVDZ energy=  -1209.639663002809

             MP4            PAPT          HF-SCF          HF-SCF
  -1209.63966300  -1209.57500111  -1208.05391182  -1208.05391182
 **********************************************************************************************************************************
 Molpro calculation terminated
