
 Working directory              : /var/folders/2v/xbgp75_9785319ghcgb4zr4r0000gp/T//molpro.Ekhi7YYFSr/
 Global scratch directory       : /var/folders/2v/xbgp75_9785319ghcgb4zr4r0000gp/T//molpro.Ekhi7YYFSr/
 Wavefunction directory         : /Users/sacpjk/wfu/
 Main file repository           : /var/folders/2v/xbgp75_9785319ghcgb4zr4r0000gp/T//molpro.Ekhi7YYFSr/

 id        : peterk

 Nodes                        nprocs
 Cardiff-University-G34YLXT77Y    1
 GA implementation: MPI file
 GA implementation (serial work in mppx): MPI file

 Using customized tuning parameters: mindgm=1; mindgv=20; mindgc=4; mindgr=1; noblas=0; minvec=7
 default implementation of scratch files=df  


 Variables initialized (1032), CPU time= 0.00 sec
 
 symmetry,nosym
 
 
 geometry={
 6
  o         -0.425801180525    0.462763335384    0.899602451042
  h         -0.057818356287   -0.109314067566    1.577130778151
  c          0.039203890762   -0.008866580491   -0.362556658777
  h         -0.391613204424    0.642227110405   -1.115670690757
  h          1.125167577762    0.041926280159   -0.436868586914
  h         -0.289138727182   -1.028736077840   -0.561637292638
 }
 basis=aug-cc-pVDZ
 
 
 
 hf; hf; papt; mp2; counterpoise
 
 
 
 {put,xml;noorbitals,nobasis}
 Commands initialized (841), CPU time= 0.01 sec, 704 directives.
 Default parameters read. Elapsed time= 0.43 sec

 Checking input...
 Passed
1


                                         ***  PROGRAM SYSTEM MOLPRO  ***
                                       Copyright, TTI GmbH Stuttgart, 2015
                                    Version 2023.1 linked Tue Jun  6 09:54:11 2023


 **********************************************************************************************************************************
 LABEL *                                                                                                                                                                 
  64 bit serial version                                                                  DATE: 08-Jun-23          TIME: 15:42:44  
 **********************************************************************************************************************************

 SHA1:             8ebb0dd001088a5c915591db1a321413035db0b1
 **********************************************************************************************************************************

 Memory per process:       805 MW
 Total memory per node:   1074 MW
 Total GA space:           268 MW

 GA preallocation disabled
 GA check enabled

 Variable memory set to 805.3 MW

 ZSYMEL=NOSYM


 Geometry recognized as XYZ

 SETTING BASIS          =    AUG-CC-PVDZ


 Recomputing integrals since basis changed


 Using spherical harmonics

 Library entry O      S aug-cc-pVDZ          selected for orbital group  1
 Library entry O      P aug-cc-pVDZ          selected for orbital group  1
 Library entry O      D aug-cc-pVDZ          selected for orbital group  1
 Library entry H      S aug-cc-pVDZ          selected for orbital group  2
 Library entry H      P aug-cc-pVDZ          selected for orbital group  2
 Library entry C      S aug-cc-pVDZ          selected for orbital group  3
 Library entry C      P aug-cc-pVDZ          selected for orbital group  3
 Library entry C      D aug-cc-pVDZ          selected for orbital group  3


 PROGRAM * SEWARD (Integral evaluation for generally contracted gaussian basis sets)     Author: Roland Lindh, 1990

 Geometry written to block  1 of record 700


 Point group  C1  



 ATOMIC COORDINATES

 NR  ATOM    CHARGE       X              Y              Z

   1  O       8.00   -0.804647615    0.874495964    1.700002254
   2  H       1.00   -0.109260858   -0.206573649    2.980345233
   3  C       6.00    0.074084617   -0.016755409   -0.685132790
   4  H       1.00   -0.740041703    1.213633348   -2.108312051
   5  H       1.00    2.126258566    0.079229187   -0.825561982
   6  H       1.00   -0.546393006   -1.944029442   -1.061340664

 Bond lengths in Bohr (Angstrom)

 1-2  1.814263596  1-3  2.693579128  3-4  2.049901795  3-5  2.059211335  3-6  2.059346994
     ( 0.960066950)     ( 1.425380690)     ( 1.084761314)     ( 1.089687711)     ( 1.089759499)

 Bond angles

  1-3-4  106.65459098   1-3-5  111.72059385   1-3-6  111.90879544   2-1-3  107.61952492

  4-3-5  108.69153235   4-3-6  108.37480423   5-3-6  109.35579188

 NUCLEAR CHARGE:                   18
 NUMBER OF PRIMITIVE AOS:         118
 NUMBER OF SYMMETRY AOS:          114
 NUMBER OF CONTRACTIONS:           82   (   82A   )
 NUMBER OF INNER CORE ORBITALS:     0   (    0A   )
 NUMBER OF OUTER CORE ORBITALS:     2   (    2A   )
 NUMBER OF VALENCE ORBITALS:       12   (   12A   )


 NUCLEAR REPULSION ENERGY   40.29463209

 Eigenvalues of metric

         1 0.648E-03 0.790E-03 0.806E-03 0.110E-02 0.249E-02 0.437E-02 0.492E-02 0.520E-02


 Contracted 2-electron integrals neglected if value below      1.0D-11
 AO integral compression algorithm  1   Integral accuracy      1.0D-11

     32.506 MB (compressed) written to integral file ( 56.3%)


 NUMBER OF SORTED TWO-ELECTRON INTEGRALS:    5791906.     BUFFER LENGTH:  32768
 NUMBER OF SEGMENTS:   1  SEGMENT LENGTH:    5791906      RECORD LENGTH: 524288

 Memory used in sort:       6.35 MW

 SORT1 READ     7210272. AND WROTE     5721432. INTEGRALS IN     17 RECORDS. CPU TIME:     0.04 SEC, REAL TIME:     0.07 SEC
 SORT2 READ     5721432. AND WROTE     5791906. INTEGRALS IN    124 RECORDS. CPU TIME:     0.08 SEC, REAL TIME:     0.09 SEC

 FILE SIZES:   FILE 1:    62.8 MBYTE,  FILE 4:    71.4 MBYTE,   TOTAL:    134.2 MBYTE

 OPERATOR DM      FOR CENTER  0  COORDINATES:    0.000000    0.000000    0.000000


 **********************************************************************************************************************************
 DATASETS  * FILE   NREC   LENGTH (MB)   RECORD NAMES
              1      19       54.31       500      610      700      900      950      970     1000      129      960     1100   
                                          VAR    BASINP    GEOM    SYMINP    ZMAT    AOBASIS   BASIS     P2S    ABASIS      S 
                                         1400     1410     1200     1210     1080     1600     1650     1300     1700   
                                           T        V       H0       H01     AOSYM     SMH    MOLCAS    ERIS     OPER   

 PROGRAMS   *        TOTAL       INT
 CPU TIMES  *         0.49      0.38
 REAL TIME  *         1.98 SEC
 DISK USED  *       128.40 MB
 **********************************************************************************************************************************


 Program * Restricted Hartree-Fock

 Orbital guess generated from atomic densities. Full valence occupancy:   14

 Initial occupancy:   9

 NELEC=   18   SYM=1   MS2= 0   THRE=1.0D-08   THRD=3.2D-06   THRG=3.2D-06  HFMA2=F  DIIS_START=2   DIIS_MAX=10   DIIS_INCORE=F

 Level shifts:    0.00 (CLOSED)    0.00 (OPEN)    0.30 (GAP_MIN)

 ITER           ETOT              DE          GRAD        DDIFF     DIIS  NEXP   TIME(IT)  TIME(TOT)  DIAG
   1     -115.02697408    -115.02697408     0.00D+00     0.97D-01     0     0       0.03      0.05    start
   2     -115.05422175      -0.02724767     0.72D-02     0.12D-01     1     0       0.02      0.07    diag
   3     -115.06088758      -0.00666583     0.37D-02     0.38D-02     2     0       0.03      0.10    diag
   4     -115.06141161      -0.00052403     0.79D-03     0.12D-02     3     0       0.02      0.12    diag
   5     -115.06143959      -0.00002798     0.15D-03     0.28D-03     4     0       0.02      0.14    diag
   6     -115.06144081      -0.00000122     0.26D-04     0.59D-04     5     0       0.03      0.17    diag
   7     -115.06144086      -0.00000005     0.52D-05     0.12D-04     6     0       0.02      0.19    diag
   8     -115.06144086      -0.00000000     0.12D-05     0.26D-05     7     0       0.03      0.22    fixocc
   9     -115.06144086      -0.00000000     0.29D-06     0.45D-06     0     0       0.02      0.24    diag

 Final occupancy:   9

 !RHF STATE 1.1 Energy               -115.061440862011
  RHF One-electron energy            -236.720582068124
  RHF Two-electron energy              81.364509113967
  RHF Kinetic energy                  114.890554628032
  RHF Nuclear energy                   40.294632092146
  RHF Virial quotient                  -1.001487382793

 !RHF STATE 1.1 Dipole moment           0.43106366    -0.56170951    -0.12905565
 Dipole moment /Debye                   1.09565454    -1.42772317    -0.32802674

 Orbital energies:

           1.1          2.1          3.1          4.1          5.1          6.1          7.1          8.1          9.1         10.1
    -20.568401   -11.278608    -1.359721    -0.928292    -0.691082    -0.620524    -0.592510    -0.505254    -0.451404     0.034502

          11.1
      0.051737


 HOMO      9.1    -0.451404 =     -12.2833eV
 LUMO     10.1     0.034502 =       0.9388eV
 LUMO-HOMO         0.485906 =      13.2222eV

 Orbitals saved in record  2100.2


 **********************************************************************************************************************************
 DATASETS  * FILE   NREC   LENGTH (MB)   RECORD NAMES
              1      19       54.31       500      610      700      900      950      970     1000      129      960     1100   
                                          VAR    BASINP    GEOM    SYMINP    ZMAT    AOBASIS   BASIS     P2S    ABASIS      S 
                                         1400     1410     1200     1210     1080     1600     1650     1300     1700   
                                           T        V       H0       H01     AOSYM     SMH    MOLCAS    ERIS     OPER   

              2       4        0.57       700     1000      520     2100   
                                         GEOM     BASIS   MCVARS     RHF  

 PROGRAMS   *        TOTAL    HF-SCF       INT
 CPU TIMES  *         0.73      0.24      0.38
 REAL TIME  *         2.68 SEC
 DISK USED  *       128.40 MB
 **********************************************************************************************************************************


 Program * Restricted Hartree-Fock

 Molecular orbitals read from record     2100.2  Type=RHF/CANONICAL  

 Initial occupancy:   9

 NELEC=   18   SYM=1   MS2= 0   THRE=1.0D-08   THRD=3.2D-06   THRG=3.2D-06  HFMA2=F  DIIS_START=2   DIIS_MAX=10   DIIS_INCORE=F

 Level shifts:    0.00 (CLOSED)    0.00 (OPEN)    0.30 (GAP_MIN)

 ITER           ETOT              DE          GRAD        DDIFF     DIIS  NEXP   TIME(IT)  TIME(TOT)  DIAG
   1     -115.06144086    -115.06144086     0.00D+00     0.99D-01     0     0       0.02      0.02    start
   2     -115.06144086      -0.00000000     0.12D-06     0.19D-06     1     0       0.03      0.05    diag

 Final occupancy:   9

 !RHF STATE 1.1 Energy               -115.061440862030
  RHF One-electron energy            -236.720575759760
  RHF Two-electron energy              81.364502805584
  RHF Kinetic energy                  114.890552728287
  RHF Nuclear energy                   40.294632092146
  RHF Virial quotient                  -1.001487399353

 !RHF STATE 1.1 Dipole moment           0.43106396    -0.56170947    -0.12905950
 Dipole moment /Debye                   1.09565530    -1.42772306    -0.32803652

 Orbital energies:

           1.1          2.1          3.1          4.1          5.1          6.1          7.1          8.1          9.1         10.1
    -20.568401   -11.278602    -1.359720    -0.928290    -0.691080    -0.620523    -0.592509    -0.505253    -0.451403     0.034502

          11.1
      0.051737


 HOMO      9.1    -0.451403 =     -12.2833eV
 LUMO     10.1     0.034502 =       0.9388eV
 LUMO-HOMO         0.485905 =      13.2222eV

 Orbitals saved in record  2101.2


 **********************************************************************************************************************************
 DATASETS  * FILE   NREC   LENGTH (MB)   RECORD NAMES
              1      19       54.31       500      610      700      900      950      970     1000      129      960     1100   
                                          VAR    BASINP    GEOM    SYMINP    ZMAT    AOBASIS   BASIS     P2S    ABASIS      S 
                                         1400     1410     1200     1210     1080     1600     1650     1300     1700   
                                           T        V       H0       H01     AOSYM     SMH    MOLCAS    ERIS     OPER   

              2       5        0.85       700     1000      520     2100     2101   
                                         GEOM     BASIS   MCVARS     RHF      RHF  

 PROGRAMS   *        TOTAL    HF-SCF    HF-SCF       INT
 CPU TIMES  *         0.79      0.06      0.24      0.38
 REAL TIME  *         2.99 SEC
 DISK USED  *       128.40 MB
 **********************************************************************************************************************************


 PROGRAM * PAPT (Closed-shell)     Authors: C. Hampel, H.-J. Werner, 1991, P.J. Knowles, 2021


 Convergence thresholds:  THRVAR = 1.00D-08  THRDEN = 1.00D-06

 Number of core orbitals:           2 (   2 )
 Number of closed-shell orbitals:   7 (   7 )
 Number of external orbitals:      73 (  73 )

 Molecular orbitals read from record     2101.2  Type=RHF/CANONICAL  

 Number of N-1 electron functions:               7
 Number of N-2 electron functions:              28
 Number of singly external CSFs:               511
 Number of doubly external CSFs:            130816
 Total number of CSFs:                      131328

 Length of J-op  integral file:               0.00 MB
 Length of K-op  integral file:               0.52 MB

 Integral transformation finished. Total CPU:   0.06 sec, npass=  1  Memory used:   0.49 MW

 Reference energy:                   -115.06144086

                        CORR.ENERGY   TOTAL ENERGY   ENERGY CHANGE
 MP2:                   -0.36005127  -115.42149213    -0.36005127

 SCS-MP2 correlation energy:           -0.35754203   (PS=  1.200000  PT=  0.333333)
 SCS-MP2 total energy:               -115.41898289
 Iteration:   1     0.2088D+00
 Iteration:   2     0.3377D+00
 Iteration:   3     0.8049D-01
 Iteration:   4     0.3637D-01
 Iteration:   5     0.3923D+00
 Iteration:   6     0.1527D-01
 Iteration:   7     0.2084D-01
 Iteration:   8     0.8333D-02
 Iteration:   9     0.2977D-02
 Iteration:  10     0.9269D-02
 Iteration:  11     0.1225D-02
 Iteration:  12     0.1405D-02
 Iteration:  13     0.8266D-03
 Iteration:  14     0.5638D-03
 Iteration:  15     0.5549D-03
 Iteration:  16     0.1179D-03
 Iteration:  17     0.2182D-03
 Iteration:  18     0.4557D-04
 PAPT operator written to  7000.1
 PAPT orbitals and eigenvalues written to  7000.2

 MP3(D):                -0.37795174  -115.43939261    -0.01790048



 RESULTS
 =======

  Reference energy                   -115.061440862030
  MP3 singlet pair energy              -0.257336469971
  MP3 triplet pair energy              -0.120615273344
  MP3 correlation energy               -0.377951743314

 !MP3 total energy                   -115.439392605345

 Timing summary (sec):

 STEP                 CPU(USER)    SYS     CPU(TOT)    WALL
 Transformation          0.06      0.01      0.07      0.14
 CCSD iterations         1.32      0.06      1.38      1.16

 Program statistics:

 Available memory in ccsd:               805306163
 Min. memory needed in ccsd:                438437
 Max. memory used in ccsd:                  541092
 Max. memory used in cckext:                448927 ( 1 integral passes)



 **********************************************************************************************************************************
 DATASETS  * FILE   NREC   LENGTH (MB)   RECORD NAMES
              1      21       56.61       500      610      700      900      950      970     1000      129      960     1100   
                                          VAR    BASINP    GEOM    SYMINP    ZMAT    AOBASIS   BASIS     P2S    ABASIS      S 
                                         1400     1410     1200     1210     1080     1600     1650     1300     1700     1380   
                                           T        V       H0       H01     AOSYM     SMH    MOLCAS    ERIS     OPER     JKOP   
                                         7000   
                                        PAPT AO    

              2       6        1.10       700     1000      520     2100     2101     7000   
                                         GEOM     BASIS   MCVARS     RHF      RHF     PAPT   

 PROGRAMS   *        TOTAL      PAPT    HF-SCF    HF-SCF       INT
 CPU TIMES  *         1.28      0.49      0.06      0.24      0.38
 REAL TIME  *         4.40 SEC
 DISK USED  *       128.40 MB
 **********************************************************************************************************************************


 PROGRAM * MP2 (Closed-shell)     Authors: C. Hampel, H.-J. Werner, 1991, M. Deegan, P.J. Knowles, 1992


 Convergence thresholds:  THRVAR = 1.00D-08  THRDEN = 1.00D-06

 Number of core orbitals:           2 (   2 )
 Number of closed-shell orbitals:   7 (   7 )
 Number of external orbitals:      73 (  73 )

 Molecular orbitals read from record     7000.2  Type=PAPT/CANONICAL (state 1.1)

 Number of N-1 electron functions:               7
 Number of N-2 electron functions:              28
 Number of singly external CSFs:               511
 Number of doubly external CSFs:            130816
 Total number of CSFs:                      131328

 Length of J-op  integral file:               0.00 MB
 Length of K-op  integral file:               0.52 MB

 Integral transformation finished. Total CPU:   0.05 sec, npass=  1  Memory used:   0.49 MW
 Orbital energies read from record       7000.2  Type=PAPT/CANONICAL (state 1.1)

 Memory needed for MP2:                      0.03 MW

 SCS-MP2 correlation energy:           -0.381980641489   (PS=  1.200000  PT=  0.333333)
 SCS-MP2 total energy:               -115.443421503519


  Reference energy                   -115.061440862030
  MP2 singlet pair energy              -0.249332834117
  MP2 triplet pair energy              -0.133041279452
  MP2 correlation energy               -0.382374113570

 !MP2 total energy                   -115.443814975600


 **********************************************************************************************************************************
 DATASETS  * FILE   NREC   LENGTH (MB)   RECORD NAMES
              1      21       56.61       500      610      700      900      950      970     1000      129      960     1100   
                                          VAR    BASINP    GEOM    SYMINP    ZMAT    AOBASIS   BASIS     P2S    ABASIS      S 
                                         1400     1410     1200     1210     1080     1600     1650     1300     1700     1380   
                                           T        V       H0       H01     AOSYM     SMH    MOLCAS    ERIS     OPER     JKOP   
                                         7000   
                                        PAPT AO    

              2       6        1.10       700     1000      520     2100     2101     7000   
                                         GEOM     BASIS   MCVARS     RHF      RHF     PAPT   

 PROGRAMS   *        TOTAL       MP2      PAPT    HF-SCF    HF-SCF       INT
 CPU TIMES  *         1.39      0.11      0.49      0.06      0.24      0.38
 REAL TIME  *         4.85 SEC
 DISK USED  *       128.40 MB
 **********************************************************************************************************************************

 Counterpoise: absolute minimum monomer separation=    -1.000 Bragg radius scale factor=     1.400 Number of monomers= 1
 Counterpoise skipped because only a single monomer


 **********************************************************************************************************************************
 DATASETS  * FILE   NREC   LENGTH (MB)   RECORD NAMES
              1      21       56.61       500      610      700      900      950      970     1000      129      960     1100   
                                          VAR    BASINP    GEOM    SYMINP    ZMAT    AOBASIS   BASIS     P2S    ABASIS      S 
                                         1400     1410     1200     1210     1080     1600     1650     1300     1700     1380   
                                           T        V       H0       H01     AOSYM     SMH    MOLCAS    ERIS     OPER     JKOP   
                                         7000   
                                        PAPT AO    

              2       6        1.10       700     1000      520     2100     2101     7000   
                                         GEOM     BASIS   MCVARS     RHF      RHF     PAPT   

 PROGRAMS   *        TOTALCOUNTERPOI       MP2      PAPT    HF-SCF    HF-SCF       INT
 CPU TIMES  *         1.39      0.00      0.11      0.49      0.06      0.24      0.38
 REAL TIME  *         4.87 SEC
 DISK USED  *       128.40 MB
 **********************************************************************************************************************************

 Dump information in style XML to xml output                                                                      

 Orbitals will not be exported.

 **********************************************************************************************************************************

 MP2/aug-cc-pVDZ energy=   -115.443814975600

             MP2            PAPT          HF-SCF          HF-SCF
   -115.44381498   -115.43939261   -115.06144086   -115.06144086
 **********************************************************************************************************************************
 Molpro calculation terminated
