
 Working directory              : /var/folders/2v/xbgp75_9785319ghcgb4zr4r0000gp/T//molpro.QiKOlwnzUQ/
 Global scratch directory       : /var/folders/2v/xbgp75_9785319ghcgb4zr4r0000gp/T//molpro.QiKOlwnzUQ/
 Wavefunction directory         : /Users/sacpjk/wfu/
 Main file repository           : /var/folders/2v/xbgp75_9785319ghcgb4zr4r0000gp/T//molpro.QiKOlwnzUQ/

 id        : peterk

 Nodes                        nprocs
 Cardiff-University-G34YLXT77Y    1
 GA implementation: MPI file
 GA implementation (serial work in mppx): MPI file

 Using customized tuning parameters: mindgm=1; mindgv=20; mindgc=4; mindgr=1; noblas=0; minvec=7
 default implementation of scratch files=df  


 Variables initialized (1032), CPU time= 0.01 sec
 
 symmetry,nosym
 
 
 geometry={
 3
  o         -0.213240598816   -0.333786074695    0.000000000000
  h         -0.533238694338    0.569303957209    0.000000000000
  h          0.746479293206   -0.235517882461    0.000000000000
 }
 basis=aug-cc-pVTZ
 
 
 
 hf; ccsd(t)
 
 
 
 {put,xml;noorbitals,nobasis}
 Commands initialized (841), CPU time= 0.00 sec, 704 directives.
 Default parameters read. Elapsed time= 1.53 sec

 Checking input...
 Passed
1


                                         ***  PROGRAM SYSTEM MOLPRO  ***
                                       Copyright, TTI GmbH Stuttgart, 2015
                                    Version 2023.1 linked Tue Jun  6 09:54:11 2023


 **********************************************************************************************************************************
 LABEL *                                                                                                                                                                 
  64 bit serial version                                                                  DATE: 09-Jun-23          TIME: 02:34:39  
 **********************************************************************************************************************************

 SHA1:             8ebb0dd001088a5c915591db1a321413035db0b1
 **********************************************************************************************************************************

 Memory per process:       805 MW
 Total memory per node:   1074 MW
 Total GA space:           268 MW

 GA preallocation disabled
 GA check enabled

 Variable memory set to 805.3 MW

 ZSYMEL=NOSYM


 Geometry recognized as XYZ

 SETTING BASIS          =    AUG-CC-PVTZ


 Recomputing integrals since basis changed


 Using spherical harmonics

 Library entry O      S aug-cc-pVTZ          selected for orbital group  1
 Library entry O      P aug-cc-pVTZ          selected for orbital group  1
 Library entry O      D aug-cc-pVTZ          selected for orbital group  1
 Library entry O      F aug-cc-pVTZ          selected for orbital group  1
 Library entry H      S aug-cc-pVTZ          selected for orbital group  2
 Library entry H      P aug-cc-pVTZ          selected for orbital group  2
 Library entry H      D aug-cc-pVTZ          selected for orbital group  2


 PROGRAM * SEWARD (Integral evaluation for generally contracted gaussian basis sets)     Author: Roland Lindh, 1990

 Geometry written to block  1 of record 700


 Point group  C1  



 ATOMIC COORDINATES

 NR  ATOM    CHARGE       X              Y              Z

   1  O       8.00   -0.402966330   -0.630764265    0.000000000
   2  H       1.00   -1.007675091    1.075828561    0.000000000
   3  H       1.00    1.410641422   -0.445064295    0.000000000

 Bond lengths in Bohr (Angstrom)

 1-2  1.810561173  1-3  1.823090112
     ( 0.958107712)     ( 0.964737741)

 Bond angles

  2-1-3  103.66482511

 NUCLEAR CHARGE:                   10
 NUMBER OF PRIMITIVE AOS:         121
 NUMBER OF SYMMETRY AOS:          108
 NUMBER OF CONTRACTIONS:           92   (   92A   )
 NUMBER OF INNER CORE ORBITALS:     0   (    0A   )
 NUMBER OF OUTER CORE ORBITALS:     1   (    1A   )
 NUMBER OF VALENCE ORBITALS:        6   (    6A   )


 NUCLEAR REPULSION ENERGY    9.15671413

 EXTRA SYMMETRY OF AOS IN SYMMETRY 1:   1 1 1 1 1 1 1 2 1 1   2 1 1 2 1 1 2 1 1 2   1 2 1 1 2 1 2 1 1 2   1 2 1 1 2 1 2 1 2 1
                                        1 2 1 2 1 2 1 1 1 1   1 1 2 1 1 2 1 1 2 1   1 2 1 2 1 1 2 1 2 1   1 1 1 1 1 2 1 1 2 1
                                        1 2 1 1 2 1 2 1 1 2   1 2

 Eigenvalues of metric

         1 0.387E-03 0.400E-03 0.167E-02 0.187E-02 0.325E-02 0.511E-02 0.565E-02 0.602E-02


 Contracted 2-electron integrals neglected if value below      1.0D-11
 AO integral compression algorithm  1   Integral accuracy      1.0D-11

     28.574 MB (compressed) written to integral file ( 30.0%)


 NUMBER OF SORTED TWO-ELECTRON INTEGRALS:    9152781.     BUFFER LENGTH:  32768
 NUMBER OF SEGMENTS:   1  SEGMENT LENGTH:    9152781      RECORD LENGTH: 524288

 Memory used in sort:       9.71 MW

 SORT1 READ    11938930. AND WROTE     4389803. INTEGRALS IN     13 RECORDS. CPU TIME:     0.06 SEC, REAL TIME:     0.09 SEC
 SORT2 READ     4389803. AND WROTE     9152781. INTEGRALS IN    109 RECORDS. CPU TIME:     0.09 SEC, REAL TIME:     0.11 SEC

 FILE SIZES:   FILE 1:    58.9 MBYTE,  FILE 4:    54.6 MBYTE,   TOTAL:    113.5 MBYTE

 OPERATOR DM      FOR CENTER  0  COORDINATES:    0.000000    0.000000    0.000000


 **********************************************************************************************************************************
 DATASETS  * FILE   NREC   LENGTH (MB)   RECORD NAMES
              1      19       49.45       500      610      700      900      950      970     1000      129      960     1100   
                                          VAR    BASINP    GEOM    SYMINP    ZMAT    AOBASIS   BASIS     P2S    ABASIS      S 
                                         1400     1410     1200     1210     1080     1600     1650     1300     1700   
                                           T        V       H0       H01     AOSYM     SMH    MOLCAS    ERIS     OPER   

 PROGRAMS   *        TOTAL       INT
 CPU TIMES  *         0.52      0.43
 REAL TIME  *         9.44 SEC
 DISK USED  *       108.61 MB
 **********************************************************************************************************************************


 Program * Restricted Hartree-Fock

 Orbital guess generated from atomic densities. Full valence occupancy:    7

 Initial occupancy:   5

 NELEC=   10   SYM=1   MS2= 0   THRE=1.0D-08   THRD=3.2D-06   THRG=3.2D-06  HFMA2=F  DIIS_START=2   DIIS_MAX=10   DIIS_INCORE=F

 Level shifts:    0.00 (CLOSED)    0.00 (OPEN)    0.30 (GAP_MIN)

 ITER           ETOT              DE          GRAD        DDIFF     DIIS  NEXP   TIME(IT)  TIME(TOT)  DIAG
   1      -76.02222554     -76.02222554     0.00D+00     0.66D-01     0     0       0.04      0.08    start
   2      -76.04906205      -0.02683650     0.10D-01     0.11D-01     1     0       0.04      0.12    diag
   3      -76.06001443      -0.01095238     0.65D-02     0.39D-02     2     0       0.04      0.16    diag
   4      -76.06019702      -0.00018259     0.60D-03     0.51D-03     3     0       0.04      0.20    diag
   5      -76.06021515      -0.00001813     0.16D-03     0.15D-03     4     0       0.04      0.24    diag
   6      -76.06021619      -0.00000104     0.31D-04     0.37D-04     5     0       0.04      0.28    diag
   7      -76.06021624      -0.00000005     0.59D-05     0.99D-05     6     0       0.04      0.32    diag
   8      -76.06021624      -0.00000000     0.11D-05     0.17D-05     7     0       0.04      0.36    fixocc
   9      -76.06021624      -0.00000000     0.13D-06     0.13D-06     0     0       0.04      0.40    diag

 Final occupancy:   5

 !RHF STATE 1.1 Energy                -76.060216238243
  RHF One-electron energy            -122.973157873074
  RHF Two-electron energy              37.756227502118
  RHF Kinetic energy                   75.943753144891
  RHF Nuclear energy                    9.156714132713
  RHF Virial quotient                  -1.001533544084

 !RHF STATE 1.1 Dipole moment           0.42261584     0.66371711    -0.00000000
 Dipole moment /Debye                   1.07418233     1.68700062    -0.00000000

 Orbital energies:

           1.1          2.1          3.1          4.1          5.1          6.1          7.1
    -20.568300    -1.352068    -0.713909    -0.585804    -0.510267     0.029336     0.047721


 HOMO      5.1    -0.510267 =     -13.8851eV
 LUMO      6.1     0.029336 =       0.7983eV
 LUMO-HOMO         0.539603 =      14.6834eV

 Orbitals saved in record  2100.2


 **********************************************************************************************************************************
 DATASETS  * FILE   NREC   LENGTH (MB)   RECORD NAMES
              1      19       49.45       500      610      700      900      950      970     1000      129      960     1100   
                                          VAR    BASINP    GEOM    SYMINP    ZMAT    AOBASIS   BASIS     P2S    ABASIS      S 
                                         1400     1410     1200     1210     1080     1600     1650     1300     1700   
                                           T        V       H0       H01     AOSYM     SMH    MOLCAS    ERIS     OPER   

              2       4        0.55       700     1000      520     2100   
                                         GEOM     BASIS   MCVARS     RHF  

 PROGRAMS   *        TOTAL    HF-SCF       INT
 CPU TIMES  *         0.92      0.40      0.43
 REAL TIME  *        15.07 SEC
 DISK USED  *       108.61 MB
 **********************************************************************************************************************************


 PROGRAM * CCSD (Closed-shell coupled cluster)     Authors: C. Hampel, H.-J. Werner, 1991, M. Deegan, P.J. Knowles, 1992


 Convergence thresholds:  THRVAR = 1.00D-08  THRDEN = 1.00D-06

 CCSD(T)     terms to be evaluated (factor= 1.000)


 Number of core orbitals:           1 (   1 )
 Number of closed-shell orbitals:   4 (   4 )
 Number of external orbitals:      87 (  87 )

 Molecular orbitals read from record     2100.2  Type=RHF/CANONICAL  

 Number of N-1 electron functions:               4
 Number of N-2 electron functions:              10
 Number of singly external CSFs:               348
 Number of doubly external CSFs:             60726
 Total number of CSFs:                       61075

 Length of J-op  integral file:               0.00 MB
 Length of K-op  integral file:               0.64 MB
 Length of 3-ext integral record:             0.00 MB

 Memory could be reduced to 4.57 Mwords without degradation in triples

 Integral transformation finished. Total CPU:   0.11 sec, npass=  1  Memory used:   2.30 MW

 Reference energy:                    -76.06021624

 MP2 singlet pair energy:              -0.17090373
 MP2 triplet pair energy:              -0.09784606
 MP2 correlation energy:               -0.26874979
 MP2 total energy:                    -76.32896602

 SCS-MP2 correlation energy:           -0.26596647   (PS=  1.200000  PT=  0.333333)
 SCS-MP2 total energy:                -76.32618270

 ITER.      SQ.NORM     CORR.ENERGY   TOTAL ENERGY   ENERGY CHANGE        DEN1      VAR(S)    VAR(P)  DIIS     TIME  TIME/IT
   1      1.06315429    -0.27304683   -76.33326307    -0.00429705     0.00127403  0.89D-03  0.97D-03  1  1     1.27     0.24
   2      1.06685018    -0.27334578   -76.33356202    -0.00029895    -0.00480155  0.11D-04  0.12D-03  2  2     1.36     0.18
   3      1.06820793    -0.27342269   -76.33363893    -0.00007691    -0.00088724  0.11D-04  0.53D-05  3  3     1.44     0.19
   4      1.06865404    -0.27341566   -76.33363190     0.00000703    -0.00020706  0.45D-06  0.62D-06  4  4     1.53     0.17
   5      1.06875063    -0.27341270   -76.33362894     0.00000296    -0.00003013  0.14D-06  0.38D-07  5  5     1.61     0.17
   6      1.06878444    -0.27340932   -76.33362556     0.00000338    -0.00000700  0.10D-07  0.23D-08  6  6     1.70     0.18
   7      1.06879035    -0.27340909   -76.33362532     0.00000023    -0.00000067  0.69D-09  0.39D-09  6  1     1.78     0.18
   8      1.06879128    -0.27340906   -76.33362530     0.00000002     0.00000038  0.89D-10  0.32D-10  6  2     1.86     0.17

 Norm of t1 vector:      0.04026134      S-energy:    -0.00000017      T1 diagnostic:  0.01006533
                                                                       D1 diagnostic:  0.02138599
                                                                       D2 diagnostic:  0.12748317 (internal)


 Total CPU time for triples:      0.46 sec


 RESULTS
 =======

  Reference energy                    -76.060216238243
  CCSD singlet pair energy             -0.186551803113
  CCSD triplet pair energy             -0.086857091452
  CCSD correlation energy              -0.273409063538

  Triples (T) contribution             -0.008672412687
  Total correlation energy             -0.282081476225

  CCSD total energy                   -76.333625301782
  CCSD[T] energy                      -76.342621266993
  CCSD-T energy                       -76.342123506282
 !CCSD(T) total energy                -76.342297714469

 Timing summary (sec):

 STEP                 CPU(USER)    SYS     CPU(TOT)    WALL
 Transformation          0.11      0.01      0.12      0.73
 CCSD iterations         1.75      0.07      1.82      1.96
 Triples                 0.46      0.03      0.49      0.56

 Program statistics:

 Available memory in ccsd:               805306299
 Min. memory needed in ccsd:                288418
 Max. memory used in ccsd:                  330600
 Max. memory used in cckext:                241058 ( 8 integral passes)



 **********************************************************************************************************************************
 DATASETS  * FILE   NREC   LENGTH (MB)   RECORD NAMES
              1      20       60.71       500      610      700      900      950      970     1000      129      960     1100   
                                          VAR    BASINP    GEOM    SYMINP    ZMAT    AOBASIS   BASIS     P2S    ABASIS      S 
                                         1400     1410     1200     1210     1080     1600     1650     1300     1700     1380   
                                           T        V       H0       H01     AOSYM     SMH    MOLCAS    ERIS     OPER     JKOP   

              2       4        0.55       700     1000      520     2100   
                                         GEOM     BASIS   MCVARS     RHF  

 PROGRAMS   *        TOTAL   CCSD(T)    HF-SCF       INT
 CPU TIMES  *         2.21      1.29      0.40      0.43
 REAL TIME  *        19.07 SEC
 DISK USED  *       108.61 MB
 **********************************************************************************************************************************

 Dump information in style XML to xml output                                                                      

 Orbitals will not be exported.

 **********************************************************************************************************************************

 CCSD(T)/aug-cc-pVTZ energy=    -76.342297714469

         CCSD(T)          HF-SCF
    -76.34229771    -76.06021624
 **********************************************************************************************************************************
 Molpro calculation terminated
