
 Working directory              : /var/folders/2v/xbgp75_9785319ghcgb4zr4r0000gp/T//molpro.1DEIVt8Cbx/
 Global scratch directory       : /var/folders/2v/xbgp75_9785319ghcgb4zr4r0000gp/T//molpro.1DEIVt8Cbx/
 Wavefunction directory         : /Users/sacpjk/wfu/
 Main file repository           : /var/folders/2v/xbgp75_9785319ghcgb4zr4r0000gp/T//molpro.1DEIVt8Cbx/

 id        : peterk

 Nodes                        nprocs
 Cardiff-University-G34YLXT77Y    1
 GA implementation: MPI file
 GA implementation (serial work in mppx): MPI file

 Using customized tuning parameters: mindgm=1; mindgv=20; mindgc=4; mindgr=1; noblas=0; minvec=7
 default implementation of scratch files=df  


 Variables initialized (1032), CPU time= 0.00 sec
 
 symmetry,nosym
 
 
 geometry={
           17
     H         -0.53886696     -2.24361845      1.32579347
     C         -0.65877300     -1.36818713      0.70008825
     H         -0.79608205      1.84165501      0.00000000
     C         -0.65877300     -0.04467066      1.15549741
     C         -0.65877300     -1.36818713     -0.70008825
     H         -2.23230656      0.80012564      0.00000000
     C         -1.13085017      0.80520364      0.00000000
     C          1.44099175      0.52019454      0.69489525
     H         -0.78769605      0.24265144      2.19170778
     C          1.44099175      0.52019454     -0.69489525
     H         -0.53886696     -2.24361845     -1.32579347
     C         -0.65877300     -0.04467066     -1.15549741
     H         -0.78769605      0.24265144     -2.19170778
     H          1.37100572      1.45640087     -1.23647844
     H          1.91173092     -0.28626275      1.24115144
     H          1.37100572      1.45640087      1.23647844
     H          1.91173092     -0.28626275     -1.24115144
 }
 basis=cc-pVTZ
 
 
 
 hf; mp3
 
 
 
 {put,xml;noorbitals,nobasis}
 Commands initialized (841), CPU time= 0.01 sec, 704 directives.
 Default parameters read. Elapsed time= 0.63 sec

 Checking input...
 Passed
1


                                         ***  PROGRAM SYSTEM MOLPRO  ***
                                       Copyright, TTI GmbH Stuttgart, 2015
                                    Version 2023.1 linked Tue Jun  6 09:54:11 2023


 **********************************************************************************************************************************
 LABEL *                                                                                                                                                                 
  64 bit serial version                                                                  DATE: 10-Jun-23          TIME: 16:28:39  
 **********************************************************************************************************************************

 SHA1:             8ebb0dd001088a5c915591db1a321413035db0b1
 **********************************************************************************************************************************

 Memory per process:       805 MW
 Total memory per node:   1074 MW
 Total GA space:           268 MW

 GA preallocation disabled
 GA check enabled

 Variable memory set to 805.3 MW

 ZSYMEL=NOSYM


 Geometry recognized as XYZ

 SETTING BASIS          =    CC-PVTZ


 Recomputing integrals since basis changed


 Using spherical harmonics

 Library entry H      S cc-pVTZ              selected for orbital group  1
 Library entry H      P cc-pVTZ              selected for orbital group  1
 Library entry H      D cc-pVTZ              selected for orbital group  1
 Library entry C      S cc-pVTZ              selected for orbital group  2
 Library entry C      P cc-pVTZ              selected for orbital group  2
 Library entry C      D cc-pVTZ              selected for orbital group  2
 Library entry C      F cc-pVTZ              selected for orbital group  2


 PROGRAM * SEWARD (Integral evaluation for generally contracted gaussian basis sets)     Author: Roland Lindh, 1990

 Geometry written to block  1 of record 700


 Point group  C1  



 ATOMIC COORDINATES

 NR  ATOM    CHARGE       X              Y              Z

   1  H       1.00   -1.018310972   -4.239824399    2.505386556
   2  C       6.00   -1.244900548   -2.585498963    1.322975056
   3  H       1.00   -1.504377047    3.480223585    0.000000000
   4  C       6.00   -1.244900548   -0.084415313    2.183573643
   5  C       6.00   -1.244900548   -2.585498963   -1.322975056
   6  H       1.00   -4.218448025    1.512018325    0.000000000
   7  C       6.00   -2.136997109    1.521614354    0.000000000
   8  C       6.00    2.723079755    0.983025212    1.313161708
   9  H       1.00   -1.488529804    0.458544765    4.141727449
  10  C       6.00    2.723079755    0.983025212   -1.313161708
  11  H       1.00   -1.018310972   -4.239824399   -2.505386556
  12  C       6.00   -1.244900548   -0.084415313   -2.183573643
  13  H       1.00   -1.488529804    0.458544765   -4.141727449
  14  H       1.00    2.590825326    2.752198772   -2.336605611
  15  H       1.00    3.612647863   -0.540958197    2.345436301
  16  H       1.00    2.590825326    2.752198772    2.336605611
  17  H       1.00    3.612647863   -0.540958197   -2.345436301

 Bond lengths in Bohr (Angstrom)

 1-2  2.046028455  2-4  2.645004603  2-5  2.645950111  3-7  2.058241546  4-7  2.853622508
     ( 1.082711631)     ( 1.399676159)     ( 1.400176500)     ( 1.089174521)     ( 1.510072000)

  4- 9  2.046589161   5-11  2.046028455   5-12  2.645004603   6- 7  2.081473035   7-12  2.853622508
       ( 1.083008344)       ( 1.082711631)       ( 1.399676159)       ( 1.101468095)       ( 1.510072000)

  8-10  2.626323416   8-15  2.044369752   8-16  2.048146416  10-14  2.048146416  10-17  2.044369752
       ( 1.389790500)       ( 1.081833884)       ( 1.083832408)       ( 1.083832408)       ( 1.081833884)

 12-13  2.046589161
       ( 1.083008344)

 Bond angles

  1-2-4  125.20666436   1-2-5  125.30337494   2-4-7  106.45195306   2-4-9  124.20616870

  2- 5-11  125.30337494   2- 5-12  108.98784253   3- 7- 4  116.07032774   3- 7- 6  108.16431920

  3- 7-12  116.07032774   4- 2- 5  108.98784253   4- 7- 6  108.06049694   4- 7-12   99.84843487

  5-12- 7  106.45195306   5-12-13  124.20616870   6- 7-12  108.06049694   7- 4- 9  123.06582705

  7-12-13  123.06582705   8-10-14  119.97967419   8-10-17  120.32706203  10- 8-15  120.32706203

 10- 8-16  119.97967419  11- 5-12  125.20666436  14-10-17  114.81580975  15- 8-16  114.81580975

 NUCLEAR CHARGE:                   52
 NUMBER OF PRIMITIVE AOS:         499
 NUMBER OF SYMMETRY AOS:          454
 NUMBER OF CONTRACTIONS:          350   (  350A   )
 NUMBER OF INNER CORE ORBITALS:     0   (    0A   )
 NUMBER OF OUTER CORE ORBITALS:     7   (    7A   )
 NUMBER OF VALENCE ORBITALS:       38   (   38A   )


 NUCLEAR REPULSION ENERGY  294.82376202


 Eigenvalues of metric

         1 0.103E-03 0.287E-03 0.296E-03 0.637E-03 0.739E-03 0.740E-03 0.958E-03 0.978E-03


 Contracted 2-electron integrals neglected if value below      1.0D-11
 AO integral compression algorithm  1   Integral accuracy      1.0D-11

     6273.368 MB (compressed) written to integral file ( 40.0%)


 NUMBER OF SORTED TWO-ELECTRON INTEGRALS: 1886546025.     BUFFER LENGTH:  32768
 NUMBER OF SEGMENTS:  59  SEGMENT LENGTH:   31999951      RECORD LENGTH: 524288

 Memory used in sort:      32.56 MW

 SORT1 READ  1959158496. AND WROTE  1635555135. INTEGRALS IN   4713 RECORDS. CPU TIME:    16.09 SEC, REAL TIME:    24.38 SEC
 SORT2 READ  1635555135. AND WROTE  1886546025. INTEGRALS IN  23931 RECORDS. CPU TIME:    10.65 SEC, REAL TIME:    46.34 SEC

 FILE SIZES:   FILE 1:  6308.2 MBYTE,  FILE 4: 19767.8 MBYTE,   TOTAL:  26076.0 MBYTE

 OPERATOR DM      FOR CENTER  0  COORDINATES:    0.000000    0.000000    0.000000


 **********************************************************************************************************************************
 DATASETS  * FILE   NREC   LENGTH (MB)   RECORD NAMES
              1      19     5646.67       500      610      700      900      950      970     1000      129      960     1100   
                                          VAR    BASINP    GEOM    SYMINP    ZMAT    AOBASIS   BASIS     P2S    ABASIS      S 
                                         1400     1410     1200     1210     1080     1600     1650     1300     1700   
                                           T        V       H0       H01     AOSYM     SMH    MOLCAS    ERIS     OPER   

 PROGRAMS   *        TOTAL       INT
 CPU TIMES  *        66.37     66.27
 REAL TIME  *       122.00 SEC
 DISK USED  *        24.29 GB
 **********************************************************************************************************************************


 Program * Restricted Hartree-Fock

 Orbital guess generated from atomic densities. Full valence occupancy:   45

 Initial occupancy:  26

 NELEC=   52   SYM=1   MS2= 0   THRE=1.0D-08   THRD=3.2D-06   THRG=3.2D-06  HFMA2=F  DIIS_START=2   DIIS_MAX=10   DIIS_INCORE=F

 Level shifts:    0.00 (CLOSED)    0.00 (OPEN)    0.30 (GAP_MIN)

 ITER           ETOT              DE          GRAD        DDIFF     DIIS  NEXP   TIME(IT)  TIME(TOT)  DIAG
   1     -270.77135401    -270.77135401     0.00D+00     0.39D-01     0     0       9.21     17.16    start
   2     -270.84016298      -0.06880898     0.25D-02     0.38D-02     1     0       8.68     25.84    diag
