
 Working directory              : /var/folders/2v/xbgp75_9785319ghcgb4zr4r0000gp/T//molpro.mR5QcBjtZh/
 Global scratch directory       : /var/folders/2v/xbgp75_9785319ghcgb4zr4r0000gp/T//molpro.mR5QcBjtZh/
 Wavefunction directory         : /Users/sacpjk/wfu/
 Main file repository           : /var/folders/2v/xbgp75_9785319ghcgb4zr4r0000gp/T//molpro.mR5QcBjtZh/

 id        : peterk

 Nodes                        nprocs
 Cardiff-University-G34YLXT77Y    1
 GA implementation: MPI file
 GA implementation (serial work in mppx): MPI file

 Using customized tuning parameters: mindgm=1; mindgv=20; mindgc=4; mindgr=1; noblas=0; minvec=7
 default implementation of scratch files=df  


 Variables initialized (1032), CPU time= 0.00 sec
 
 symmetry,nosym
 
 
 geometry={
            3
     C          0.00000000      0.00000000     -1.11118191
     N          0.00000000      0.00000000      0.05815587
     H          0.00000000      0.00000000      1.05302603
 }
 basis=cc-pVTZ
 
 
 
 hf; ccsd(t)
 
 
 
 {put,xml;noorbitals,nobasis}
 Commands initialized (841), CPU time= 0.01 sec, 704 directives.
 Default parameters read. Elapsed time= 0.09 sec

 Checking input...
 Passed
1


                                         ***  PROGRAM SYSTEM MOLPRO  ***
                                       Copyright, TTI GmbH Stuttgart, 2015
                                    Version 2023.1 linked Tue Jun  6 09:54:11 2023


 **********************************************************************************************************************************
 LABEL *                                                                                                                                                                 
  64 bit serial version                                                                  DATE: 09-Jun-23          TIME: 09:31:04  
 **********************************************************************************************************************************

 SHA1:             8ebb0dd001088a5c915591db1a321413035db0b1
 **********************************************************************************************************************************

 Memory per process:       805 MW
 Total memory per node:   1074 MW
 Total GA space:           268 MW

 GA preallocation disabled
 GA check enabled

 Variable memory set to 805.3 MW

 ZSYMEL=NOSYM


 Geometry recognized as XYZ

 SETTING BASIS          =    CC-PVTZ


 Recomputing integrals since basis changed


 Using spherical harmonics

 Library entry C      S cc-pVTZ              selected for orbital group  1
 Library entry C      P cc-pVTZ              selected for orbital group  1
 Library entry C      D cc-pVTZ              selected for orbital group  1
 Library entry C      F cc-pVTZ              selected for orbital group  1
 Library entry N      S cc-pVTZ              selected for orbital group  2
 Library entry N      P cc-pVTZ              selected for orbital group  2
 Library entry N      D cc-pVTZ              selected for orbital group  2
 Library entry N      F cc-pVTZ              selected for orbital group  2
 Library entry H      S cc-pVTZ              selected for orbital group  3
 Library entry H      P cc-pVTZ              selected for orbital group  3
 Library entry H      D cc-pVTZ              selected for orbital group  3


 PROGRAM * SEWARD (Integral evaluation for generally contracted gaussian basis sets)     Author: Roland Lindh, 1990

 Geometry written to block  1 of record 700


 Point group  C1  



 ATOMIC COORDINATES

 NR  ATOM    CHARGE       X              Y              Z

   1  C       6.00    0.000000000    0.000000000   -2.099829485
   2  N       7.00    0.000000000    0.000000000    0.109898667
   3  H       1.00    0.000000000    0.000000000    1.989930799

 Bond lengths in Bohr (Angstrom)

 1-2  2.209728151  2-3  1.880032132
     ( 1.169337780)     ( 0.994870160)

 Bond angles

  1-2-3  180.00000000

 NUCLEAR CHARGE:                   14
 NUMBER OF PRIMITIVE AOS:         111
 NUMBER OF SYMMETRY AOS:          100
 NUMBER OF CONTRACTIONS:           74   (   74A   )
 NUMBER OF INNER CORE ORBITALS:     0   (    0A   )
 NUMBER OF OUTER CORE ORBITALS:     2   (    2A   )
 NUMBER OF VALENCE ORBITALS:        9   (    9A   )


 NUCLEAR REPULSION ENERGY   24.19728216

 EXTRA SYMMETRY OF AOS IN SYMMETRY 1:   1 1 1 1 2 3 1 2 3 1   2 3 1 1 4 2 5 3 1 4   2 5 3 2 3 1 6 4 7 5   1 1 1 1 2 3 1 2 3 1
                                        2 3 1 1 4 2 5 3 1 4   2 5 3 2 3 1 6 4 7 5   1 1 1 2 3 1 2 3 1 1   4 2 5 3

 Eigenvalues of metric

         1 0.121E-02 0.202E-02 0.299E-02 0.647E-02 0.132E-01 0.196E-01 0.196E-01 0.218E-01


 Contracted 2-electron integrals neglected if value below      1.0D-11
 AO integral compression algorithm  1   Integral accuracy      1.0D-11

     6.291 MB (compressed) written to integral file ( 15.9%)


 NUMBER OF SORTED TWO-ELECTRON INTEGRALS:    3851700.     BUFFER LENGTH:  32768
 NUMBER OF SEGMENTS:   1  SEGMENT LENGTH:    3851700      RECORD LENGTH: 524288

 Memory used in sort:       4.41 MW

 SORT1 READ     4876733. AND WROTE      813095. INTEGRALS IN      3 RECORDS. CPU TIME:     0.02 SEC, REAL TIME:     0.02 SEC
 SORT2 READ      813095. AND WROTE     3851700. INTEGRALS IN     24 RECORDS. CPU TIME:     0.05 SEC, REAL TIME:     0.06 SEC

 FILE SIZES:   FILE 1:    36.5 MBYTE,  FILE 4:    12.6 MBYTE,   TOTAL:     49.2 MBYTE

 OPERATOR DM      FOR CENTER  0  COORDINATES:    0.000000    0.000000    0.000000


 **********************************************************************************************************************************
 DATASETS  * FILE   NREC   LENGTH (MB)   RECORD NAMES
              1      19       33.17       500      610      700      900      950      970     1000      129      960     1100   
                                          VAR    BASINP    GEOM    SYMINP    ZMAT    AOBASIS   BASIS     P2S    ABASIS      S 
                                         1400     1410     1200     1210     1080     1600     1650     1300     1700   
                                           T        V       H0       H01     AOSYM     SMH    MOLCAS    ERIS     OPER   

 PROGRAMS   *        TOTAL       INT
 CPU TIMES  *         0.34      0.26
 REAL TIME  *         0.70 SEC
 DISK USED  *        47.25 MB
 **********************************************************************************************************************************


 Program * Restricted Hartree-Fock

 Orbital guess generated from atomic densities. Full valence occupancy:   11

 Initial occupancy:   7

 NELEC=   14   SYM=1   MS2= 0   THRE=1.0D-08   THRD=3.2D-06   THRG=3.2D-06  HFMA2=F  DIIS_START=2   DIIS_MAX=10   DIIS_INCORE=F

 Level shifts:    0.00 (CLOSED)    0.00 (OPEN)    0.30 (GAP_MIN)

 ITER           ETOT              DE          GRAD        DDIFF     DIIS  NEXP   TIME(IT)  TIME(TOT)  DIAG
   1      -92.87403132     -92.87403132     0.00D+00     0.92D-01     0     0       0.02      0.03    start
   2      -92.88897523      -0.01494391     0.53D-02     0.76D-02     1     0       0.01      0.04    diag
   3      -92.89169843      -0.00272320     0.28D-02     0.33D-02     2     0       0.02      0.06    diag
   4      -92.89218186      -0.00048343     0.95D-03     0.10D-02     3     0       0.02      0.08    diag
   5      -92.89220951      -0.00002765     0.18D-03     0.33D-03     4     0       0.01      0.09    diag
   6      -92.89221162      -0.00000210     0.49D-04     0.11D-03     5     0       0.02      0.11    diag
   7      -92.89221173      -0.00000012     0.13D-04     0.25D-04     6     0       0.01      0.12    diag
   8      -92.89221174      -0.00000000     0.23D-05     0.34D-05     7     0       0.02      0.14    fixocc
   9      -92.89221174      -0.00000000     0.28D-06     0.56D-06     8     0       0.01      0.15    diag
  10      -92.89221174      -0.00000000     0.34D-07     0.56D-07     0     0       0.02      0.17    diag/orth

 Final occupancy:   7

 !RHF STATE 1.1 Energy                -92.892211736618
  RHF One-electron energy            -173.053938089841
  RHF Two-electron energy              55.964444192948
  RHF Kinetic energy                   92.730013594750
  RHF Nuclear energy                   24.197282160275
  RHF Virial quotient                  -1.001749143946

 !RHF STATE 1.1 Dipole moment          -0.00000000     0.00000000     1.13539281
 Dipole moment /Debye                  -0.00000000     0.00000000     2.88588066

 Orbital energies:

           1.1          2.1          3.1          4.1          5.1          6.1          7.1          8.1          9.1
    -15.602725   -11.294284    -1.263396    -0.874377    -0.519013    -0.519013    -0.489717     0.132510     0.174311


 HOMO      7.1    -0.489717 =     -13.3259eV
 LUMO      8.1     0.132510 =       3.6058eV
 LUMO-HOMO         0.622226 =      16.9316eV

 Orbitals saved in record  2100.2


 **********************************************************************************************************************************
 DATASETS  * FILE   NREC   LENGTH (MB)   RECORD NAMES
              1      19       33.17       500      610      700      900      950      970     1000      129      960     1100   
                                          VAR    BASINP    GEOM    SYMINP    ZMAT    AOBASIS   BASIS     P2S    ABASIS      S 
                                         1400     1410     1200     1210     1080     1600     1650     1300     1700   
                                           T        V       H0       H01     AOSYM     SMH    MOLCAS    ERIS     OPER   

              2       4        0.50       700     1000      520     2100   
                                         GEOM     BASIS   MCVARS     RHF  

 PROGRAMS   *        TOTAL    HF-SCF       INT
 CPU TIMES  *         0.51      0.17      0.26
 REAL TIME  *         0.99 SEC
 DISK USED  *        47.25 MB
 **********************************************************************************************************************************


 PROGRAM * CCSD (Closed-shell coupled cluster)     Authors: C. Hampel, H.-J. Werner, 1991, M. Deegan, P.J. Knowles, 1992


 Convergence thresholds:  THRVAR = 1.00D-08  THRDEN = 1.00D-06

 CCSD(T)     terms to be evaluated (factor= 1.000)


 Number of core orbitals:           2 (   2 )
 Number of closed-shell orbitals:   5 (   5 )
 Number of external orbitals:      67 (  67 )

 Molecular orbitals read from record     2100.2  Type=RHF/CANONICAL  

 Number of N-1 electron functions:               5
 Number of N-2 electron functions:              15
 Number of singly external CSFs:               335
 Number of doubly external CSFs:             56280
 Total number of CSFs:                       56616

 Length of J-op  integral file:               0.00 MB
 Length of K-op  integral file:               0.44 MB
 Length of 3-ext integral record:             0.00 MB

 Memory could be reduced to 2.51 Mwords without degradation in triples

 Integral transformation finished. Total CPU:   0.04 sec, npass=  1  Memory used:   1.52 MW

 Reference energy:                    -92.89221174

 MP2 singlet pair energy:              -0.21134066
 MP2 triplet pair energy:              -0.12132759
 MP2 correlation energy:               -0.33266825
 MP2 total energy:                    -93.22487998

 SCS-MP2 correlation energy:           -0.32910151   (PS=  1.200000  PT=  0.333333)
 SCS-MP2 total energy:                -93.22131325

 ITER.      SQ.NORM     CORR.ENERGY   TOTAL ENERGY   ENERGY CHANGE        DEN1      VAR(S)    VAR(P)  DIIS     TIME  TIME/IT
   1      1.11111294    -0.34093031   -93.23314204    -0.00826206     0.00329702  0.27D-02  0.25D-02  1  1     0.71     0.06
   2      1.12080034    -0.34165313   -93.23386487    -0.00072283    -0.00928355  0.66D-04  0.41D-03  2  2     0.75     0.07
   3      1.12611211    -0.34191766   -93.23412940    -0.00026453    -0.00240201  0.40D-04  0.27D-04  3  3     0.79     0.06
   4      1.12804502    -0.34187414   -93.23408588     0.00004352    -0.00065916  0.32D-05  0.33D-05  4  4     0.83     0.07
   5      1.12858096    -0.34188570   -93.23409743    -0.00001155    -0.00012171  0.58D-06  0.36D-06  5  5     0.89     0.07
   6      1.12874492    -0.34187264   -93.23408438     0.00001306    -0.00003110  0.53D-07  0.33D-07  6  6     0.93     0.06
   7      1.12876802    -0.34187264   -93.23408437     0.00000000    -0.00000329  0.87D-08  0.52D-08  6  1     0.99     0.07
   8      1.12877592    -0.34187210   -93.23408383     0.00000054     0.00000049  0.78D-09  0.47D-09  6  2     1.03     0.07

 Norm of t1 vector:      0.07356201      S-energy:    -0.00000087      T1 diagnostic:  0.01644896
                                                                       D1 diagnostic:  0.03298685
                                                                       D2 diagnostic:  0.16272056 (internal)

 Doubles amplitudes (print threshold =  0.500E-01):

         I         J         SYM. A    SYM. B    A         B      T(IJ, AB)

         3         3         1         1         2         2     -0.05049863
         4         4         1         1         3         3     -0.05049863
         5         5         1         1         2         2     -0.05444556
         5         5         1         1         3         3     -0.05444556


 Total CPU time for triples:      0.18 sec


 RESULTS
 =======

  Reference energy                    -92.892211736618
  CCSD singlet pair energy             -0.236584231191
  CCSD triplet pair energy             -0.105286992593
  CCSD correlation energy              -0.341872096439

  Triples (T) contribution             -0.017258932885
  Total correlation energy             -0.359131029324

  CCSD total energy                   -93.234083833057
  CCSD[T] energy                      -93.252275782831
  CCSD-T energy                       -93.250964071277
 !CCSD(T) total energy                -93.251342765942

 Timing summary (sec):

 STEP                 CPU(USER)    SYS     CPU(TOT)    WALL
 Transformation          0.05      0.01      0.06      0.09
 CCSD iterations         0.98      0.04      1.02      0.60
 Triples                 0.18      0.01      0.19      0.20

 Program statistics:

 Available memory in ccsd:               805306261
 Min. memory needed in ccsd:                230499
 Max. memory used in ccsd:                  270789
 Max. memory used in cckext:                225293 ( 8 integral passes)



 **********************************************************************************************************************************
 DATASETS  * FILE   NREC   LENGTH (MB)   RECORD NAMES
              1      20       40.02       500      610      700      900      950      970     1000      129      960     1100   
                                          VAR    BASINP    GEOM    SYMINP    ZMAT    AOBASIS   BASIS     P2S    ABASIS      S 
                                         1400     1410     1200     1210     1080     1600     1650     1300     1700     1380   
                                           T        V       H0       H01     AOSYM     SMH    MOLCAS    ERIS     OPER     JKOP   

              2       4        0.50       700     1000      520     2100   
                                         GEOM     BASIS   MCVARS     RHF  

 PROGRAMS   *        TOTAL   CCSD(T)    HF-SCF       INT
 CPU TIMES  *         1.14      0.63      0.17      0.26
 REAL TIME  *         1.94 SEC
 DISK USED  *        51.37 MB
 **********************************************************************************************************************************

 Dump information in style XML to xml output                                                                      

 Orbitals will not be exported.

 **********************************************************************************************************************************

 CCSD(T)/cc-pVTZ energy=    -93.251342765942

         CCSD(T)          HF-SCF
    -93.25134277    -92.89221174
 **********************************************************************************************************************************
 Molpro calculation terminated
