
 Working directory              : /var/folders/2v/xbgp75_9785319ghcgb4zr4r0000gp/T//molpro.tEBNO3jzRY/
 Global scratch directory       : /var/folders/2v/xbgp75_9785319ghcgb4zr4r0000gp/T//molpro.tEBNO3jzRY/
 Wavefunction directory         : /Users/sacpjk/wfu/
 Main file repository           : /var/folders/2v/xbgp75_9785319ghcgb4zr4r0000gp/T//molpro.tEBNO3jzRY/

 id        : peterk

 Nodes                        nprocs
 Cardiff-University-G34YLXT77Y    1
 GA implementation: MPI file
 GA implementation (serial work in mppx): MPI file

 Using customized tuning parameters: mindgm=1; mindgv=20; mindgc=4; mindgr=1; noblas=0; minvec=7
 default implementation of scratch files=df  


 Variables initialized (1032), CPU time= 0.00 sec
 
 symmetry,nosym
 
 
 geometry={
            4
     P          0.00000000      0.00000000      0.56884914
     H          0.59567102      1.03173246     -0.18961638
     H          0.59567102     -1.03173246     -0.18961638
     H         -1.19134203      0.00000000     -0.18961638
 }
 basis=cc-pVDZ
 
 
 
 hf
 
 
 
 {put,xml;noorbitals,nobasis}
 Commands initialized (841), CPU time= 0.01 sec, 704 directives.
 Default parameters read. Elapsed time= 0.18 sec

 Checking input...
 Passed
1


                                         ***  PROGRAM SYSTEM MOLPRO  ***
                                       Copyright, TTI GmbH Stuttgart, 2015
                                    Version 2023.1 linked Tue Jun  6 09:54:11 2023


 **********************************************************************************************************************************
 LABEL *                                                                                                                                                                 
  64 bit serial version                                                                  DATE: 09-Jun-23          TIME: 09:27:56  
 **********************************************************************************************************************************

 SHA1:             8ebb0dd001088a5c915591db1a321413035db0b1
 **********************************************************************************************************************************

 Memory per process:       805 MW
 Total memory per node:   1074 MW
 Total GA space:           268 MW

 GA preallocation disabled
 GA check enabled

 Variable memory set to 805.3 MW

 ZSYMEL=NOSYM


 Geometry recognized as XYZ

 SETTING BASIS          =    CC-PVDZ


 Recomputing integrals since basis changed


 Using spherical harmonics

 Library entry P      S cc-pVDZ              selected for orbital group  1
 Library entry P      P cc-pVDZ              selected for orbital group  1
 Library entry P      D cc-pVDZ              selected for orbital group  1
 Library entry H      S cc-pVDZ              selected for orbital group  2
 Library entry H      P cc-pVDZ              selected for orbital group  2


 PROGRAM * SEWARD (Integral evaluation for generally contracted gaussian basis sets)     Author: Roland Lindh, 1990

 Geometry written to block  1 of record 700


 Point group  C1  



 ATOMIC COORDINATES

 NR  ATOM    CHARGE       X              Y              Z

   1  P      15.00    0.000000000    0.000000000    1.074969081
   2  H       1.00    1.125655088    1.949691783   -0.358323027
   3  H       1.00    1.125655088   -1.949691783   -0.358323027
   4  H       1.00   -2.251310157    0.000000000   -0.358323027

 Bond lengths in Bohr (Angstrom)

 1-2  2.668843138  1-3  2.668843138  1-4  2.668843137
     ( 1.412290968)     ( 1.412290968)     ( 1.412290968)

 Bond angles

  2-1-3   93.86305956   2-1-4   93.86306006   3-1-4   93.86306006

 NUCLEAR CHARGE:                   18
 NUMBER OF PRIMITIVE AOS:          63
 NUMBER OF SYMMETRY AOS:           62
 NUMBER OF CONTRACTIONS:           33   (   33A   )
 NUMBER OF INNER CORE ORBITALS:     1   (    1A   )
 NUMBER OF OUTER CORE ORBITALS:     4   (    4A   )
 NUMBER OF VALENCE ORBITALS:        7   (    7A   )


 NUCLEAR REPULSION ENERGY   17.63059062


 Eigenvalues of metric

         1 0.916E-02 0.416E-01 0.416E-01 0.678E-01 0.864E-01 0.864E-01 0.968E-01 0.107E+00


 Contracted 2-electron integrals neglected if value below      1.0D-11
 AO integral compression algorithm  1   Integral accuracy      1.0D-11

     1.049 MB (compressed) written to integral file ( 53.2%)


 NUMBER OF SORTED TWO-ELECTRON INTEGRALS:     157641.     BUFFER LENGTH:  32768
 NUMBER OF SEGMENTS:   1  SEGMENT LENGTH:     157641      RECORD LENGTH: 524288

 Memory used in sort:       0.71 MW

 SORT1 READ      203835. AND WROTE      129988. INTEGRALS IN      1 RECORDS. CPU TIME:     0.01 SEC, REAL TIME:     0.00 SEC
 SORT2 READ      129988. AND WROTE      157641. INTEGRALS IN      4 RECORDS. CPU TIME:     0.00 SEC, REAL TIME:     0.01 SEC

 FILE SIZES:   FILE 1:    31.1 MBYTE,  FILE 4:     4.3 MBYTE,   TOTAL:     35.4 MBYTE

 OPERATOR DM      FOR CENTER  0  COORDINATES:    0.000000    0.000000    0.000000


 **********************************************************************************************************************************
 DATASETS  * FILE   NREC   LENGTH (MB)   RECORD NAMES
              1      19       29.30       500      610      700      900      950      970     1000      129      960     1100   
                                          VAR    BASINP    GEOM    SYMINP    ZMAT    AOBASIS   BASIS     P2S    ABASIS      S 
                                         1400     1410     1200     1210     1080     1600     1650     1300     1700   
                                           T        V       H0       H01     AOSYM     SMH    MOLCAS    ERIS     OPER   

 PROGRAMS   *        TOTAL       INT
 CPU TIMES  *         0.18      0.10
 REAL TIME  *         0.70 SEC
 DISK USED  *        34.11 MB
 **********************************************************************************************************************************


 Program * Restricted Hartree-Fock

 Orbital guess generated from atomic densities. Full valence occupancy:   12

 Initial occupancy:   9

 NELEC=   18   SYM=1   MS2= 0   THRE=1.0D-08   THRD=3.2D-06   THRG=3.2D-06  HFMA2=F  DIIS_START=2   DIIS_MAX=10   DIIS_INCORE=F

 Level shifts:    0.00 (CLOSED)    0.00 (OPEN)    0.30 (GAP_MIN)

 ITER           ETOT              DE          GRAD        DDIFF     DIIS  NEXP   TIME(IT)  TIME(TOT)  DIAG
   1     -342.45450499    -342.45450499     0.00D+00     0.24D+00     0     0       0.00      0.00    start
   2     -342.46885036      -0.01434536     0.54D-02     0.14D-01     1     0       0.00      0.00    diag
   3     -342.47029383      -0.00144347     0.16D-02     0.42D-02     2     0       0.00      0.00    diag
   4     -342.47044638      -0.00015255     0.45D-03     0.14D-02     3     0       0.00      0.00    diag
   5     -342.47044954      -0.00000316     0.71D-04     0.31D-03     4     0       0.00      0.00    diag
   6     -342.47044962      -0.00000008     0.12D-04     0.46D-04     5     0       0.00      0.00    diag
   7     -342.47044962      -0.00000000     0.26D-05     0.15D-04     6     0       0.00      0.00    diag
   8     -342.47044962      -0.00000000     0.37D-06     0.24D-05     7     0       0.00      0.00    fixocc
   9     -342.47044962      -0.00000000     0.55D-07     0.24D-06     0     0       0.01      0.01    diag

 Final occupancy:   9

 !RHF STATE 1.1 Energy               -342.470449624303
  RHF One-electron energy            -508.456378241285
  RHF Two-electron energy             148.355337993789
  RHF Kinetic energy                  342.416789692102
  RHF Nuclear energy                   17.630590623193
  RHF Virial quotient                  -1.000156709407

 !RHF STATE 1.1 Dipole moment          -0.00000000    -0.00000000    -0.29532777
 Dipole moment /Debye                  -0.00000000    -0.00000000    -0.75064832

 Orbital energies:

           1.1          2.1          3.1          4.1          5.1          6.1          7.1          8.1          9.1         10.1
    -79.947837    -7.490656    -5.384514    -5.384514    -5.382897    -0.857149    -0.520222    -0.520222    -0.384841     0.174059

          11.1
      0.174059


 HOMO      9.1    -0.384841 =     -10.4720eV
 LUMO     10.1     0.174059 =       4.7364eV
 LUMO-HOMO         0.558900 =      15.2084eV

 Orbitals saved in record  2100.2


 **********************************************************************************************************************************
 DATASETS  * FILE   NREC   LENGTH (MB)   RECORD NAMES
              1      19       29.30       500      610      700      900      950      970     1000      129      960     1100   
                                          VAR    BASINP    GEOM    SYMINP    ZMAT    AOBASIS   BASIS     P2S    ABASIS      S 
                                         1400     1410     1200     1210     1080     1600     1650     1300     1700   
                                           T        V       H0       H01     AOSYM     SMH    MOLCAS    ERIS     OPER   

              2       4        0.45       700     1000      520     2100   
                                         GEOM     BASIS   MCVARS     RHF  

 PROGRAMS   *        TOTAL    HF-SCF       INT
 CPU TIMES  *         0.20      0.01      0.10
 REAL TIME  *         0.76 SEC
 DISK USED  *        34.11 MB
 **********************************************************************************************************************************

 Dump information in style XML to xml output                                                                      

 Orbitals will not be exported.

 **********************************************************************************************************************************

 HF/cc-pVDZ energy=   -342.470449624303

          HF-SCF
   -342.47044962
 **********************************************************************************************************************************
 Molpro calculation terminated
