
 Working directory              : /var/folders/2v/xbgp75_9785319ghcgb4zr4r0000gp/T//molpro.S28OwkBaYD/
 Global scratch directory       : /var/folders/2v/xbgp75_9785319ghcgb4zr4r0000gp/T//molpro.S28OwkBaYD/
 Wavefunction directory         : /Users/sacpjk/wfu/
 Main file repository           : /var/folders/2v/xbgp75_9785319ghcgb4zr4r0000gp/T//molpro.S28OwkBaYD/

 id        : peterk

 Nodes                        nprocs
 Cardiff-University-G34YLXT77Y    1
 GA implementation: MPI file
 GA implementation (serial work in mppx): MPI file

 Using customized tuning parameters: mindgm=1; mindgv=20; mindgc=4; mindgr=1; noblas=0; minvec=7
 default implementation of scratch files=df  


 Variables initialized (1032), CPU time= 0.01 sec
 
 symmetry,nosym
 
 
 geometry={
            6
     H          0.00037485      2.26246822      0.00000000
     F         -0.00011015      1.02398179      0.00000000
     C         -0.00011015     -0.64466754      0.00000000
     H          1.05368609     -0.88007204      0.00000000
     H         -0.52692032     -0.88085522      0.91235449
     H         -0.52692032     -0.88085522     -0.91235449
 }
 basis=cc-pVDZ
 
 
 spin=1
 uhf
 
 
 
 {put,xml;noorbitals,nobasis}
 Commands initialized (841), CPU time= 0.00 sec, 704 directives.
 Default parameters read. Elapsed time= 0.13 sec

 Checking input...
 Passed
1


                                         ***  PROGRAM SYSTEM MOLPRO  ***
                                       Copyright, TTI GmbH Stuttgart, 2015
                                    Version 2023.1 linked Tue Jun  6 09:54:11 2023


 **********************************************************************************************************************************
 LABEL *                                                                                                                                                                 
  64 bit serial version                                                                  DATE: 09-Jun-23          TIME: 09:28:05  
 **********************************************************************************************************************************

 SHA1:             8ebb0dd001088a5c915591db1a321413035db0b1
 **********************************************************************************************************************************

 Memory per process:       805 MW
 Total memory per node:   1074 MW
 Total GA space:           268 MW

 GA preallocation disabled
 GA check enabled

 Variable memory set to 805.3 MW

 ZSYMEL=NOSYM


 Geometry recognized as XYZ

 SETTING BASIS          =    CC-PVDZ
 SETTING SPIN           =         1.00000000                                  


 Recomputing integrals since basis changed


 Using spherical harmonics

 Library entry H      S cc-pVDZ              selected for orbital group  1
 Library entry H      P cc-pVDZ              selected for orbital group  1
 Library entry F      S cc-pVDZ              selected for orbital group  2
 Library entry F      P cc-pVDZ              selected for orbital group  2
 Library entry F      D cc-pVDZ              selected for orbital group  2
 Library entry C      S cc-pVDZ              selected for orbital group  3
 Library entry C      P cc-pVDZ              selected for orbital group  3
 Library entry C      D cc-pVDZ              selected for orbital group  3


 PROGRAM * SEWARD (Integral evaluation for generally contracted gaussian basis sets)     Author: Roland Lindh, 1990

 Geometry written to block  1 of record 700


 Point group  C1  



 ATOMIC COORDINATES

 NR  ATOM    CHARGE       X              Y              Z

   1  H       1.00    0.000708364    4.275445301    0.000000000
   2  F       9.00   -0.000208153    1.935045140    0.000000000
   3  C       6.00   -0.000208153   -1.218245092    0.000000000
   4  H       1.00    1.991178131   -1.663095126    0.000000000
   5  H       1.00   -0.995735094   -1.664575121    1.724100115
   6  H       1.00   -0.995735094   -1.664575121   -1.724100115

 Bond lengths in Bohr (Angstrom)

 2-3  3.153290232  3-4  2.040468301  3-5  2.040295466  3-6  2.040295466
     ( 1.668649330)     ( 1.079769324)     ( 1.079677864)     ( 1.079677864)

 Bond angles

  2-3-4  102.59239447   2-3-5  102.63606817   2-3-6  102.63606817   4-3-5  115.37263960

  4-3-6  115.37263960   5-3-6  115.34917002

 NUCLEAR CHARGE:                   19
 NUMBER OF PRIMITIVE AOS:          82
 NUMBER OF SYMMETRY AOS:           80
 NUMBER OF CONTRACTIONS:           48   (   48A   )
 NUMBER OF INNER CORE ORBITALS:     0   (    0A   )
 NUMBER OF OUTER CORE ORBITALS:     2   (    2A   )
 NUMBER OF VALENCE ORBITALS:       12   (   12A   )


 NUCLEAR REPULSION ENERGY   38.79776470


 Eigenvalues of metric

         1 0.115E-01 0.292E-01 0.360E-01 0.360E-01 0.442E-01 0.504E-01 0.504E-01 0.619E-01


 Contracted 2-electron integrals neglected if value below      1.0D-11
 AO integral compression algorithm  1   Integral accuracy      1.0D-11

     3.146 MB (compressed) written to integral file ( 44.2%)


 NUMBER OF SORTED TWO-ELECTRON INTEGRALS:     692076.     BUFFER LENGTH:  32768
 NUMBER OF SEGMENTS:   1  SEGMENT LENGTH:     692076      RECORD LENGTH: 524288

 Memory used in sort:       1.25 MW

 SORT1 READ      839336. AND WROTE      536851. INTEGRALS IN      2 RECORDS. CPU TIME:     0.00 SEC, REAL TIME:     0.01 SEC
 SORT2 READ      536851. AND WROTE      692076. INTEGRALS IN     12 RECORDS. CPU TIME:     0.02 SEC, REAL TIME:     0.02 SEC

 FILE SIZES:   FILE 1:    33.3 MBYTE,  FILE 4:     8.5 MBYTE,   TOTAL:     41.8 MBYTE

 OPERATOR DM      FOR CENTER  0  COORDINATES:    0.000000    0.000000    0.000000


 **********************************************************************************************************************************
 DATASETS  * FILE   NREC   LENGTH (MB)   RECORD NAMES
              1      19       31.09       500      610      700      900      950      970     1000      129      960     1100   
                                          VAR    BASINP    GEOM    SYMINP    ZMAT    AOBASIS   BASIS     P2S    ABASIS      S 
                                         1400     1410     1200     1210     1080     1600     1650     1300     1700   
                                           T        V       H0       H01     AOSYM     SMH    MOLCAS    ERIS     OPER   

 PROGRAMS   *        TOTAL       INT
 CPU TIMES  *         0.22      0.14
 REAL TIME  *         0.74 SEC
 DISK USED  *        40.22 MB
 **********************************************************************************************************************************


 Program * Unrestricted Hartree-Fock

 Orbital guess generated from atomic densities. Full valence occupancy:   14

 Initial alpha occupancy:  10
 Initial beta  occupancy:   9

 Elapsed time for starting guess:      0.01 sec

 NELEC=   19   SYM=1   MS2=1   THRE=1.0D-08   THRD=3.2D-06   THRG=3.2D-06  HFMA2=F  DIIS_START=2   DIIS_MAX=10   DIIS_INCORE=F

 Initial level shifts:    0.20 (ALPHA)    0.20 (BETA)

 ITER         ETOT            DE          GRAD         DDIFF    DIIS  NEXP   TIME(IT)  TIME(TOT)  DIAG
   1   -139.41164319  -139.41164319     0.00D+00     0.00D+00     0     0       0.00      0.01    start
   2   -139.44659095    -0.03494776     0.86D-02     0.16D+00     1     0       0.01      0.02    diag
   3   -139.45598143    -0.00939048     0.45D-02     0.14D-01     2     0       0.00      0.02    diag
   4   -139.46211674    -0.00613531     0.26D-02     0.53D-02     3     0       0.01      0.03    diag
   5   -139.46523899    -0.00312225     0.15D-02     0.37D-02     4     0       0.00      0.03    diag
   6   -139.46678402    -0.00154503     0.96D-03     0.23D-02     5     0       0.00      0.03    diag
   7   -139.46702175    -0.00023772     0.38D-03     0.21D-02     6     0       0.01      0.04    diag
   8   -139.46708036    -0.00005861     0.19D-03     0.85D-03     7     0       0.00      0.04    diag
   9   -139.46711153    -0.00003117     0.12D-03     0.43D-03     8     0       0.01      0.05    diag
  10   -139.46713339    -0.00002186     0.83D-04     0.33D-03     9     0       0.00      0.05    diag/ort
  11   -139.46713756    -0.00000418     0.48D-04     0.41D-03     9     0       0.01      0.06    diag
  12   -139.46713901    -0.00000144     0.26D-04     0.15D-03     9     0       0.00      0.06    diag
  13   -139.46713924    -0.00000023     0.12D-04     0.11D-03     9     0       0.00      0.06    diag
  14   -139.46713928    -0.00000004     0.54D-05     0.42D-04     9     0       0.01      0.07    diag
  15   -139.46713928    -0.00000001     0.21D-05     0.15D-04     9     0       0.00      0.07    diag
  16   -139.46713928    -0.00000000     0.74D-06     0.47D-05     9     0       0.01      0.08    diag

 Final alpha occupancy:  10
 Final beta  occupancy:   9

 !UHF STATE 1.1 Energy               -139.467139282703
  UHF One-electron energy            -269.778857231701
  UHF Two-electron energy              91.513953245419
  UHF Kinetic energy                  139.469799932557
  UHF Nuclear energy                   38.797764703579
  UHF Virial quotient                  -0.999980923111

 !UHF STATE 1.1 Dipole moment           0.00001742    -0.87445167    -0.00000000
 Dipole moment /Debye                   0.00004429    -2.22263446    -0.00000000

 EXPECTATION VALUE OF S**2:             0.83366514

 Orbital energies for positive spin:

           1.1          2.1          3.1          4.1          5.1          6.1          7.1          8.1          9.1         10.1
    -26.292606   -11.301018    -1.547817    -0.974463    -0.663231    -0.663209    -0.657030    -0.571729    -0.571723    -0.277220

          11.1         12.1
      0.173616     0.189629

 Orbital energies for negative spin:

           1.1          2.1          3.1          4.1          5.1          6.1          7.1          8.1          9.1         10.1
    -26.298961   -11.286817    -1.564720    -0.935369    -0.689218    -0.660231    -0.660210    -0.567676    -0.567665     0.144984

          11.1
      0.188757


 HOMO     10.1    -0.277220 =      -7.5435eV
 LUMO    -10.1     0.144984 =       3.9452eV
 LUMO-HOMO         0.422204 =      11.4888eV

 Orbitals saved in record  2200.2

 Occupation number threshold for pseudo-canonical orbitals: 1.9990 (occupied), 0.0010 (virtual)

 Number of pseudo-canonical occupied orbitals per symmetry:    8
 Number of active natural orbitals per symmetry:               3

 Natural orbitals saved to record    2200.2 (Orbital set 3)

 Orbital spaces for UNO-CAS (Min. occupation: 0.020  Max. occupation: 1.980):

 Closed:        8
 Active:        3


 **********************************************************************************************************************************
 DATASETS  * FILE   NREC   LENGTH (MB)   RECORD NAMES
              1      19       31.09       500      610      700      900      950      970     1000      129      960     1100   
                                          VAR    BASINP    GEOM    SYMINP    ZMAT    AOBASIS   BASIS     P2S    ABASIS      S 
                                         1400     1410     1200     1210     1080     1600     1650     1300     1700   
                                           T        V       H0       H01     AOSYM     SMH    MOLCAS    ERIS     OPER   

              2       4        0.56       700     1000      520     2200   
                                         GEOM     BASIS   MCVARS     UHF  

              4       3        0.46      2900     3000     3100   

 PROGRAMS   *        TOTAL   UHF-SCF       INT
 CPU TIMES  *         0.30      0.08      0.14
 REAL TIME  *         1.00 SEC
 DISK USED  *        40.22 MB
 **********************************************************************************************************************************

 Dump information in style XML to xml output                                                                      

 Orbitals will not be exported.

 **********************************************************************************************************************************

 UHF/cc-pVDZ energy=   -139.467139282703

         UHF-SCF
   -139.46713928
 **********************************************************************************************************************************
 Molpro calculation terminated
