
 Working directory              : /var/folders/2v/xbgp75_9785319ghcgb4zr4r0000gp/T//molpro.TOYi3g651P/
 Global scratch directory       : /var/folders/2v/xbgp75_9785319ghcgb4zr4r0000gp/T//molpro.TOYi3g651P/
 Wavefunction directory         : /Users/sacpjk/wfu/
 Main file repository           : /var/folders/2v/xbgp75_9785319ghcgb4zr4r0000gp/T//molpro.TOYi3g651P/

 id        : peterk

 Nodes                        nprocs
 Cardiff-University-G34YLXT77Y    1
 GA implementation: MPI file
 GA implementation (serial work in mppx): MPI file

 Using customized tuning parameters: mindgm=1; mindgv=20; mindgc=4; mindgr=1; noblas=0; minvec=7
 default implementation of scratch files=df  


 Variables initialized (1032), CPU time= 0.00 sec
 
 symmetry,nosym
 
 
 geometry={
           13
     C         -1.95562211     -0.53954090      0.00000805
     C         -1.13108458      0.71318040      0.00005005
     C          0.20564837      0.80700882      0.00002705
     C          1.15756998     -0.30167414     -0.00004295
     C          2.48359820     -0.12620320     -0.00003495
     H         -2.60507076     -0.56886261      0.87713351
     H         -2.60511309     -0.56877265     -0.87708907
     H         -1.35131756     -1.44334918     -0.00005395
     H         -1.69365291      1.64032011      0.00010405
     H          0.64577091      1.79837477      0.00006505
     H          0.76527501     -1.31050982     -0.00010395
     H          3.16470753     -0.96498882     -0.00008695
     H          2.91929100      0.86501723      0.00002405
 }
 basis=cc-pVTZ
 
 
 
 hf; mp3
 
 
 
 {put,xml;noorbitals,nobasis}
 Commands initialized (841), CPU time= 0.01 sec, 704 directives.
 Default parameters read. Elapsed time= 1.16 sec

 Checking input...
 Passed
1


                                         ***  PROGRAM SYSTEM MOLPRO  ***
                                       Copyright, TTI GmbH Stuttgart, 2015
                                    Version 2023.1 linked Tue Jun  6 09:54:11 2023


 **********************************************************************************************************************************
 LABEL *                                                                                                                                                                 
  64 bit serial version                                                                  DATE: 09-Jun-23          TIME: 16:25:10  
 **********************************************************************************************************************************

 SHA1:             8ebb0dd001088a5c915591db1a321413035db0b1
 **********************************************************************************************************************************

 Memory per process:       805 MW
 Total memory per node:   1074 MW
 Total GA space:           268 MW

 GA preallocation disabled
 GA check enabled

 Variable memory set to 805.3 MW

 ZSYMEL=NOSYM


 Geometry recognized as XYZ

 SETTING BASIS          =    CC-PVTZ


 Recomputing integrals since basis changed


 Using spherical harmonics

 Library entry C      S cc-pVTZ              selected for orbital group  1
 Library entry C      P cc-pVTZ              selected for orbital group  1
 Library entry C      D cc-pVTZ              selected for orbital group  1
 Library entry C      F cc-pVTZ              selected for orbital group  1
 Library entry H      S cc-pVTZ              selected for orbital group  2
 Library entry H      P cc-pVTZ              selected for orbital group  2
 Library entry H      D cc-pVTZ              selected for orbital group  2


 PROGRAM * SEWARD (Integral evaluation for generally contracted gaussian basis sets)     Author: Roland Lindh, 1990

 Geometry written to block  1 of record 700


 Point group  C1  



 ATOMIC COORDINATES

 NR  ATOM    CHARGE       X              Y              Z

   1  C       6.00   -3.695590191   -1.019584534    0.000015212
   2  C       6.00   -2.137440080    1.347715633    0.000094581
   3  C       6.00    0.388619097    1.525025650    0.000051117
   4  C       6.00    2.187490232   -0.570081503   -0.000081164
   5  C       6.00    4.693320402   -0.238489484   -0.000066046
   6  H       1.00   -4.922870272   -1.074994535    1.657542109
   7  H       1.00   -4.922950264   -1.074824536   -1.657458129
   8  H       1.00   -2.553620096   -2.727534652   -0.000101951
   9  H       1.00   -3.200540150    3.099755765    0.000196626
  10  H       1.00    1.220330159    3.398435785    0.000122927
  11  H       1.00    1.446160179   -2.476504643   -0.000196437
  12  H       1.00    5.980430496   -1.823564583   -0.000164312
  13  H       1.00    5.516660468    1.634645658    0.000045448

 Bond lengths in Bohr (Angstrom)

 1-2  2.834068076  1-6  2.063172818  1-7  2.063172820  1-8  2.054553314  2-3  2.532274434
     ( 1.499724240)     ( 1.091784037)     ( 1.091784038)     ( 1.087222792)     ( 1.340021922)

  2- 9  2.049347796   3- 4  2.761414739   3-10  2.049733843   4- 5  2.527674446   4-11  2.045487582
       ( 1.084468151)       ( 1.461277750)       ( 1.084672438)       ( 1.337587713)       ( 1.082425414)

  5-12  2.041841197   5-13  2.046099738
       ( 1.080495830)       ( 1.082749352)

 Bond angles

  1-2-3  127.36793620   1-2-9  115.39873262   2-1-6  110.45402152   2-1-7  110.45386782

  2- 1- 8  112.87971288   2- 3- 4  126.63443987   2- 3-10  117.95423915   3- 2- 9  117.23333118

  3- 4- 5  123.11152689   3- 4-11  118.10139595   4- 3-10  115.41132098   4- 5-12  121.53918017

  4- 5-13  121.26603237   5- 4-11  118.78707715   6- 1- 7  106.90709601   6- 1- 8  107.95995642

  7- 1- 8  107.95986127  12- 5-13  117.19478746

 NUCLEAR CHARGE:                   38
 NUMBER OF PRIMITIVE AOS:         371
 NUMBER OF SYMMETRY AOS:          338
 NUMBER OF CONTRACTIONS:          262   (  262A   )
 NUMBER OF INNER CORE ORBITALS:     0   (    0A   )
 NUMBER OF OUTER CORE ORBITALS:     5   (    5A   )
 NUMBER OF VALENCE ORBITALS:       28   (   28A   )


 NUCLEAR REPULSION ENERGY  155.81513849


 Eigenvalues of metric

         1 0.206E-03 0.367E-03 0.531E-03 0.770E-03 0.899E-03 0.988E-03 0.121E-02 0.130E-02


 Contracted 2-electron integrals neglected if value below      1.0D-11
 AO integral compression algorithm  1   Integral accuracy      1.0D-11

     1558.184 MB (compressed) written to integral file ( 32.3%)


 NUMBER OF SORTED TWO-ELECTRON INTEGRALS:  593521831.     BUFFER LENGTH:  32768
 NUMBER OF SEGMENTS:  38  SEGMENT LENGTH:   15999762      RECORD LENGTH: 262144

 Memory used in sort:      16.29 MW

 SORT1 READ   602289909. AND WROTE   434610976. INTEGRALS IN   2506 RECORDS. CPU TIME:     4.30 SEC, REAL TIME:     5.39 SEC
 SORT2 READ   434610976. AND WROTE   593521831. INTEGRALS IN   5944 RECORDS. CPU TIME:     3.37 SEC, REAL TIME:     4.19 SEC

 FILE SIZES:   FILE 1:  1590.9 MBYTE,  FILE 4:  5255.5 MBYTE,   TOTAL:   6846.5 MBYTE

 OPERATOR DM      FOR CENTER  0  COORDINATES:    0.000000    0.000000    0.000000


 **********************************************************************************************************************************
 DATASETS  * FILE   NREC   LENGTH (MB)   RECORD NAMES
              1      19     1359.02       500      610      700      900      950      970     1000      129      960     1100   
                                          VAR    BASINP    GEOM    SYMINP    ZMAT    AOBASIS   BASIS     P2S    ABASIS      S 
                                         1400     1410     1200     1210     1080     1600     1650     1300     1700   
                                           T        V       H0       H01     AOSYM     SMH    MOLCAS    ERIS     OPER   

 PROGRAMS   *        TOTAL       INT
 CPU TIMES  *        19.45     19.36
 REAL TIME  *        25.38 SEC
 DISK USED  *         6.38 GB
 **********************************************************************************************************************************


 Program * Restricted Hartree-Fock

 Orbital guess generated from atomic densities. Full valence occupancy:   33

 Initial occupancy:  19

 NELEC=   38   SYM=1   MS2= 0   THRE=1.0D-08   THRD=3.2D-06   THRG=3.2D-06  HFMA2=F  DIIS_START=2   DIIS_MAX=10   DIIS_INCORE=F

 Level shifts:    0.00 (CLOSED)    0.00 (OPEN)    0.30 (GAP_MIN)

 ITER           ETOT              DE          GRAD        DDIFF     DIIS  NEXP   TIME(IT)  TIME(TOT)  DIAG
   1     -193.96418319    -193.96418319     0.00D+00     0.45D-01     0     0       2.55      4.94    start
   2     -194.01984780      -0.05566462     0.28D-02     0.41D-02     1     0       2.55      7.49    diag
   3     -194.02601835      -0.00617055     0.10D-02     0.12D-02     2     0       2.56     10.05    diag
   4     -194.02700836      -0.00099001     0.34D-03     0.52D-03     3     0       2.56     12.61    diag
   5     -194.02705608      -0.00004772     0.91D-04     0.12D-03     4     0       2.54     15.15    diag
   6     -194.02706199      -0.00000590     0.25D-04     0.47D-04     5     0       2.53     17.68    diag
   7     -194.02706241      -0.00000042     0.57D-05     0.12D-04     6     0       2.50     20.18    diag
   8     -194.02706246      -0.00000005     0.17D-05     0.37D-05     7     0       2.52     22.70    fixocc
   9     -194.02706247      -0.00000001     0.97D-06     0.18D-05     8     0       2.51     25.21    diag
  10     -194.02706247      -0.00000000     0.25D-06     0.45D-06     0     0       2.50     27.71    diag/orth

 Final occupancy:  19

 !RHF STATE 1.1 Energy               -194.027062467397
  RHF One-electron energy            -568.843805516099
  RHF Two-electron energy             219.001604561223
  RHF Kinetic energy                  193.775024080575
  RHF Nuclear energy                  155.815138487479
  RHF Virial quotient                  -1.001300675296

 !RHF STATE 1.1 Dipole moment          -0.20076796    -0.06155369     0.00000077
 Dipole moment /Debye                  -0.51030126    -0.15645387     0.00000195

 Orbital energies:

           1.1          2.1          3.1          4.1          5.1          6.1          7.1          8.1          9.1         10.1
    -11.233967   -11.233534   -11.226419   -11.223034   -11.222425    -1.095290    -1.025873    -0.932891    -0.808388    -0.727695

          11.1         12.1         13.1         14.1         15.1         16.1         17.1         18.1         19.1         20.1
     -0.657406    -0.615871    -0.570281    -0.567355    -0.536733    -0.522707    -0.476158    -0.432074    -0.312216     0.118475

          21.1
      0.145699


 HOMO     19.1    -0.312216 =      -8.4958eV
 LUMO     20.1     0.118475 =       3.2239eV
 LUMO-HOMO         0.430691 =      11.7197eV

 Orbitals saved in record  2100.2


 **********************************************************************************************************************************
 DATASETS  * FILE   NREC   LENGTH (MB)   RECORD NAMES
              1      19     1359.02       500      610      700      900      950      970     1000      129      960     1100   
                                          VAR    BASINP    GEOM    SYMINP    ZMAT    AOBASIS   BASIS     P2S    ABASIS      S 
                                         1400     1410     1200     1210     1080     1600     1650     1300     1700   
                                           T        V       H0       H01     AOSYM     SMH    MOLCAS    ERIS     OPER   

              2       4        1.67       700     1000      520     2100   
                                         GEOM     BASIS   MCVARS     RHF  

 PROGRAMS   *        TOTAL    HF-SCF       INT
 CPU TIMES  *        47.17     27.71     19.36
 REAL TIME  *        55.44 SEC
 DISK USED  *         6.38 GB
 **********************************************************************************************************************************


 PROGRAM * MP3 (Closed-shell)     Authors: C. Hampel, H.-J. Werner, 1991, M. Deegan, P.J. Knowles, 1992


 Convergence thresholds:  THRVAR = 1.00D-08  THRDEN = 1.00D-06

 Number of core orbitals:           5 (   5 )
 Number of closed-shell orbitals:  14 (  14 )
 Number of external orbitals:     243 ( 243 )

 Molecular orbitals read from record     2100.2  Type=RHF/CANONICAL  

 Number of N-1 electron functions:              14
 Number of N-2 electron functions:             105
 Number of singly external CSFs:              3402
 Number of doubly external CSFs:           5788503
 Total number of CSFs:                     5791906

 Length of J-op  integral file:               0.00 MB
 Length of K-op  integral file:               4.78 MB

 Integral transformation finished. Total CPU:   4.64 sec, npass=  1  Memory used:  13.38 MW

 Reference energy:                   -194.02706247

                        CORR.ENERGY   TOTAL ENERGY   ENERGY CHANGE
 MP2:                   -0.82572280  -194.85278527    -0.82572280

 SCS-MP2 correlation energy:           -0.82824250   (PS=  1.200000  PT=  0.333333)
 SCS-MP2 total energy:               -194.85530497

 MP3(D):                -0.86826207  -194.89532454    -0.04253927



 RESULTS
 =======

  Reference energy                   -194.027062467397
  MP3 singlet pair energy              -0.600926945591
  MP3 triplet pair energy              -0.267335124939
  MP3 correlation energy               -0.868262070531

 !MP3 total energy                   -194.895324537928

 Timing summary (sec):

 STEP                 CPU(USER)    SYS     CPU(TOT)    WALL
 Transformation          4.85      0.53      5.38      5.41
 CCSD iterations        59.41      0.41     59.82     12.95

 Program statistics:

 Available memory in ccsd:               805305565
 Min. memory needed in ccsd:              14535538
 Max. memory used in ccsd:                19778069
 Max. memory used in cckext:              15058152 ( 1 integral passes)



 **********************************************************************************************************************************
 DATASETS  * FILE   NREC   LENGTH (MB)   RECORD NAMES
              1      20     1442.67       500      610      700      900      950      970     1000      129      960     1100   
                                          VAR    BASINP    GEOM    SYMINP    ZMAT    AOBASIS   BASIS     P2S    ABASIS      S 
                                         1400     1410     1200     1210     1080     1600     1650     1300     1700     1380   
                                           T        V       H0       H01     AOSYM     SMH    MOLCAS    ERIS     OPER     JKOP   

              2       4        1.67       700     1000      520     2100   
                                         GEOM     BASIS   MCVARS     RHF  

 PROGRAMS   *        TOTAL       MP3    HF-SCF       INT
 CPU TIMES  *        64.18     17.01     27.71     19.36
 REAL TIME  *        73.87 SEC
 DISK USED  *         6.38 GB
 **********************************************************************************************************************************

 Dump information in style XML to xml output                                                                      

 Orbitals will not be exported.

 **********************************************************************************************************************************

 MP3/cc-pVTZ energy=   -194.895324537928

             MP3          HF-SCF
   -194.89532454   -194.02706247
 **********************************************************************************************************************************
 Molpro calculation terminated
