
 Working directory              : /var/folders/2v/xbgp75_9785319ghcgb4zr4r0000gp/T//molpro.jZQfXW1sCU/
 Global scratch directory       : /var/folders/2v/xbgp75_9785319ghcgb4zr4r0000gp/T//molpro.jZQfXW1sCU/
 Wavefunction directory         : /Users/sacpjk/wfu/
 Main file repository           : /var/folders/2v/xbgp75_9785319ghcgb4zr4r0000gp/T//molpro.jZQfXW1sCU/

 id        : peterk

 Nodes                        nprocs
 Cardiff-University-G34YLXT77Y    1
 GA implementation: MPI file
 GA implementation (serial work in mppx): MPI file

 Using customized tuning parameters: mindgm=1; mindgv=20; mindgc=4; mindgr=1; noblas=0; minvec=7
 default implementation of scratch files=df  


 Variables initialized (1032), CPU time= 0.01 sec
 
 symmetry,nosym
 
 
 geometry={
           17
     SI         0.00000000      1.94735480     -0.86167314
     SI         0.00000000      0.00000000      0.44778746
     SI         0.00000000     -1.94735480     -0.86167314
     SI         0.00000000     -3.87997284      0.46994748
     H          1.20207106      1.94015138     -1.73916028
     H         -1.20207106      1.94015138     -1.73916028
     SI         0.00000000      3.87997284      0.46994748
     H          1.20053481      0.00000000      1.32789750
     H         -1.20053481      0.00000000      1.32789750
     H          1.20207106     -1.94015138     -1.73916028
     H         -1.20207106     -1.94015138     -1.73916028
     H          0.00000000     -5.11417962     -0.35778141
     H          1.20544277     -3.89160768      1.33801820
     H         -1.20544277     -3.89160768      1.33801820
     H          0.00000000      5.11417962     -0.35778141
     H         -1.20544277      3.89160768      1.33801820
     H          1.20544277      3.89160768      1.33801820
 }
 basis=cc-pVTZ
 
 
 
 hf; hf; papt; mp2
 
 
 
 {put,xml;noorbitals,nobasis}
 Commands initialized (841), CPU time= 0.00 sec, 704 directives.
 Default parameters read. Elapsed time= 0.47 sec

 Checking input...
 Passed
1


                                         ***  PROGRAM SYSTEM MOLPRO  ***
                                       Copyright, TTI GmbH Stuttgart, 2015
                                    Version 2023.1 linked Tue Jun  6 09:54:11 2023


 **********************************************************************************************************************************
 LABEL *                                                                                                                                                                 
  64 bit serial version                                                                  DATE: 13-Jun-23          TIME: 06:24:01  
 **********************************************************************************************************************************

 SHA1:             8ebb0dd001088a5c915591db1a321413035db0b1
 **********************************************************************************************************************************

 Memory per process:       393 MW
 Total memory per node:    524 MW
 Total GA space:           131 MW

 GA preallocation disabled
 GA check enabled

 Variable memory set to 393.2 MW

 ZSYMEL=NOSYM


 Geometry recognized as XYZ

 SETTING BASIS          =    CC-PVTZ


 Recomputing integrals since basis changed


 Using spherical harmonics

 Library entry SI     S cc-pVTZ              selected for orbital group  1
 Library entry SI     P cc-pVTZ              selected for orbital group  1
 Library entry SI     D cc-pVTZ              selected for orbital group  1
 Library entry SI     F cc-pVTZ              selected for orbital group  1
 Library entry H      S cc-pVTZ              selected for orbital group  2
 Library entry H      P cc-pVTZ              selected for orbital group  2
 Library entry H      D cc-pVTZ              selected for orbital group  2


 PROGRAM * SEWARD (Integral evaluation for generally contracted gaussian basis sets)     Author: Roland Lindh, 1990

 Geometry written to block  1 of record 700


 Point group  C1  



 ATOMIC COORDINATES

 NR  ATOM    CHARGE       X              Y              Z

   1  SI     14.00    0.000000000    3.679967239   -1.628326244
   2  SI     14.00    0.000000000    0.000000000    0.846195661
   3  SI     14.00    0.000000000   -3.679967239   -1.628326244
   4  SI     14.00    0.000000000   -7.332086039    0.888072030
   5  H       1.00    2.271585086    3.666354749   -3.286536616
   6  H       1.00   -2.271585086    3.666354749   -3.286536616
   7  SI     14.00    0.000000000    7.332086039    0.888072030
   8  H       1.00    2.268681994    0.000000000    2.509362597
   9  H       1.00   -2.268681994    0.000000000    2.509362597
  10  H       1.00    2.271585086   -3.666354749   -3.286536616
  11  H       1.00   -2.271585086   -3.666354749   -3.286536616
  12  H       1.00    0.000000000   -9.664398834   -0.676108877
  13  H       1.00    2.277956694   -7.354072700    2.528487948
  14  H       1.00   -2.277956694   -7.354072700    2.528487948
  15  H       1.00    0.000000000    9.664398834   -0.676108877
  16  H       1.00   -2.277956694    7.354072700    2.528487948
  17  H       1.00    2.277956694    7.354072700    2.528487948

 Bond lengths in Bohr (Angstrom)

 1-2  4.434570728  1-5  2.812462576  1-6  2.812462576  1-7  4.435113527  2-3  4.434570728
     ( 2.346673769)     ( 1.488291102)     ( 1.488291102)     ( 2.346961006)     ( 2.346673769)

  2- 8  2.813013019   2- 9  2.813013019   3- 4  4.435113527   3-10  2.812462576   3-11  2.812462576
       ( 1.488582384)       ( 1.488582384)       ( 2.346961006)       ( 1.488291102)       ( 1.488291102)

  4-12  2.808263678   4-13  2.807228971   4-14  2.807228971   7-15  2.808263678   7-16  2.807228971
       ( 1.486069141)       ( 1.485521597)       ( 1.485521597)       ( 1.486069141)       ( 1.485521597)

  7-17  2.807228971
       ( 1.485521597)

 Bond angles

  1- 2- 3  112.16382712   1- 2- 8  109.26369735   1- 2- 9  109.26369735   1- 7-15  111.58417652

  1- 7-16  109.75511656   1- 7-17  109.75511656   2- 1- 5  108.96442616   2- 1- 6  108.96442616

  2- 1- 7  111.51413117   2- 3- 4  111.51413117   2- 3-10  108.96442616   2- 3-11  108.96442616

  3- 2- 8  109.26369735   3- 2- 9  109.26369735   3- 4-12  111.58417652   3- 4-13  109.75511656

  3- 4-14  109.75511656   4- 3-10  109.78610619   4- 3-11  109.78610619   5- 1- 6  107.74081118

  5- 1- 7  109.78610619   6- 1- 7  109.78610619   8- 2- 9  107.50983989  10- 3-11  107.74081118

 12- 4-13  108.60100594  12- 4-14  108.60100594  13- 4-14  108.47783395  15- 7-16  108.60100594

 15- 7-17  108.60100594  16- 7-17  108.47783395

 NUCLEAR CHARGE:                   82
 NUMBER OF PRIMITIVE AOS:         524
 NUMBER OF SYMMETRY AOS:          487
 NUMBER OF CONTRACTIONS:          338   (  338A   )
 NUMBER OF INNER CORE ORBITALS:     5   (    5A   )
 NUMBER OF OUTER CORE ORBITALS:    20   (   20A   )
 NUMBER OF VALENCE ORBITALS:       32   (   32A   )


 NUCLEAR REPULSION ENERGY  455.83535469


 Eigenvalues of metric

         1 0.740E-03 0.101E-02 0.110E-02 0.115E-02 0.139E-02 0.178E-02 0.193E-02 0.201E-02


 Contracted 2-electron integrals neglected if value below      1.0D-11
 AO integral compression algorithm  1   Integral accuracy      1.0D-11

     2814.902 MB (compressed) written to integral file ( 25.5%)


 NUMBER OF SORTED TWO-ELECTRON INTEGRALS: 1641157986.     BUFFER LENGTH:  32768
 NUMBER OF SEGMENTS:  52  SEGMENT LENGTH:   31998710      RECORD LENGTH: 524288

 Memory used in sort:      32.56 MW

 SORT1 READ  1381568936. AND WROTE   790837151. INTEGRALS IN   2289 RECORDS. CPU TIME:     9.76 SEC, REAL TIME:    12.85 SEC
 SORT2 READ   790837151. AND WROTE  1641157986. INTEGRALS IN  10738 RECORDS. CPU TIME:     7.92 SEC, REAL TIME:     9.85 SEC

 FILE SIZES:   FILE 1:  2849.4 MBYTE,  FILE 4:  9600.8 MBYTE,   TOTAL:  12450.2 MBYTE

 OPERATOR DM      FOR CENTER  0  COORDINATES:    0.000000    0.000000    0.000000


 **********************************************************************************************************************************
 DATASETS  * FILE   NREC   LENGTH (MB)   RECORD NAMES
              1      19     2415.45       500      610      700      900      950      970     1000      129      960     1100   
                                          VAR    BASINP    GEOM    SYMINP    ZMAT    AOBASIS   BASIS     P2S    ABASIS      S 
                                         1400     1410     1200     1210     1080     1600     1650     1300     1700   
                                           T        V       H0       H01     AOSYM     SMH    MOLCAS    ERIS     OPER   

 PROGRAMS   *        TOTAL       INT
 CPU TIMES  *        47.09     47.00
 REAL TIME  *        57.34 SEC
 DISK USED  *        11.60 GB
 **********************************************************************************************************************************


 Program * Restricted Hartree-Fock

 Orbital guess generated from atomic densities. Full valence occupancy:   57

 Initial occupancy:  41

 NELEC=   82   SYM=1   MS2= 0   THRE=1.0D-08   THRD=3.2D-06   THRG=3.2D-06  HFMA2=F  DIIS_START=2   DIIS_MAX=10   DIIS_INCORE=F

 Level shifts:    0.00 (CLOSED)    0.00 (OPEN)    0.30 (GAP_MIN)

 ITER           ETOT              DE          GRAD        DDIFF     DIIS  NEXP   TIME(IT)  TIME(TOT)  DIAG
   1    -1451.63563412   -1451.63563412     0.00D+00     0.51D-01     0     0       6.66     12.91    start
   2    -1451.69667391      -0.06103980     0.13D-02     0.23D-02     1     0       6.68     19.59    diag
   3    -1451.70529772      -0.00862381     0.44D-03     0.84D-03     2     0       6.93     26.52    diag
   4    -1451.70553909      -0.00024136     0.79D-04     0.19D-03     3     0       6.87     33.39    diag
   5    -1451.70555631      -0.00001723     0.22D-04     0.64D-04     4     0       6.56     39.95    diag
   6    -1451.70555724      -0.00000093     0.44D-05     0.20D-04     5     0       6.53     46.48    diag
   7    -1451.70555727      -0.00000003     0.84D-06     0.31D-05     6     0       6.39     52.87    diag
   8    -1451.70555727      -0.00000000     0.23D-06     0.66D-06     7     0       6.42     59.29    fixocc
   9    -1451.70555727      -0.00000000     0.50D-07     0.14D-06     0     0       6.31     65.60    diag

 Final occupancy:  41

 !RHF STATE 1.1 Energy              -1451.705557272781
  RHF One-electron energy           -2922.003100872084
  RHF Two-electron energy            1014.462188911194
  RHF Kinetic energy                 1451.795925729084
  RHF Nuclear energy                  455.835354688109
  RHF Virial quotient                  -0.999937754023

 !RHF STATE 1.1 Dipole moment           0.00000000     0.00000000    -0.04889176
 Dipole moment /Debye                   0.00000000     0.00000000    -0.12427046

 Orbital energies:

           1.1          2.1          3.1          4.1          5.1          6.1          7.1          8.1          9.1         10.1
    -68.775622   -68.775622   -68.773884   -68.773173   -68.773173    -6.125227    -6.125227    -6.124096    -6.123431    -6.123414

          11.1         12.1         13.1         14.1         15.1         16.1         17.1         18.1         19.1         20.1
     -4.231156    -4.231155    -4.231108    -4.231108    -4.231081    -4.231081    -4.230019    -4.229900    -4.229854    -4.229206

          21.1         22.1         23.1         24.1         25.1         26.1         27.1         28.1         29.1         30.1
     -4.229200    -4.229128    -4.229095    -4.229055    -4.228991    -0.780858    -0.752911    -0.711907    -0.667467    -0.639791

          31.1         32.1         33.1         34.1         35.1         36.1         37.1         38.1         39.1         40.1
     -0.514457    -0.499657    -0.490942    -0.487907    -0.483450    -0.472056    -0.467544    -0.429644    -0.422016    -0.415270

          41.1         42.1         43.1
     -0.359463     0.090011     0.112413


 HOMO     41.1    -0.359463 =      -9.7815eV
 LUMO     42.1     0.090011 =       2.4493eV
 LUMO-HOMO         0.449474 =      12.2308eV

 Orbitals saved in record  2100.2


 **********************************************************************************************************************************
 DATASETS  * FILE   NREC   LENGTH (MB)   RECORD NAMES
              1      19     2415.45       500      610      700      900      950      970     1000      129      960     1100   
                                          VAR    BASINP    GEOM    SYMINP    ZMAT    AOBASIS   BASIS     P2S    ABASIS      S 
                                         1400     1410     1200     1210     1080     1600     1650     1300     1700   
                                           T        V       H0       H01     AOSYM     SMH    MOLCAS    ERIS     OPER   

              2       4        2.44       700     1000      520     2100   
                                         GEOM     BASIS   MCVARS     RHF  

 PROGRAMS   *        TOTAL    HF-SCF       INT
 CPU TIMES  *       112.70     65.61     47.00
 REAL TIME  *       129.87 SEC
 DISK USED  *        11.60 GB
 **********************************************************************************************************************************


 Program * Restricted Hartree-Fock

 Molecular orbitals read from record     2100.2  Type=RHF/CANONICAL  

 Initial occupancy:  41

 NELEC=   82   SYM=1   MS2= 0   THRE=1.0D-08   THRD=3.2D-06   THRG=3.2D-06  HFMA2=F  DIIS_START=2   DIIS_MAX=10   DIIS_INCORE=F

 Level shifts:    0.00 (CLOSED)    0.00 (OPEN)    0.30 (GAP_MIN)

 ITER           ETOT              DE          GRAD        DDIFF     DIIS  NEXP   TIME(IT)  TIME(TOT)  DIAG
   1    -1451.70555727   -1451.70555727     0.00D+00     0.52D-01     0     0       6.55      6.55    start
   2    -1451.70555727      -0.00000000     0.20D-07     0.51D-07     1     0       6.60     13.15    diag

 Final occupancy:  41

 !RHF STATE 1.1 Energy              -1451.705557272782
  RHF One-electron energy           -2922.003110603061
  RHF Two-electron energy            1014.462198642170
  RHF Kinetic energy                 1451.795928633435
  RHF Nuclear energy                  455.835354688109
  RHF Virial quotient                  -0.999937752022

 !RHF STATE 1.1 Dipole moment          -0.00000000    -0.00000000    -0.04889495
 Dipole moment /Debye                  -0.00000000    -0.00000000    -0.12427858

 Orbital energies:

           1.1          2.1          3.1          4.1          5.1          6.1          7.1          8.1          9.1         10.1
    -68.775622   -68.775622   -68.773886   -68.773174   -68.773174    -6.125226    -6.125226    -6.124097    -6.123432    -6.123415

          11.1         12.1         13.1         14.1         15.1         16.1         17.1         18.1         19.1         20.1
     -4.231155    -4.231155    -4.231108    -4.231108    -4.231081    -4.231081    -4.230021    -4.229901    -4.229855    -4.229207

          21.1         22.1         23.1         24.1         25.1         26.1         27.1         28.1         29.1         30.1
     -4.229201    -4.229129    -4.229096    -4.229056    -4.228992    -0.780858    -0.752911    -0.711907    -0.667467    -0.639791

          31.1         32.1         33.1         34.1         35.1         36.1         37.1         38.1         39.1         40.1
     -0.514457    -0.499657    -0.490941    -0.487906    -0.483450    -0.472056    -0.467544    -0.429645    -0.422017    -0.415270

          41.1         42.1         43.1
     -0.359464     0.090011     0.112412


 HOMO     41.1    -0.359464 =      -9.7815eV
 LUMO     42.1     0.090011 =       2.4493eV
 LUMO-HOMO         0.449475 =      12.2308eV

 Orbitals saved in record  2101.2


 **********************************************************************************************************************************
 DATASETS  * FILE   NREC   LENGTH (MB)   RECORD NAMES
              1      19     2415.45       500      610      700      900      950      970     1000      129      960     1100   
                                          VAR    BASINP    GEOM    SYMINP    ZMAT    AOBASIS   BASIS     P2S    ABASIS      S 
                                         1400     1410     1200     1210     1080     1600     1650     1300     1700   
                                           T        V       H0       H01     AOSYM     SMH    MOLCAS    ERIS     OPER   

              2       5        5.60       700     1000      520     2100     2101   
                                         GEOM     BASIS   MCVARS     RHF      RHF  

 PROGRAMS   *        TOTAL    HF-SCF    HF-SCF       INT
 CPU TIMES  *       125.86     13.16     65.61     47.00
 REAL TIME  *       144.73 SEC
 DISK USED  *        11.60 GB
 **********************************************************************************************************************************


 PROGRAM * PAPT (Closed-shell)     Authors: C. Hampel, H.-J. Werner, 1991, P.J. Knowles, 2021


 Convergence thresholds:  THRVAR = 1.00D-08  THRDEN = 1.00D-06

 Number of core orbitals:          25 (  25 )
 Number of closed-shell orbitals:  16 (  16 )
 Number of external orbitals:     297 ( 297 )

 Molecular orbitals read from record     2101.2  Type=RHF/CANONICAL  

 Number of N-1 electron functions:              16
 Number of N-2 electron functions:             136
 Number of singly external CSFs:              4752
 Number of doubly external CSFs:          11293128
 Total number of CSFs:                    11297881

 Length of J-op  integral file:               0.00 MB
 Length of K-op  integral file:               7.91 MB

 Integral transformation finished. Total CPU:  16.23 sec, npass=  1  Memory used:  27.90 MW

 Reference energy:                  -1451.70555727

                        CORR.ENERGY   TOTAL ENERGY   ENERGY CHANGE
 MP2:                   -0.63505536 -1452.34061263    -0.63505536

 SCS-MP2 correlation energy:           -0.67838312   (PS=  1.200000  PT=  0.333333)
 SCS-MP2 total energy:              -1452.38394040
 Iteration:   1     0.2269D+00
 Iteration:   2     0.2729D+00
 Iteration:   3     0.8170D-01
 Iteration:   4     0.6126D-01
 Iteration:   5     0.7344D-01
 Iteration:   6     0.3017D-01
 Iteration:   7     0.1019D+00
 Iteration:   8     0.1311D-01
 Iteration:   9     0.1016D-01
 Iteration:  10     0.7994D-02
 Iteration:  11     0.1840D-02
 Iteration:  12     0.2357D-02
 Iteration:  13     0.1187D-02
 Iteration:  14     0.5093D-03
 Iteration:  15     0.2203D-02
 Iteration:  16     0.1159D-03
 Iteration:  17     0.1346D-03
 Iteration:  18     0.7474D-04
 PAPT operator written to  7000.1
 PAPT orbitals and eigenvalues written to  7000.2

 MP3(D):                -0.73040825 -1452.43596552    -0.09535289



 RESULTS
 =======

  Reference energy                  -1451.705557272793
  MP3 singlet pair energy              -0.573922577811
  MP3 triplet pair energy              -0.156485668678
  MP3 correlation energy               -0.730408246488

 !MP3 total energy                  -1452.435965519281

 Timing summary (sec):

 STEP                 CPU(USER)    SYS     CPU(TOT)    WALL
 Transformation         17.18      2.10     19.28     20.09
 CCSD iterations       208.20      3.01    211.21     86.88

 Program statistics:

 Available memory in ccsd:               393214935
 Min. memory needed in ccsd:              27758494
 Max. memory used in ccsd:                37931766
 Max. memory used in cckext:              32146366 ( 1 integral passes)



 **********************************************************************************************************************************
 DATASETS  * FILE   NREC   LENGTH (MB)   RECORD NAMES
              1      21     2595.62       500      610      700      900      950      970     1000      129      960     1100   
                                          VAR    BASINP    GEOM    SYMINP    ZMAT    AOBASIS   BASIS     P2S    ABASIS      S 
                                         1400     1410     1200     1210     1080     1600     1650     1300     1700     1380   
                                           T        V       H0       H01     AOSYM     SMH    MOLCAS    ERIS     OPER     JKOP   
                                         7000   
                                        PAPT AO    

              2       6        8.33       700     1000      520     2100     2101     7000   
                                         GEOM     BASIS   MCVARS     RHF      RHF     PAPT   

 PROGRAMS   *        TOTAL      PAPT    HF-SCF    HF-SCF       INT
 CPU TIMES  *       225.28     99.41     13.16     65.61     47.00
 REAL TIME  *       251.98 SEC
 DISK USED  *        11.60 GB
 **********************************************************************************************************************************


 PROGRAM * MP2 (Closed-shell)     Authors: C. Hampel, H.-J. Werner, 1991, M. Deegan, P.J. Knowles, 1992


 Convergence thresholds:  THRVAR = 1.00D-08  THRDEN = 1.00D-06

 Number of core orbitals:          25 (  25 )
 Number of closed-shell orbitals:  16 (  16 )
 Number of external orbitals:     297 ( 297 )

 Molecular orbitals read from record     7000.2  Type=PAPT/CANONICAL (state 1.1)

 Number of N-1 electron functions:              16
 Number of N-2 electron functions:             136
 Number of singly external CSFs:              4752
 Number of doubly external CSFs:          11293128
 Total number of CSFs:                    11297881

 Length of J-op  integral file:               0.00 MB
 Length of K-op  integral file:               7.91 MB

 Integral transformation finished. Total CPU:  14.30 sec, npass=  1  Memory used:  27.90 MW
 Orbital energies read from record       7000.2  Type=PAPT/CANONICAL (state 1.1)

 Memory needed for MP2:                      0.52 MW

 SCS-MP2 correlation energy:           -0.808771433240   (PS=  1.200000  PT=  0.333333)
 SCS-MP2 total energy:              -1452.514328706028


  Reference energy                  -1451.705557272788
  MP2 singlet pair energy              -0.585887765655
  MP2 triplet pair energy              -0.169884826801
  MP2 correlation energy               -0.755772592456

 !MP2 total energy                  -1452.461329865244


 **********************************************************************************************************************************
 DATASETS  * FILE   NREC   LENGTH (MB)   RECORD NAMES
              1      21     2595.62       500      610      700      900      950      970     1000      129      960     1100   
                                          VAR    BASINP    GEOM    SYMINP    ZMAT    AOBASIS   BASIS     P2S    ABASIS      S 
                                         1400     1410     1200     1210     1080     1600     1650     1300     1700     1380   
                                           T        V       H0       H01     AOSYM     SMH    MOLCAS    ERIS     OPER     JKOP   
                                         7000   
                                        PAPT AO    

              2       6        8.33       700     1000      520     2100     2101     7000   
                                         GEOM     BASIS   MCVARS     RHF      RHF     PAPT   

 PROGRAMS   *        TOTAL       MP2      PAPT    HF-SCF    HF-SCF       INT
 CPU TIMES  *       246.79     21.49     99.41     13.16     65.61     47.00
 REAL TIME  *       276.59 SEC
 DISK USED  *        11.60 GB
 **********************************************************************************************************************************

 Dump information in style XML to xml output                                                                      

 Orbitals will not be exported.

 **********************************************************************************************************************************

 MP2/cc-pVTZ energy=  -1452.461329865244

             MP2            PAPT          HF-SCF          HF-SCF
  -1452.46132987  -1452.43596552  -1451.70555727  -1451.70555727
 **********************************************************************************************************************************
 Molpro calculation terminated
