
 Working directory              : /var/folders/2v/xbgp75_9785319ghcgb4zr4r0000gp/T//molpro.jKn6LlDGvP/
 Global scratch directory       : /var/folders/2v/xbgp75_9785319ghcgb4zr4r0000gp/T//molpro.jKn6LlDGvP/
 Wavefunction directory         : /Users/sacpjk/wfu/
 Main file repository           : /var/folders/2v/xbgp75_9785319ghcgb4zr4r0000gp/T//molpro.jKn6LlDGvP/

 id        : peterk

 Nodes                        nprocs
 Cardiff-University-G34YLXT77Y    1
 GA implementation: MPI file
 GA implementation (serial work in mppx): MPI file

 Using customized tuning parameters: mindgm=1; mindgv=20; mindgc=4; mindgr=1; noblas=0; minvec=7
 default implementation of scratch files=df  


 Variables initialized (1032), CPU time= 0.00 sec
 
 symmetry,nosym
 
 
 geometry={
            6
     C          0.00000024      0.48549076      0.00000000
     H          1.05342810      0.73734579      0.00000000
     H         -0.52662690      0.73770298      0.91224866
     H         -0.52662690      0.73770298     -0.91224866
     H         -0.00025976     -0.89709276      0.00000000
     H          0.00008524     -1.80114975      0.00000000
 }
 basis=cc-pVDZ
 
 
 spin=1
 uhf
 
 
 
 {put,xml;noorbitals,nobasis}
 Commands initialized (841), CPU time= 0.00 sec, 704 directives.
 Default parameters read. Elapsed time= 0.23 sec

 Checking input...
 Passed
1


                                         ***  PROGRAM SYSTEM MOLPRO  ***
                                       Copyright, TTI GmbH Stuttgart, 2015
                                    Version 2023.1 linked Tue Jun  6 09:54:11 2023


 **********************************************************************************************************************************
 LABEL *                                                                                                                                                                 
  64 bit serial version                                                                  DATE: 09-Jun-23          TIME: 09:27:15  
 **********************************************************************************************************************************

 SHA1:             8ebb0dd001088a5c915591db1a321413035db0b1
 **********************************************************************************************************************************

 Memory per process:       805 MW
 Total memory per node:   1074 MW
 Total GA space:           268 MW

 GA preallocation disabled
 GA check enabled

 Variable memory set to 805.3 MW

 ZSYMEL=NOSYM


 Geometry recognized as XYZ

 SETTING BASIS          =    CC-PVDZ
 SETTING SPIN           =         1.00000000                                  


 Recomputing integrals since basis changed


 Using spherical harmonics

 Library entry C      S cc-pVDZ              selected for orbital group  1
 Library entry C      P cc-pVDZ              selected for orbital group  1
 Library entry C      D cc-pVDZ              selected for orbital group  1
 Library entry H      S cc-pVDZ              selected for orbital group  2
 Library entry H      P cc-pVDZ              selected for orbital group  2


 PROGRAM * SEWARD (Integral evaluation for generally contracted gaussian basis sets)     Author: Roland Lindh, 1990

 Geometry written to block  1 of record 700


 Point group  C1  



 ATOMIC COORDINATES

 NR  ATOM    CHARGE       X              Y              Z

   1  C       6.00    0.000000454    0.917444572    0.000000000
   2  H       1.00    1.990690601    1.393381602    0.000000000
   3  H       1.00   -0.995180611    1.394056594    1.723900125
   4  H       1.00   -0.995180611    1.394056594   -1.723900125
   5  H       1.00   -0.000490875   -1.695259625    0.000000000
   6  H       1.00    0.000161080   -3.403679737    0.000000000

 Bond lengths in Bohr (Angstrom)

 1-2  2.046793424  1-3  2.046796524  1-4  2.046796524  1-5  2.612704243
     ( 1.083116435)     ( 1.083118076)     ( 1.083118076)     ( 1.382583544)

 Bond angles

  2-1-3  114.75511179   2-1-4  114.75511179   2-1-5  103.45673334   3-1-4  114.75548505

  3-1-5  103.45997911   4-1-5  103.45997911

 NUCLEAR CHARGE:                   11
 NUMBER OF PRIMITIVE AOS:          62
 NUMBER OF SYMMETRY AOS:           61
 NUMBER OF CONTRACTIONS:           39   (   39A   )
 NUMBER OF INNER CORE ORBITALS:     0   (    0A   )
 NUMBER OF OUTER CORE ORBITALS:     1   (    1A   )
 NUMBER OF VALENCE ORBITALS:        9   (    9A   )


 NUCLEAR REPULSION ENERGY   15.32861908


 Eigenvalues of metric

         1 0.897E-02 0.189E-01 0.365E-01 0.365E-01 0.389E-01 0.521E-01 0.540E-01 0.540E-01


 Contracted 2-electron integrals neglected if value below      1.0D-11
 AO integral compression algorithm  1   Integral accuracy      1.0D-11

     1.573 MB (compressed) written to integral file ( 60.8%)


 NUMBER OF SORTED TWO-ELECTRON INTEGRALS:     304590.     BUFFER LENGTH:  32768
 NUMBER OF SEGMENTS:   1  SEGMENT LENGTH:     304590      RECORD LENGTH: 524288

 Memory used in sort:       0.86 MW

 SORT1 READ      367325. AND WROTE      256874. INTEGRALS IN      1 RECORDS. CPU TIME:     0.00 SEC, REAL TIME:     0.00 SEC
 SORT2 READ      256874. AND WROTE      304590. INTEGRALS IN      6 RECORDS. CPU TIME:     0.01 SEC, REAL TIME:     0.02 SEC

 FILE SIZES:   FILE 1:    31.7 MBYTE,  FILE 4:     4.3 MBYTE,   TOTAL:     36.0 MBYTE

 OPERATOR DM      FOR CENTER  0  COORDINATES:    0.000000    0.000000    0.000000


 **********************************************************************************************************************************
 DATASETS  * FILE   NREC   LENGTH (MB)   RECORD NAMES
              1      19       29.94       500      610      700      900      950      970     1000      129      960     1100   
                                          VAR    BASINP    GEOM    SYMINP    ZMAT    AOBASIS   BASIS     P2S    ABASIS      S 
                                         1400     1410     1200     1210     1080     1600     1650     1300     1700   
                                           T        V       H0       H01     AOSYM     SMH    MOLCAS    ERIS     OPER   

 PROGRAMS   *        TOTAL       INT
 CPU TIMES  *         0.18      0.10
 REAL TIME  *         1.05 SEC
 DISK USED  *        34.69 MB
 **********************************************************************************************************************************


 Program * Unrestricted Hartree-Fock

 Orbital guess generated from atomic densities. Full valence occupancy:   10

 Initial alpha occupancy:   6
 Initial beta  occupancy:   5

 Elapsed time for starting guess:      0.01 sec

 NELEC=   11   SYM=1   MS2=1   THRE=1.0D-08   THRD=3.2D-06   THRG=3.2D-06  HFMA2=F  DIIS_START=2   DIIS_MAX=10   DIIS_INCORE=F

 Initial level shifts:    0.20 (ALPHA)    0.20 (BETA)

 ITER         ETOT            DE          GRAD         DDIFF    DIIS  NEXP   TIME(IT)  TIME(TOT)  DIAG
   1    -40.63095791   -40.63095791     0.00D+00     0.00D+00     0     0       0.00      0.01    start
   2    -40.65341409    -0.02245618     0.94D-02     0.14D+00     1     0       0.00      0.01    diag
   3    -40.65833087    -0.00491678     0.37D-02     0.13D-01     2     0       0.00      0.01    diag
   4    -40.65978167    -0.00145080     0.20D-02     0.56D-02     3     0       0.00      0.01    diag
   5    -40.66005370    -0.00027203     0.70D-03     0.23D-02     4     0       0.01      0.02    diag
   6    -40.66009503    -0.00004133     0.25D-03     0.78D-03     5     0       0.00      0.02    diag
   7    -40.66010371    -0.00000868     0.11D-03     0.26D-03     6     0       0.00      0.02    diag
   8    -40.66010598    -0.00000226     0.51D-04     0.14D-03     7     0       0.00      0.02    diag
   9    -40.66010638    -0.00000041     0.22D-04     0.91D-04     7     0       0.00      0.02    diag
  10    -40.66010645    -0.00000007     0.98D-05     0.47D-04     7     0       0.01      0.03    diag/ort
  11    -40.66010647    -0.00000001     0.43D-05     0.24D-04     7     0       0.00      0.03    diag
  12    -40.66010647    -0.00000000     0.17D-05     0.11D-04     8     0       0.00      0.03    diag
  13    -40.66010647    -0.00000000     0.61D-06     0.44D-05     8     0       0.00      0.03    diag

 Final alpha occupancy:   6
 Final beta  occupancy:   5

 !UHF STATE 1.1 Energy                -40.660106469789
  UHF One-electron energy             -83.820180647371
  UHF Two-electron energy              27.831455100943
  UHF Kinetic energy                   40.604184846859
  UHF Nuclear energy                   15.328619076640
  UHF Virial quotient                  -1.001377237916

 !UHF STATE 1.1 Dipole moment           0.00001351     0.35329222    -0.00000000
 Dipole moment /Debye                   0.00003433     0.89797925    -0.00000000

 EXPECTATION VALUE OF S**2:             0.78796542

 Orbital energies for positive spin:

           1.1          2.1          3.1          4.1          5.1          6.1          7.1          8.1
    -11.249993    -0.971014    -0.624320    -0.578211    -0.578210    -0.355301     0.196166     0.261286

 Orbital energies for negative spin:

           1.1          2.1          3.1          4.1          5.1          6.1          7.1
    -11.229507    -0.905640    -0.565696    -0.565695    -0.533680     0.097413     0.208399


 HOMO      6.1    -0.355301 =      -9.6682eV
 LUMO     -6.1     0.097413 =       2.6507eV
 LUMO-HOMO         0.452714 =      12.3190eV

 Orbitals saved in record  2200.2

 Occupation number threshold for pseudo-canonical orbitals: 1.9990 (occupied), 0.0010 (virtual)

 Number of pseudo-canonical occupied orbitals per symmetry:    3
 Number of active natural orbitals per symmetry:               5

 Natural orbitals saved to record    2200.2 (Orbital set 3)

 Orbital spaces for UNO-CAS (Min. occupation: 0.020  Max. occupation: 1.980):

 Closed:        5
 Active:        1


 **********************************************************************************************************************************
 DATASETS  * FILE   NREC   LENGTH (MB)   RECORD NAMES
              1      19       29.94       500      610      700      900      950      970     1000      129      960     1100   
                                          VAR    BASINP    GEOM    SYMINP    ZMAT    AOBASIS   BASIS     P2S    ABASIS      S 
                                         1400     1410     1200     1210     1080     1600     1650     1300     1700   
                                           T        V       H0       H01     AOSYM     SMH    MOLCAS    ERIS     OPER   

              2       4        0.53       700     1000      520     2200   
                                         GEOM     BASIS   MCVARS     UHF  

              4       3        0.32      2900     3000     3100   

 PROGRAMS   *        TOTAL   UHF-SCF       INT
 CPU TIMES  *         0.21      0.03      0.10
 REAL TIME  *         1.19 SEC
 DISK USED  *        34.69 MB
 **********************************************************************************************************************************

 Dump information in style XML to xml output                                                                      

 Orbitals will not be exported.

 GLOBAL ERROR fehler on processor   0                                         
