
 Working directory              : /var/folders/2v/xbgp75_9785319ghcgb4zr4r0000gp/T//molpro.kNEsI0txju/
 Global scratch directory       : /var/folders/2v/xbgp75_9785319ghcgb4zr4r0000gp/T//molpro.kNEsI0txju/
 Wavefunction directory         : /Users/sacpjk/wfu/
 Main file repository           : /var/folders/2v/xbgp75_9785319ghcgb4zr4r0000gp/T//molpro.kNEsI0txju/

 id        : peterk

 Nodes                        nprocs
 Cardiff-University-G34YLXT77Y    1
 GA implementation: MPI file
 GA implementation (serial work in mppx): MPI file

 Using customized tuning parameters: mindgm=1; mindgv=20; mindgc=4; mindgr=1; noblas=0; minvec=7
 default implementation of scratch files=df  


 Variables initialized (1032), CPU time= 0.00 sec
 
 symmetry,nosym
 
 
 geometry={
            1
     CL         0.00000000      0.00000000      0.00000000
 }
 basis=cc-pVTZ
 
 charge=-1
 
 hf; ccsd(t)
 
 
 
 {put,xml;noorbitals,nobasis}
 Commands initialized (841), CPU time= 0.01 sec, 704 directives.
 Default parameters read. Elapsed time= 0.60 sec

 Checking input...
 Passed
1


                                         ***  PROGRAM SYSTEM MOLPRO  ***
                                       Copyright, TTI GmbH Stuttgart, 2015
                                    Version 2023.1 linked Tue Jun  6 09:54:11 2023


 **********************************************************************************************************************************
 LABEL *                                                                                                                                                                 
  64 bit serial version                                                                  DATE: 09-Jun-23          TIME: 16:07:22  
 **********************************************************************************************************************************

 SHA1:             8ebb0dd001088a5c915591db1a321413035db0b1
 **********************************************************************************************************************************

 Memory per process:       805 MW
 Total memory per node:   1074 MW
 Total GA space:           268 MW

 GA preallocation disabled
 GA check enabled

 Variable memory set to 805.3 MW

 ZSYMEL=NOSYM


 Geometry recognized as XYZ

 SETTING BASIS          =    CC-PVTZ
 SETTING CHARGE         =        -1.00000000                                  


 Recomputing integrals since basis changed


 Using spherical harmonics

 Library entry CL     S cc-pVTZ              selected for orbital group  1
 Library entry CL     P cc-pVTZ              selected for orbital group  1
 Library entry CL     D cc-pVTZ              selected for orbital group  1
 Library entry CL     F cc-pVTZ              selected for orbital group  1


 PROGRAM * SEWARD (Integral evaluation for generally contracted gaussian basis sets)     Author: Roland Lindh, 1990

 Geometry written to block  1 of record 700

 Orientation using atomic masses  
 Molecule type: Atom
 Rotational constants:       0.0000000      0.0000000      0.0000000 GHz  (calculated with average atomic masses)

 Point group  C1  



 ATOMIC COORDINATES

 NR  ATOM    CHARGE       X              Y              Z

   1  CL     17.00    0.000000000    0.000000000    0.000000000

 NUCLEAR CHARGE:                   17
 NUMBER OF PRIMITIVE AOS:          64
 NUMBER OF SYMMETRY AOS:           59
 NUMBER OF CONTRACTIONS:           34   (   34A   )
 NUMBER OF INNER CORE ORBITALS:     1   (    1A   )
 NUMBER OF OUTER CORE ORBITALS:     4   (    4A   )
 NUMBER OF VALENCE ORBITALS:        4   (    4A   )


 NUCLEAR REPULSION ENERGY    0.00000000

 EXTRA SYMMETRY OF AOS IN SYMMETRY 1:   1 1 1 1 1 2 3 4 2 3   4 2 3 4 2 3 4 5 6 7   8 9 5 6 7 8 9101112  13141516

 Eigenvalues of metric

         1 0.100E-01 0.286E-01 0.286E-01 0.286E-01 0.185E+00 0.403E+00 0.403E+00 0.403E+00


 Contracted 2-electron integrals neglected if value below      1.0D-11
 AO integral compression algorithm  1   Integral accuracy      1.0D-11

     0.262 MB (compressed) written to integral file ( 35.3%)


 NUMBER OF SORTED TWO-ELECTRON INTEGRALS:     177310.     BUFFER LENGTH:  32768
 NUMBER OF SEGMENTS:   1  SEGMENT LENGTH:     177310      RECORD LENGTH: 524288

 Memory used in sort:       0.73 MW

 SORT1 READ      182602. AND WROTE       19443. INTEGRALS IN      1 RECORDS. CPU TIME:     0.00 SEC, REAL TIME:     0.01 SEC
 SORT2 READ       19443. AND WROTE      177310. INTEGRALS IN      1 RECORDS. CPU TIME:     0.01 SEC, REAL TIME:     0.01 SEC

 FILE SIZES:   FILE 1:    30.3 MBYTE,  FILE 4:     4.3 MBYTE,   TOTAL:     34.5 MBYTE

 OPERATOR DM      FOR CENTER  0  COORDINATES:    0.000000    0.000000    0.000000


 **********************************************************************************************************************************
 DATASETS  * FILE   NREC   LENGTH (MB)   RECORD NAMES
              1      19       28.79       500      610      700      900      950      970     1000      129      960     1100   
                                          VAR    BASINP    GEOM    SYMINP    ZMAT    AOBASIS   BASIS     P2S    ABASIS      S 
                                         1400     1410     1200     1210     1080     1600     1650     1300     1700   
                                           T        V       H0       H01     AOSYM     SMH    MOLCAS    ERIS     OPER   

 PROGRAMS   *        TOTAL       INT
 CPU TIMES  *         0.20      0.10
 REAL TIME  *         1.81 SEC
 DISK USED  *        33.27 MB
 **********************************************************************************************************************************


 Program * Restricted Hartree-Fock

 Orbital guess generated from atomic densities. Full valence occupancy:    9

 Initial occupancy:   9

 NELEC=   18   SYM=1   MS2= 0   THRE=1.0D-08   THRD=3.2D-06   THRG=3.2D-06  HFMA2=F  DIIS_START=2   DIIS_MAX=10   DIIS_INCORE=F

 Level shifts:    0.00 (CLOSED)    0.00 (OPEN)    0.30 (GAP_MIN)

 ITER           ETOT              DE          GRAD        DDIFF     DIIS  NEXP   TIME(IT)  TIME(TOT)  DIAG
   1     -459.52594918    -459.52594918     0.00D+00     0.24D+00     0     0       0.00      0.00    start
   2     -459.56059727      -0.03464809     0.11D-01     0.46D-01     1     0       0.01      0.01    diag
   3     -459.56465155      -0.00405429     0.51D-02     0.55D-02     2     0       0.00      0.01    diag
   4     -459.56466543      -0.00001388     0.32D-03     0.44D-03     3     0       0.00      0.01    diag
   5     -459.56466555      -0.00000011     0.28D-04     0.78D-04     4     0       0.00      0.01    diag
   6     -459.56466555      -0.00000000     0.17D-05     0.64D-05     5     0       0.00      0.01    diag
   7     -459.56466555      -0.00000000     0.19D-06     0.79D-06     6     0       0.00      0.01    diag
   8     -459.56466555      -0.00000000     0.18D-08     0.81D-08     0     0       0.00      0.01    fixocc

 Final occupancy:   9

 !RHF STATE 1.1 Energy               -459.564665546713
  RHF One-electron energy            -641.576639022373
  RHF Two-electron energy             182.011973475660
  RHF Kinetic energy                  459.692940705373
  RHF Nuclear energy                    0.000000000000
  RHF Virial quotient                  -0.999720954691

 !RHF STATE 1.1 Dipole moment          -0.00000000     0.00000000    -0.00000000
 Dipole moment /Debye                  -0.00000000     0.00000000    -0.00000000

 Orbital energies:

           1.1          2.1          3.1          4.1          5.1          6.1          7.1          8.1          9.1         10.1
   -104.472663   -10.199484    -7.665473    -7.665473    -7.665473    -0.712285    -0.131832    -0.131832    -0.131832     0.774216

          11.1
      0.774216


 HOMO      9.1    -0.131832 =      -3.5873eV
 LUMO     10.1     0.774216 =      21.0675eV
 LUMO-HOMO         0.906048 =      24.6548eV

 Orbitals saved in record  2100.2


 **********************************************************************************************************************************
 DATASETS  * FILE   NREC   LENGTH (MB)   RECORD NAMES
              1      19       28.79       500      610      700      900      950      970     1000      129      960     1100   
                                          VAR    BASINP    GEOM    SYMINP    ZMAT    AOBASIS   BASIS     P2S    ABASIS      S 
                                         1400     1410     1200     1210     1080     1600     1650     1300     1700   
                                           T        V       H0       H01     AOSYM     SMH    MOLCAS    ERIS     OPER   

              2       4        0.40       700     1000      520     2100   
                                         GEOM     BASIS   MCVARS     RHF  

 PROGRAMS   *        TOTAL    HF-SCF       INT
 CPU TIMES  *         0.21      0.01      0.10
 REAL TIME  *         2.05 SEC
 DISK USED  *        33.27 MB
 **********************************************************************************************************************************


 PROGRAM * CCSD (Closed-shell coupled cluster)     Authors: C. Hampel, H.-J. Werner, 1991, M. Deegan, P.J. Knowles, 1992


 Convergence thresholds:  THRVAR = 1.00D-08  THRDEN = 1.00D-06

 CCSD(T)     terms to be evaluated (factor= 1.000)


 Number of core orbitals:           5 (   5 )
 Number of closed-shell orbitals:   4 (   4 )
 Number of external orbitals:      25 (  25 )

 Molecular orbitals read from record     2100.2  Type=RHF/CANONICAL  

 Number of N-1 electron functions:               4
 Number of N-2 electron functions:              10
 Number of singly external CSFs:               100
 Number of doubly external CSFs:              5050
 Total number of CSFs:                        5151

 Length of J-op  integral file:               0.00 MB
 Length of K-op  integral file:               0.14 MB
 Length of 3-ext integral record:             0.00 MB

 Memory could be reduced to 0.17 Mwords without degradation in triples

 Integral transformation finished. Total CPU:   0.00 sec, npass=  1  Memory used:   0.20 MW

 Reference energy:                   -459.56466555

 MP2 singlet pair energy:              -0.12291287
 MP2 triplet pair energy:              -0.07404268
 MP2 correlation energy:               -0.19695556
 MP2 total energy:                   -459.76162110

 SCS-MP2 correlation energy:           -0.19356645   (PS=  1.200000  PT=  0.333333)
 SCS-MP2 total energy:               -459.75823200

 ITER.      SQ.NORM     CORR.ENERGY   TOTAL ENERGY   ENERGY CHANGE        DEN1      VAR(S)    VAR(P)  DIIS     TIME  TIME/IT
   1      1.07954708    -0.21277424  -459.77743979    -0.01581869    -0.01189850  0.14D-03  0.77D-03  1  1     0.33     0.02
   2      1.08324655    -0.21334828  -459.77801382    -0.00057403    -0.00433705  0.28D-05  0.19D-04  2  2     0.33     0.02
   3      1.08349643    -0.21334935  -459.77801490    -0.00000107    -0.00013477  0.70D-08  0.11D-05  3  3     0.33     0.02
   4      1.08356666    -0.21335616  -459.77802170    -0.00000681    -0.00002570  0.41D-08  0.17D-07  4  4     0.34     0.02
   5      1.08357306    -0.21335526  -459.77802081     0.00000089    -0.00000351  0.16D-09  0.36D-09  5  5     0.34     0.03
   6      1.08357335    -0.21335525  -459.77802080     0.00000001    -0.00000017  0.86D-12  0.22D-10  6  6     0.35     0.02

 Norm of t1 vector:      0.01372252      S-energy:     0.00000003      T1 diagnostic:  0.00343063
                                                                       D1 diagnostic:  0.00626890
                                                                       D2 diagnostic:  0.13639888 (internal)

 Doubles amplitudes (print threshold =  0.500E-01):

         I         J         SYM. A    SYM. B    A         B      T(IJ, AB)

         2         2         1         1         5         5     -0.05057590


 Total CPU time for triples:      0.00 sec


 RESULTS
 =======

  Reference energy                   -459.564665546713
  CCSD singlet pair energy             -0.142787765972
  CCSD triplet pair energy             -0.070567513090
  CCSD correlation energy              -0.213355251538

  Triples (T) contribution             -0.007109011741
  Total correlation energy             -0.220464263278

  CCSD total energy                  -459.778020798250
  CCSD[T] energy                     -459.785171931789
  CCSD-T energy                      -459.785128129301
 !CCSD(T) total energy               -459.785129809991

 Timing summary (sec):

 STEP                 CPU(USER)    SYS     CPU(TOT)    WALL
 CCSD iterations         0.35      0.00      0.35      0.35

 Program statistics:

 Available memory in ccsd:               805306295
 Min. memory needed in ccsd:                 30086
 Max. memory used in ccsd:                   31812
 Max. memory used in cckext:                 62534 ( 6 integral passes)



 **********************************************************************************************************************************
 DATASETS  * FILE   NREC   LENGTH (MB)   RECORD NAMES
              1      20       29.19       500      610      700      900      950      970     1000      129      960     1100   
                                          VAR    BASINP    GEOM    SYMINP    ZMAT    AOBASIS   BASIS     P2S    ABASIS      S 
                                         1400     1410     1200     1210     1080     1600     1650     1300     1700     1380   
                                           T        V       H0       H01     AOSYM     SMH    MOLCAS    ERIS     OPER     JKOP   

              2       4        0.40       700     1000      520     2100   
                                         GEOM     BASIS   MCVARS     RHF  

 PROGRAMS   *        TOTAL   CCSD(T)    HF-SCF       INT
 CPU TIMES  *         0.27      0.06      0.01      0.10
 REAL TIME  *         2.68 SEC
 DISK USED  *        33.27 MB
 **********************************************************************************************************************************

 Dump information in style XML to xml output                                                                      

 Orbitals will not be exported.

 **********************************************************************************************************************************

 CCSD(T)/cc-pVTZ energy=   -459.785129809991

         CCSD(T)          HF-SCF
   -459.78512981   -459.56466555
 **********************************************************************************************************************************
 Molpro calculation terminated
