
 Working directory              : /tmp/peterk/molpro.X4sgTAT1jB/
 Global scratch directory       : /tmp/peterk/molpro.X4sgTAT1jB/
 Wavefunction directory         : /home/peterk/wfu/
 Main file repository           : /tmp/peterk/molpro.X4sgTAT1jB/

 id        : peterk

 Nodes     nprocs
 marat        1
 GA implementation: MPI file
 GA implementation (serial work in mppx): MPI file

 Using customized tuning parameters: mindgm=1; mindgv=20; mindgc=4; mindgr=1; noblas=0; minvec=7
 default implementation of scratch files=df  


 Variables initialized (1032), CPU time= 0.00 sec
 
 core,small
 angstrom
 
 geometry={
 C1;H4,C1,1.08637390;H1,C1,1.08637390,H4,109.47122063;H2,C1,1.08637390,H4,109.47122063,H1,120;H3,C1,1.08637390,H4,109.47122063,H2,120
 }
 basis=cc-pCVTZ
 
 
 
 hf; hf; papt; mp2
 
 
 
 {put,xml;noorbitals,nobasis}
 Commands initialized (841), CPU time= 0.00 sec, 708 directives.
 Default parameters read. Elapsed time= 0.05 sec

 Checking input...
 Passed
1


                                         ***  PROGRAM SYSTEM MOLPRO  ***
                                       Copyright, TTI GmbH Stuttgart, 2015
                                    Version 2023.1 linked Sat Jun 10 08:01:27 2023


 **********************************************************************************************************************************
 LABEL *                                                                                                                                                                 
  (16 PROC) 64 bit serial version                                                        DATE: 12-Jun-23          TIME: 10:29:04  
 **********************************************************************************************************************************

 SHA1:             8376d659ba1296ca7ee514c57770fe2c96af278c
 **********************************************************************************************************************************

 Memory per process:      1074 MW
 Total memory per node:   1074 MW

 GA preallocation disabled
 GA check disabled

 Variable memory set to 1073.7 MW

 ZUNIT=ANG

 SETTING BASIS          =    CC-PCVTZ


 Recomputing integrals since basis changed


 Using spherical harmonics

 Library entry C      S cc-pCVTZ             selected for orbital group  1
 Library entry C      P cc-pCVTZ             selected for orbital group  1
 Library entry C      D cc-pCVTZ             selected for orbital group  1
 Library entry C      F cc-pCVTZ             selected for orbital group  1
 Library entry H      S cc-pVTZ              selected for orbital group  2
 Library entry H      P cc-pVTZ              selected for orbital group  2
 Library entry H      D cc-pVTZ              selected for orbital group  2


 PROGRAM * SEWARD (Integral evaluation for generally contracted gaussian basis sets)     Author: Roland Lindh, 1990

 Geometry written to block  1 of record 700

 Orientation using atomic masses  
 Molecule type: Spherical top,     Neighbour degeneracy = 4
 Symmetry elements: X,Y
 Rotational constants:     159.3144359    159.3144359    159.3144358 GHz  (calculated with average atomic masses)

 Point group  C2v 



 ATOMIC COORDINATES

 NR  ATOM    CHARGE       X              Y              Z

   1  C1      6.00    0.000000000    0.000000000   -0.000000000
   2  H4      1.00    1.676225954    0.000000000    1.185270739
   3  H1      1.00   -1.676225954    0.000000000    1.185270739
   4  H2      1.00    0.000000000    1.676225954   -1.185270739
   5  H3      1.00    0.000000000   -1.676225954   -1.185270739

 Bond lengths in Bohr (Angstrom)

 1-2  2.052949140  1-3  2.052949140  1-4  2.052949140  1-5  2.052949140
     ( 1.086373900)     ( 1.086373900)     ( 1.086373900)     ( 1.086373900)

 Bond angles

  2-1-3  109.47122063   2-1-4  109.47122063   2-1-5  109.47122063   3-1-4  109.47122063

  3-1-5  109.47122063   4-1-5  109.47122064

 NUCLEAR CHARGE:                   10
 NUMBER OF PRIMITIVE AOS:         129
 NUMBER OF SYMMETRY AOS:          119
 NUMBER OF CONTRACTIONS:           99   (   39A1  +   24B1  +   24B2  +   12A2  )
 NUMBER OF INNER CORE ORBITALS:     0   (    0A1  +    0B1  +    0B2  +    0A2  )
 NUMBER OF OUTER CORE ORBITALS:     1   (    1A1  +    0B1  +    0B2  +    0A2  )
 NUMBER OF VALENCE ORBITALS:        8   (    4A1  +    2B1  +    2B2  +    0A2  )


 NUCLEAR REPULSION ENERGY   13.48023391


 Eigenvalues of metric

         1 0.441E-03 0.183E-02 0.357E-02 0.965E-02 0.119E-01 0.125E-01 0.230E-01 0.280E-01
         2 0.183E-02 0.965E-02 0.230E-01 0.280E-01 0.698E-01 0.110E+00 0.127E+00 0.233E+00
         3 0.183E-02 0.965E-02 0.230E-01 0.280E-01 0.698E-01 0.110E+00 0.127E+00 0.233E+00
         4 0.287E-01 0.127E+00 0.272E+00 0.360E+00 0.485E+00 0.948E+00 0.987E+00 0.101E+01


 Contracted 2-electron integrals neglected if value below      1.0D-11
 AO integral compression algorithm  1   Integral accuracy      1.0D-11

     18.874 MB (compressed) written to integral file ( 56.5%)


 NUMBER OF SORTED TWO-ELECTRON INTEGRALS:    3203595.     BUFFER LENGTH:  32768
 NUMBER OF SEGMENTS:   1  SEGMENT LENGTH:    3203595      RECORD LENGTH: 524288

 Memory used in sort:       3.76 MW

 SORT1 READ     4140167. AND WROTE     3097448. INTEGRALS IN      9 RECORDS. CPU TIME:     0.06 SEC, REAL TIME:     0.07 SEC
 SORT2 READ     3097448. AND WROTE     3203595. INTEGRALS IN     72 RECORDS. CPU TIME:     0.07 SEC, REAL TIME:     0.08 SEC

 FILE SIZES:   FILE 1:    49.1 MBYTE,  FILE 4:    37.8 MBYTE,   TOTAL:     86.9 MBYTE

 OPERATOR DM      FOR CENTER  0  COORDINATES:    0.000000    0.000000    0.000000


 **********************************************************************************************************************************
 DATASETS  * FILE   NREC   LENGTH (MB)   RECORD NAMES
              1      19       42.53       500      610      700      900      950      970     1000      129      960     1100   
                                          VAR    BASINP    GEOM    SYMINP    ZMAT    AOBASIS   BASIS     P2S    ABASIS      S 
                                         1400     1410     1200     1210     1080     1600     1650     1300     1700   
                                           T        V       H0       H01     AOSYM     SMH    MOLCAS    ERIS     OPER   

 PROGRAMS   *        TOTAL       INT
 CPU TIMES  *         0.81      0.71
 REAL TIME  *         1.49 SEC
 DISK USED  *        83.27 MB
 **********************************************************************************************************************************


 Program * Restricted Hartree-Fock

 Orbital guess generated from atomic densities. Full valence occupancy:    5   2   2   0

 Initial occupancy:   3   1   1   0

 NELEC=   10   SYM=1   MS2= 0   THRE=1.0D-08   THRD=3.2D-06   THRG=3.2D-06  HFMA2=F  DIIS_START=2   DIIS_MAX=10   DIIS_INCORE=F

 Level shifts:    0.00 (CLOSED)    0.00 (OPEN)    0.30 (GAP_MIN)

 ITER           ETOT              DE          GRAD        DDIFF     DIIS  NEXP   TIME(IT)  TIME(TOT)  DIAG
   1      -40.19489145     -40.19489145     0.00D+00     0.11D+00     0     0       0.01      0.02    start
   2      -40.21115057      -0.01625913     0.92D-02     0.12D-01     1     0       0.01      0.03    diag
   3      -40.21328311      -0.00213254     0.36D-02     0.34D-02     2     0       0.01      0.04    diag
   4      -40.21358910      -0.00030599     0.91D-03     0.12D-02     3     0       0.01      0.05    diag
   5      -40.21359405      -0.00000495     0.12D-03     0.29D-03     4     0       0.01      0.06    diag
   6      -40.21359408      -0.00000004     0.93D-05     0.39D-04     5     0       0.00      0.06    diag
   7      -40.21359408      -0.00000000     0.67D-06     0.29D-05     6     0       0.01      0.07    diag
   8      -40.21359408      -0.00000000     0.49D-07     0.13D-06     0     0       0.01      0.08    fixocc

 Final occupancy:   3   1   1   0

 !RHF STATE 1.1 Energy                -40.213594083000
  RHF One-electron energy             -79.816790946627
  RHF Two-electron energy              26.122962952444
  RHF Kinetic energy                   40.178150584556
  RHF Nuclear energy                   13.480233911183
  RHF Virial quotient                  -1.000882158535

 !RHF STATE 1.1 Dipole moment           0.00000000     0.00000000    -0.00000000
 Dipole moment /Debye                   0.00000000     0.00000000    -0.00000000

 Orbital energies:

           1.1          2.1          3.1          4.1          5.1
    -11.204944    -0.943932    -0.545519     0.143013     0.229650

           1.2          2.2          3.2
     -0.545519     0.229650     0.363937

           1.3          2.3          3.3
     -0.545519     0.229650     0.363937

           1.4          2.4
      0.684902     1.077125


 HOMO      1.3    -0.545519 =     -14.8443eV
 LUMO      4.1     0.143013 =       3.8916eV
 LUMO-HOMO         0.688532 =      18.7359eV

 Orbitals saved in record  2100.2


 **********************************************************************************************************************************
 DATASETS  * FILE   NREC   LENGTH (MB)   RECORD NAMES
              1      19       42.53       500      610      700      900      950      970     1000      129      960     1100   
                                          VAR    BASINP    GEOM    SYMINP    ZMAT    AOBASIS   BASIS     P2S    ABASIS      S 
                                         1400     1410     1200     1210     1080     1600     1650     1300     1700   
                                           T        V       H0       H01     AOSYM     SMH    MOLCAS    ERIS     OPER   

              2       4        0.46       700     1000      520     2100   
                                         GEOM     BASIS   MCVARS     RHF  

 PROGRAMS   *        TOTAL    HF-SCF       INT
 CPU TIMES  *         0.89      0.08      0.71
 REAL TIME  *         1.58 SEC
 DISK USED  *        83.27 MB
 **********************************************************************************************************************************


 Program * Restricted Hartree-Fock

 Molecular orbitals read from record     2100.2  Type=RHF/CANONICAL  

 Initial occupancy:   3   1   1   0

 NELEC=   10   SYM=1   MS2= 0   THRE=1.0D-08   THRD=3.2D-06   THRG=3.2D-06  HFMA2=F  DIIS_START=2   DIIS_MAX=10   DIIS_INCORE=F

 Level shifts:    0.00 (CLOSED)    0.00 (OPEN)    0.30 (GAP_MIN)

 ITER           ETOT              DE          GRAD        DDIFF     DIIS  NEXP   TIME(IT)  TIME(TOT)  DIAG
   1      -40.21359408     -40.21359408     0.00D+00     0.12D+00     0     0       0.01      0.01    start
   2      -40.21359408       0.00000000     0.11D-07     0.28D-07     1     0       0.01      0.02    diag

 Final occupancy:   3   1   1   0

 !RHF STATE 1.1 Energy                -40.213594083000
  RHF One-electron energy             -79.816790713678
  RHF Two-electron energy              26.122962719495
  RHF Kinetic energy                   40.178150338085
  RHF Nuclear energy                   13.480233911183
  RHF Virial quotient                  -1.000882164675

 !RHF STATE 1.1 Dipole moment           0.00000000     0.00000000    -0.00000000
 Dipole moment /Debye                   0.00000000     0.00000000    -0.00000000

 Orbital energies:

           1.1          2.1          3.1          4.1          5.1
    -11.204944    -0.943932    -0.545519     0.143013     0.229650

           1.2          2.2          3.2
     -0.545519     0.229650     0.363937

           1.3          2.3          3.3
     -0.545519     0.229650     0.363937

           1.4          2.4
      0.684902     1.077125


 HOMO      1.3    -0.545519 =     -14.8443eV
 LUMO      4.1     0.143013 =       3.8916eV
 LUMO-HOMO         0.688532 =      18.7359eV

 Orbitals saved in record  2101.2


 **********************************************************************************************************************************
 DATASETS  * FILE   NREC   LENGTH (MB)   RECORD NAMES
              1      19       42.53       500      610      700      900      950      970     1000      129      960     1100   
                                          VAR    BASINP    GEOM    SYMINP    ZMAT    AOBASIS   BASIS     P2S    ABASIS      S 
                                         1400     1410     1200     1210     1080     1600     1650     1300     1700   
                                           T        V       H0       H01     AOSYM     SMH    MOLCAS    ERIS     OPER   

              2       5        0.64       700     1000      520     2100     2101   
                                         GEOM     BASIS   MCVARS     RHF      RHF  

 PROGRAMS   *        TOTAL    HF-SCF    HF-SCF       INT
 CPU TIMES  *         0.92      0.03      0.08      0.71
 REAL TIME  *         1.61 SEC
 DISK USED  *        83.27 MB
 **********************************************************************************************************************************


 PROGRAM * PAPT (Closed-shell)     Authors: C. Hampel, H.-J. Werner, 1991, P.J. Knowles, 2021


 CORETYPE=SMALL

 Convergence thresholds:  THRVAR = 1.00D-08  THRDEN = 1.00D-06

 Number of closed-shell orbitals:   5 (   3   1   1   0 )
 Number of external orbitals:      94 (  36  23  23  12 )

 Molecular orbitals read from record     2101.2  Type=RHF/CANONICAL  

 Number of N-1 electron functions:               5
 Number of N-2 electron functions:              15
 Number of singly external CSFs:               154
 Number of doubly external CSFs:             29144
 Total number of CSFs:                       29299

 Length of J-op  integral file:               0.00 MB
 Length of K-op  integral file:               0.26 MB

 Integral transformation finished. Total CPU:   0.01 sec, npass=  1  Memory used:   0.11 MW

 Reference energy:                    -40.21359408

                        CORR.ENERGY   TOTAL ENERGY   ENERGY CHANGE
 MP2:                   -0.24681124   -40.46040533    -0.24681124

 SCS-MP2 correlation energy:           -0.26084308   (PS=  1.200000  PT=  0.333333)
 SCS-MP2 total energy:                -40.47443716
 Iteration:   1     0.4468D+00
 Iteration:   2     0.6658D+00
 Iteration:   3     0.1298D+00
 Iteration:   4     0.8077D-01
 Iteration:   5     0.8250D+00
 Iteration:   6     0.1383D-01
 Iteration:   7     0.1370D-01
 Iteration:   8     0.7418D-02
 Iteration:   9     0.1116D-02
 Iteration:  10     0.1413D-03
 Iteration:  11     0.2836D-04
 PAPT operator written to  7000.1
 PAPT orbitals and eigenvalues written to  7000.2

 MP3(D):                -0.26685838   -40.48045247    -0.02004714



 RESULTS
 =======

  Reference energy                    -40.213594083000

  Correlated core orbitals:             1.1
  Orbital energies:                   -11.2049

  MP3 core-core energy                 -0.038674791607
  MP3 core-valence energy              -0.011207035061
  MP3 valence correlation energy       -0.216976557873

  MP3 singlet pair energy              -0.205513526324
  MP3 triplet pair energy              -0.061344858218
  MP3 correlation energy               -0.266858384542

 !MP3 total energy                    -40.480452467541

 Timing summary (sec):

 STEP                 CPU(USER)    SYS     CPU(TOT)    WALL
 Transformation          0.01      0.01      0.02      0.03
 CCSD iterations         1.29      0.01      1.30      0.08

 Program statistics:

 Available memory in ccsd:              1073741721
 Min. memory needed in ccsd:                119416
 Max. memory used in ccsd:                  141377
 Max. memory used in cckext:                170099 ( 1 integral passes)



 **********************************************************************************************************************************
 DATASETS  * FILE   NREC   LENGTH (MB)   RECORD NAMES
              1      21       43.05       500      610      700      900      950      970     1000      129      960     1100   
                                          VAR    BASINP    GEOM    SYMINP    ZMAT    AOBASIS   BASIS     P2S    ABASIS      S 
                                         1400     1410     1200     1210     1080     1600     1650     1300     1700     1380   
                                           T        V       H0       H01     AOSYM     SMH    MOLCAS    ERIS     OPER     JKOP   
                                         7000   
                                        PAPT AO    

              2       6        0.80       700     1000      520     2100     2101     7000   
                                         GEOM     BASIS   MCVARS     RHF      RHF     PAPT   

 PROGRAMS   *        TOTAL      PAPT    HF-SCF    HF-SCF       INT
 CPU TIMES  *         1.02      0.10      0.03      0.08      0.71
 REAL TIME  *         1.74 SEC
 DISK USED  *        83.27 MB
 **********************************************************************************************************************************


 PROGRAM * MP2 (Closed-shell)     Authors: C. Hampel, H.-J. Werner, 1991, M. Deegan, P.J. Knowles, 1992


 CORETYPE=SMALL

 Convergence thresholds:  THRVAR = 1.00D-08  THRDEN = 1.00D-06

 Number of closed-shell orbitals:   5 (   3   1   1   0 )
 Number of external orbitals:      94 (  36  23  23  12 )

 Molecular orbitals read from record     7000.2  Type=PAPT/CANONICAL (state 1.1)

 Number of N-1 electron functions:               5
 Number of N-2 electron functions:              15
 Number of singly external CSFs:               154
 Number of doubly external CSFs:             29144
 Total number of CSFs:                       29299

 Length of J-op  integral file:               0.00 MB
 Length of K-op  integral file:               0.26 MB

 Integral transformation finished. Total CPU:   0.02 sec, npass=  1  Memory used:   0.11 MW
 Orbital energies read from record       7000.2  Type=PAPT/CANONICAL (state 1.1)

 Memory needed for MP2:                      0.01 MW

 SCS-MP2 correlation energy:           -0.286660634515   (PS=  1.200000  PT=  0.333333)
 SCS-MP2 total energy:                -40.500254717515


  Reference energy                    -40.213594083000

  Correlated core orbitals:             1.1
  Orbital energies:                   -10.2166

  MP2 core-core energy                 -0.038899191228
  MP2 core-valence energy              -0.011175570129
  MP2 valence correlation energy       -0.220678115091

  MP2 singlet pair energy              -0.204563385102
  MP2 triplet pair energy              -0.066189491346
  MP2 correlation energy               -0.270752876448

 !MP2 total energy                    -40.484346959447


 **********************************************************************************************************************************
 DATASETS  * FILE   NREC   LENGTH (MB)   RECORD NAMES
              1      21       43.05       500      610      700      900      950      970     1000      129      960     1100   
                                          VAR    BASINP    GEOM    SYMINP    ZMAT    AOBASIS   BASIS     P2S    ABASIS      S 
                                         1400     1410     1200     1210     1080     1600     1650     1300     1700     1380   
                                           T        V       H0       H01     AOSYM     SMH    MOLCAS    ERIS     OPER     JKOP   
                                         7000   
                                        PAPT AO    

              2       6        0.80       700     1000      520     2100     2101     7000   
                                         GEOM     BASIS   MCVARS     RHF      RHF     PAPT   

 PROGRAMS   *        TOTAL       MP2      PAPT    HF-SCF    HF-SCF       INT
 CPU TIMES  *         1.07      0.04      0.10      0.03      0.08      0.71
 REAL TIME  *         1.81 SEC
 DISK USED  *        83.27 MB
 **********************************************************************************************************************************

 Dump information in style XML to xml output                                                                      

 Orbitals will not be exported.

 **********************************************************************************************************************************

 MP2/cc-pCVTZ energy=    -40.484346959447

             MP2            PAPT          HF-SCF          HF-SCF
    -40.48434696    -40.48045247    -40.21359408    -40.21359408
 **********************************************************************************************************************************
 Molpro calculation terminated
