
 Working directory              : /var/folders/2v/xbgp75_9785319ghcgb4zr4r0000gp/T//molpro.ZjHjPwM91I/
 Global scratch directory       : /var/folders/2v/xbgp75_9785319ghcgb4zr4r0000gp/T//molpro.ZjHjPwM91I/
 Wavefunction directory         : /Users/sacpjk/wfu/
 Main file repository           : /var/folders/2v/xbgp75_9785319ghcgb4zr4r0000gp/T//molpro.ZjHjPwM91I/

 id        : peterk

 Nodes                        nprocs
 Cardiff-University-G34YLXT77Y    1
 GA implementation: MPI file
 GA implementation (serial work in mppx): MPI file

 Using customized tuning parameters: mindgm=1; mindgv=20; mindgc=4; mindgr=1; noblas=0; minvec=7
 default implementation of scratch files=df  


 Variables initialized (1032), CPU time= 0.00 sec
 
 symmetry,nosym
 
 
 geometry={
           13
     C         -1.86938305     -0.82076114      0.00000000
     C         -1.22489282      0.53523134      0.00000000
     C          0.08995065      0.82396445      0.00000000
     C          1.19838604     -0.12151989      0.00000000
     C          2.48956450      0.24307724      0.00000000
     H         -1.91983207      1.37495364      0.00000000
     H          0.37839675      1.87546382      0.00000000
     H          0.95659896     -1.18296127      0.00000000
     H          3.29117379     -0.48943502      0.00000000
     H          2.78611361      1.28993861      0.00000000
     H         -1.14513379     -1.63953743      0.00000000
     H         -2.51547128     -0.94420718      0.87992031
     H         -2.51547128     -0.94420718     -0.87992031
 }
 basis=cc-pVTZ
 
 
 
 hf
 
 
 
 {put,xml;noorbitals,nobasis}
 Commands initialized (841), CPU time= 0.01 sec, 704 directives.
 Default parameters read. Elapsed time= 0.29 sec

 Checking input...
 Passed
1


                                         ***  PROGRAM SYSTEM MOLPRO  ***
                                       Copyright, TTI GmbH Stuttgart, 2015
                                    Version 2023.1 linked Tue Jun  6 09:54:11 2023


 **********************************************************************************************************************************
 LABEL *                                                                                                                                                                 
  64 bit serial version                                                                  DATE: 10-Jun-23          TIME: 14:45:08  
 **********************************************************************************************************************************

 SHA1:             8ebb0dd001088a5c915591db1a321413035db0b1
 **********************************************************************************************************************************

 Memory per process:       805 MW
 Total memory per node:   1074 MW
 Total GA space:           268 MW

 GA preallocation disabled
 GA check enabled

 Variable memory set to 805.3 MW

 ZSYMEL=NOSYM


 Geometry recognized as XYZ

 SETTING BASIS          =    CC-PVTZ


 Recomputing integrals since basis changed


 Using spherical harmonics

 Library entry C      S cc-pVTZ              selected for orbital group  1
 Library entry C      P cc-pVTZ              selected for orbital group  1
 Library entry C      D cc-pVTZ              selected for orbital group  1
 Library entry C      F cc-pVTZ              selected for orbital group  1
 Library entry H      S cc-pVTZ              selected for orbital group  2
 Library entry H      P cc-pVTZ              selected for orbital group  2
 Library entry H      D cc-pVTZ              selected for orbital group  2


 PROGRAM * SEWARD (Integral evaluation for generally contracted gaussian basis sets)     Author: Roland Lindh, 1990

 Geometry written to block  1 of record 700


 Point group  C1  



 ATOMIC COORDINATES

 NR  ATOM    CHARGE       X              Y              Z

   1  C       6.00   -3.532621987   -1.551013768    0.000000000
   2  C       6.00   -2.314711962    1.011440646    0.000000000
   3  C       6.00    0.169982093    1.557067147    0.000000000
   4  C       6.00    2.264621407   -0.229639311    0.000000000
   5  C       6.00    4.704595075    0.459349411    0.000000000
   6  H       1.00   -3.627956818    2.598285814    0.000000000
   7  H       1.00    0.715066224    3.544112976    0.000000000
   8  H       1.00    1.807710046   -2.235472816    0.000000000
   9  H       1.00    6.219417092   -0.924898144    0.000000000
  10  H       1.00    5.264991675    2.437630690    0.000000000
  11  H       1.00   -2.163989239   -3.098276714    0.000000000
  12  H       1.00   -4.753551794   -1.784292975    1.662808397
  13  H       1.00   -4.753551794   -1.784292975   -1.662808397

 Bond lengths in Bohr (Angstrom)

  1- 2  2.837160104   1-11  2.065714941   1-12  2.076058898   1-13  2.076058898   2- 3  2.543897173
       ( 1.501360471)       ( 1.093129271)       ( 1.098603057)       ( 1.098603057)       ( 1.346172411)

 2-6  2.059779026  3-4  2.753149800  3-7  2.060453309  4-5  2.535384972  4-8  2.057215605
     ( 1.089988120)     ( 1.456904132)     ( 1.090344935)     ( 1.341667948)     ( 1.088631616)

  5- 9  2.052029979   5-10  2.056122849
       ( 1.085887501)       ( 1.088053355)

 Bond angles

  1- 2- 3  127.80657855   1- 2- 6  114.96815413   2- 1-11  113.08431314   2- 1-12  110.72853427

  2- 1-13  110.72853427   2- 3- 4  127.15086659   2- 3- 7  117.72524747   3- 2- 6  117.22526732

  3-4-5  123.76777387   3-4-8  117.63133391   4-3-7  115.12388594   4-5-9  121.81048805

  4- 5-10  121.58445068   5- 4- 8  118.60089222   9- 5-10  116.60506127  11- 1-12  107.78697748

 11- 1-13  107.78697748  12- 1-13  106.44082138

 NUCLEAR CHARGE:                   38
 NUMBER OF PRIMITIVE AOS:         371
 NUMBER OF SYMMETRY AOS:          338
 NUMBER OF CONTRACTIONS:          262   (  262A   )
 NUMBER OF INNER CORE ORBITALS:     0   (    0A   )
 NUMBER OF OUTER CORE ORBITALS:     5   (    5A   )
 NUMBER OF VALENCE ORBITALS:       28   (   28A   )


 NUCLEAR REPULSION ENERGY  155.24351619


 Eigenvalues of metric

         1 0.209E-03 0.365E-03 0.534E-03 0.781E-03 0.914E-03 0.997E-03 0.123E-02 0.132E-02


 Contracted 2-electron integrals neglected if value below      1.0D-11
 AO integral compression algorithm  1   Integral accuracy      1.0D-11

     1263.796 MB (compressed) written to integral file ( 26.3%)


 NUMBER OF SORTED TWO-ELECTRON INTEGRALS:  593521831.     BUFFER LENGTH:  32768
 NUMBER OF SEGMENTS:  38  SEGMENT LENGTH:   15999762      RECORD LENGTH: 262144

 Memory used in sort:      16.29 MW

 SORT1 READ   601244497. AND WROTE   310141454. INTEGRALS IN   1797 RECORDS. CPU TIME:     4.15 SEC, REAL TIME:     5.38 SEC
 SORT2 READ   310141454. AND WROTE   593521831. INTEGRALS IN   4821 RECORDS. CPU TIME:     2.99 SEC, REAL TIME:     4.15 SEC

 FILE SIZES:   FILE 1:  1296.5 MBYTE,  FILE 4:  3768.6 MBYTE,   TOTAL:   5065.2 MBYTE

 OPERATOR DM      FOR CENTER  0  COORDINATES:    0.000000    0.000000    0.000000


 **********************************************************************************************************************************
 DATASETS  * FILE   NREC   LENGTH (MB)   RECORD NAMES
              1      19     1116.63       500      610      700      900      950      970     1000      129      960     1100   
                                          VAR    BASINP    GEOM    SYMINP    ZMAT    AOBASIS   BASIS     P2S    ABASIS      S 
                                         1400     1410     1200     1210     1080     1600     1650     1300     1700   
                                           T        V       H0       H01     AOSYM     SMH    MOLCAS    ERIS     OPER   

 PROGRAMS   *        TOTAL       INT
 CPU TIMES  *        19.32     19.24
 REAL TIME  *        35.74 SEC
 DISK USED  *         4.72 GB
 **********************************************************************************************************************************


 Program * Restricted Hartree-Fock

 Orbital guess generated from atomic densities. Full valence occupancy:   33

 Initial occupancy:  19

 NELEC=   38   SYM=1   MS2= 0   THRE=1.0D-08   THRD=3.2D-06   THRG=3.2D-06  HFMA2=F  DIIS_START=2   DIIS_MAX=10   DIIS_INCORE=F

 Level shifts:    0.00 (CLOSED)    0.00 (OPEN)    0.30 (GAP_MIN)

 ITER           ETOT              DE          GRAD        DDIFF     DIIS  NEXP   TIME(IT)  TIME(TOT)  DIAG
   1     -193.96341298    -193.96341298     0.00D+00     0.45D-01     0     0       2.61      5.04    start
   2     -194.01867334      -0.05526036     0.28D-02     0.41D-02     1     0       2.63      7.67    diag
   3     -194.02483761      -0.00616427     0.10D-02     0.12D-02     2     0       2.58     10.25    diag
   4     -194.02584549      -0.00100788     0.35D-03     0.52D-03     3     0       2.55     12.80    diag
   5     -194.02589673      -0.00005124     0.95D-04     0.12D-03     4     0       2.53     15.33    diag
   6     -194.02590293      -0.00000620     0.25D-04     0.48D-04     5     0       2.57     17.90    diag
   7     -194.02590339      -0.00000046     0.59D-05     0.13D-04     6     0       2.64     20.54    diag
   8     -194.02590345      -0.00000006     0.18D-05     0.39D-05     7     0       2.61     23.15    fixocc
   9     -194.02590346      -0.00000001     0.10D-05     0.19D-05     8     0       2.52     25.67    diag
  10     -194.02590346      -0.00000000     0.27D-06     0.77D-06     9     0       2.60     28.27    diag/orth
  11     -194.02590346      -0.00000000     0.11D-06     0.17D-06     0     0       2.42     30.69    diag

 Final occupancy:  19

 !RHF STATE 1.1 Energy               -194.025903460497
  RHF One-electron energy            -567.705167985213
  RHF Two-electron energy             218.435748335892
  RHF Kinetic energy                  193.673896819557
  RHF Nuclear energy                  155.243516188824
  RHF Virial quotient                  -1.001817522375

 !RHF STATE 1.1 Dipole moment          -0.19163220    -0.09047588    -0.00000000
 Dipole moment /Debye                  -0.48708046    -0.22996674    -0.00000000

 Orbital energies:

           1.1          2.1          3.1          4.1          5.1          6.1          7.1          8.1          9.1         10.1
    -11.236403   -11.235737   -11.228562   -11.226066   -11.224978    -1.093853    -1.024312    -0.931482    -0.808334    -0.725924

          11.1         12.1         13.1         14.1         15.1         16.1         17.1         18.1         19.1         20.1
     -0.656085    -0.614091    -0.568019    -0.567735    -0.534486    -0.522173    -0.475517    -0.431877    -0.311196     0.116076

          21.1
      0.145131


 HOMO     19.1    -0.311196 =      -8.4681eV
 LUMO     20.1     0.116076 =       3.1586eV
 LUMO-HOMO         0.427272 =      11.6267eV

 Orbitals saved in record  2100.2


 **********************************************************************************************************************************
 DATASETS  * FILE   NREC   LENGTH (MB)   RECORD NAMES
              1      19     1116.63       500      610      700      900      950      970     1000      129      960     1100   
                                          VAR    BASINP    GEOM    SYMINP    ZMAT    AOBASIS   BASIS     P2S    ABASIS      S 
                                         1400     1410     1200     1210     1080     1600     1650     1300     1700   
                                           T        V       H0       H01     AOSYM     SMH    MOLCAS    ERIS     OPER   

              2       4        1.67       700     1000      520     2100   
                                         GEOM     BASIS   MCVARS     RHF  

 PROGRAMS   *        TOTAL    HF-SCF       INT
 CPU TIMES  *        50.01     30.69     19.24
 REAL TIME  *        73.69 SEC
 DISK USED  *         4.72 GB
 **********************************************************************************************************************************

 Dump information in style XML to xml output                                                                      

 Orbitals will not be exported.

 **********************************************************************************************************************************

 HF/cc-pVTZ energy=   -194.025903460497

          HF-SCF
   -194.02590346
 **********************************************************************************************************************************
 Molpro calculation terminated
