
 Working directory              : /var/folders/2v/xbgp75_9785319ghcgb4zr4r0000gp/T//molpro.SP9p2xzD9N/
 Global scratch directory       : /var/folders/2v/xbgp75_9785319ghcgb4zr4r0000gp/T//molpro.SP9p2xzD9N/
 Wavefunction directory         : /Users/sacpjk/wfu/
 Main file repository           : /var/folders/2v/xbgp75_9785319ghcgb4zr4r0000gp/T//molpro.SP9p2xzD9N/

 id        : peterk

 Nodes                        nprocs
 Cardiff-University-G34YLXT77Y    1
 GA implementation: MPI file
 GA implementation (serial work in mppx): MPI file

 Using customized tuning parameters: mindgm=1; mindgv=20; mindgc=4; mindgr=1; noblas=0; minvec=7
 default implementation of scratch files=df  


 Variables initialized (1032), CPU time= 0.00 sec
 
 symmetry,nosym
 
 
 geometry={
 3
  o         -0.394082748698   -0.001796598617    0.000000000000
  h          0.200480755102   -0.755097156792    0.000000000000
  h          0.193601993543    0.756893755462    0.000000000000
 }
 basis=aug-cc-pVTZ
 
 
 
 hf; mp2; counterpoise
 
 
 
 {put,xml;noorbitals,nobasis}
 Commands initialized (841), CPU time= 0.00 sec, 704 directives.
 Default parameters read. Elapsed time= 0.06 sec

 Checking input...
 Passed
1


                                         ***  PROGRAM SYSTEM MOLPRO  ***
                                       Copyright, TTI GmbH Stuttgart, 2015
                                    Version 2023.1 linked Tue Jun  6 09:54:11 2023


 **********************************************************************************************************************************
 LABEL *                                                                                                                                                                 
  64 bit serial version                                                                  DATE: 07-Jun-23          TIME: 07:32:34  
 **********************************************************************************************************************************

 SHA1:             8ebb0dd001088a5c915591db1a321413035db0b1
 **********************************************************************************************************************************

 Memory per process:       805 MW
 Total memory per node:   1074 MW
 Total GA space:           268 MW

 GA preallocation disabled
 GA check enabled

 Variable memory set to 805.3 MW

 ZSYMEL=NOSYM


 Geometry recognized as XYZ

 SETTING BASIS          =    AUG-CC-PVTZ


 Recomputing integrals since basis changed


 Using spherical harmonics

 Library entry O      S aug-cc-pVTZ          selected for orbital group  1
 Library entry O      P aug-cc-pVTZ          selected for orbital group  1
 Library entry O      D aug-cc-pVTZ          selected for orbital group  1
 Library entry O      F aug-cc-pVTZ          selected for orbital group  1
 Library entry H      S aug-cc-pVTZ          selected for orbital group  2
 Library entry H      P aug-cc-pVTZ          selected for orbital group  2
 Library entry H      D aug-cc-pVTZ          selected for orbital group  2


 PROGRAM * SEWARD (Integral evaluation for generally contracted gaussian basis sets)     Author: Roland Lindh, 1990

 Geometry written to block  1 of record 700


 Point group  C1  



 ATOMIC COORDINATES

 NR  ATOM    CHARGE       X              Y              Z

   1  O       8.00   -0.744708465   -0.003395079    0.000000000
   2  H       1.00    0.378853720   -1.426926824    0.000000000
   3  H       1.00    0.365854745    1.430321903    0.000000000

 Bond lengths in Bohr (Angstrom)

 1-2  1.813514437  1-3  1.813531094
     ( 0.959670512)     ( 0.959679326)

 Bond angles

  2-1-3  103.95523305

 NUCLEAR CHARGE:                   10
 NUMBER OF PRIMITIVE AOS:         121
 NUMBER OF SYMMETRY AOS:          108
 NUMBER OF CONTRACTIONS:           92   (   92A   )
 NUMBER OF INNER CORE ORBITALS:     0   (    0A   )
 NUMBER OF OUTER CORE ORBITALS:     1   (    1A   )
 NUMBER OF VALENCE ORBITALS:        6   (    6A   )


 NUCLEAR REPULSION ENERGY    9.17259116

 EXTRA SYMMETRY OF AOS IN SYMMETRY 1:   1 1 1 1 1 1 1 2 1 1   2 1 1 2 1 1 2 1 1 2   1 2 1 1 2 1 2 1 1 2   1 2 1 1 2 1 2 1 2 1
                                        1 2 1 2 1 2 1 1 1 1   1 1 2 1 1 2 1 1 2 1   1 2 1 2 1 1 2 1 2 1   1 1 1 1 1 2 1 1 2 1
                                        1 2 1 1 2 1 2 1 1 2   1 2

 Eigenvalues of metric

         1 0.387E-03 0.396E-03 0.166E-02 0.187E-02 0.322E-02 0.508E-02 0.561E-02 0.599E-02


 Contracted 2-electron integrals neglected if value below      1.0D-11
 AO integral compression algorithm  1   Integral accuracy      1.0D-11

     28.836 MB (compressed) written to integral file ( 29.9%)


 NUMBER OF SORTED TWO-ELECTRON INTEGRALS:    9152781.     BUFFER LENGTH:  32768
 NUMBER OF SEGMENTS:   1  SEGMENT LENGTH:    9152781      RECORD LENGTH: 524288

 Memory used in sort:       9.71 MW

 SORT1 READ    11938930. AND WROTE     4389787. INTEGRALS IN     13 RECORDS. CPU TIME:     0.05 SEC, REAL TIME:     0.11 SEC
 SORT2 READ     4389787. AND WROTE     9152781. INTEGRALS IN    110 RECORDS. CPU TIME:     0.10 SEC, REAL TIME:     0.23 SEC

 FILE SIZES:   FILE 1:    59.2 MBYTE,  FILE 4:    54.6 MBYTE,   TOTAL:    113.8 MBYTE

 OPERATOR DM      FOR CENTER  0  COORDINATES:    0.000000    0.000000    0.000000


 **********************************************************************************************************************************
 DATASETS  * FILE   NREC   LENGTH (MB)   RECORD NAMES
              1      19       49.52       500      610      700      900      950      970     1000      129      960     1100   
                                          VAR    BASINP    GEOM    SYMINP    ZMAT    AOBASIS   BASIS     P2S    ABASIS      S 
                                         1400     1410     1200     1210     1080     1600     1650     1300     1700   
                                           T        V       H0       H01     AOSYM     SMH    MOLCAS    ERIS     OPER   

 PROGRAMS   *        TOTAL       INT
 CPU TIMES  *         0.48      0.39
 REAL TIME  *         0.92 SEC
 DISK USED  *       108.86 MB
 **********************************************************************************************************************************


 Program * Restricted Hartree-Fock

 Orbital guess generated from atomic densities. Full valence occupancy:    7

 Initial occupancy:   5

 NELEC=   10   SYM=1   MS2= 0   THRE=1.0D-08   THRD=3.2D-06   THRG=3.2D-06  HFMA2=F  DIIS_START=2   DIIS_MAX=10   DIIS_INCORE=F

 Level shifts:    0.00 (CLOSED)    0.00 (OPEN)    0.30 (GAP_MIN)

 ITER           ETOT              DE          GRAD        DDIFF     DIIS  NEXP   TIME(IT)  TIME(TOT)  DIAG
   1      -76.02249810     -76.02249810     0.00D+00     0.67D-01     0     0       0.04      0.08    start
   2      -76.04930913      -0.02681103     0.10D-01     0.11D-01     1     0       0.04      0.12    diag
   3      -76.06019858      -0.01088945     0.64D-02     0.39D-02     2     0       0.04      0.16    diag
   4      -76.06038024      -0.00018165     0.60D-03     0.51D-03     3     0       0.04      0.20    diag
   5      -76.06039807      -0.00001783     0.16D-03     0.15D-03     4     0       0.04      0.24    diag
   6      -76.06039909      -0.00000102     0.30D-04     0.37D-04     5     0       0.04      0.28    diag
   7      -76.06039913      -0.00000005     0.58D-05     0.98D-05     6     0       0.04      0.32    diag
   8      -76.06039913      -0.00000000     0.11D-05     0.17D-05     7     0       0.05      0.37    fixocc
   9      -76.06039913      -0.00000000     0.13D-06     0.14D-06     0     0       0.03      0.40    diag

 Final occupancy:   5

 !RHF STATE 1.1 Energy                -76.060399134952
  RHF One-electron energy            -123.002101508132
  RHF Two-electron energy              37.769111217702
  RHF Kinetic energy                   75.950044489125
  RHF Nuclear energy                    9.172591155478
  RHF Virial quotient                  -1.001452989877

 !RHF STATE 1.1 Dipole moment           0.78438916     0.00357442    -0.00000000
 Dipole moment /Debye                   1.99371837     0.00908527    -0.00000000

 Orbital energies:

           1.1          2.1          3.1          4.1          5.1          6.1          7.1
    -20.567866    -1.352747    -0.715423    -0.585575    -0.510325     0.029378     0.047710


 HOMO      5.1    -0.510325 =     -13.8866eV
 LUMO      6.1     0.029378 =       0.7994eV
 LUMO-HOMO         0.539702 =      14.6860eV

 Orbitals saved in record  2100.2


 **********************************************************************************************************************************
 DATASETS  * FILE   NREC   LENGTH (MB)   RECORD NAMES
              1      19       49.52       500      610      700      900      950      970     1000      129      960     1100   
                                          VAR    BASINP    GEOM    SYMINP    ZMAT    AOBASIS   BASIS     P2S    ABASIS      S 
                                         1400     1410     1200     1210     1080     1600     1650     1300     1700   
                                           T        V       H0       H01     AOSYM     SMH    MOLCAS    ERIS     OPER   

              2       4        0.55       700     1000      520     2100   
                                         GEOM     BASIS   MCVARS     RHF  

 PROGRAMS   *        TOTAL    HF-SCF       INT
 CPU TIMES  *         0.89      0.42      0.39
 REAL TIME  *         1.44 SEC
 DISK USED  *       108.86 MB
 **********************************************************************************************************************************


 PROGRAM * MP2 (Closed-shell)     Authors: C. Hampel, H.-J. Werner, 1991, M. Deegan, P.J. Knowles, 1992


 Convergence thresholds:  THRVAR = 1.00D-08  THRDEN = 1.00D-06

 Number of core orbitals:           1 (   1 )
 Number of closed-shell orbitals:   4 (   4 )
 Number of external orbitals:      87 (  87 )

 Molecular orbitals read from record     2100.2  Type=RHF/CANONICAL  

 Number of N-1 electron functions:               4
 Number of N-2 electron functions:              10
 Number of singly external CSFs:               348
 Number of doubly external CSFs:             60726
 Total number of CSFs:                       61075

 Length of J-op  integral file:               0.00 MB
 Length of K-op  integral file:               0.64 MB

 Integral transformation finished. Total CPU:   0.05 sec, npass=  1  Memory used:   0.33 MW

 Memory needed for MP2:                      0.04 MW

 SCS-MP2 correlation energy:           -0.265803884467   (PS=  1.200000  PT=  0.333333)
 SCS-MP2 total energy:                -76.326203019419


  Reference energy                    -76.060399134952
  MP2 singlet pair energy              -0.170798054479
  MP2 triplet pair energy              -0.097788566399
  MP2 correlation energy               -0.268586620878

 !MP2 total energy                    -76.328985755830


 **********************************************************************************************************************************
 DATASETS  * FILE   NREC   LENGTH (MB)   RECORD NAMES
              1      20       50.63       500      610      700      900      950      970     1000      129      960     1100   
                                          VAR    BASINP    GEOM    SYMINP    ZMAT    AOBASIS   BASIS     P2S    ABASIS      S 
                                         1400     1410     1200     1210     1080     1600     1650     1300     1700     1380   
                                           T        V       H0       H01     AOSYM     SMH    MOLCAS    ERIS     OPER     JKOP   

              2       4        0.55       700     1000      520     2100   
                                         GEOM     BASIS   MCVARS     RHF  

 PROGRAMS   *        TOTAL       MP2    HF-SCF       INT
 CPU TIMES  *         0.96      0.07      0.42      0.39
 REAL TIME  *         1.53 SEC
 DISK USED  *       108.86 MB
 **********************************************************************************************************************************

 Counterpoise: absolute minimum monomer separation=    -1.000 Bragg radius scale factor=     1.400 Number of monomers= 1
 Counterpoise skipped because only a single monomer


 **********************************************************************************************************************************
 DATASETS  * FILE   NREC   LENGTH (MB)   RECORD NAMES
              1      20       50.63       500      610      700      900      950      970     1000      129      960     1100   
                                          VAR    BASINP    GEOM    SYMINP    ZMAT    AOBASIS   BASIS     P2S    ABASIS      S 
                                         1400     1410     1200     1210     1080     1600     1650     1300     1700     1380   
                                           T        V       H0       H01     AOSYM     SMH    MOLCAS    ERIS     OPER     JKOP   

              2       4        0.55       700     1000      520     2100   
                                         GEOM     BASIS   MCVARS     RHF  

 PROGRAMS   *        TOTALCOUNTERPOI       MP2    HF-SCF       INT
 CPU TIMES  *         0.96      0.00      0.07      0.42      0.39
 REAL TIME  *         1.53 SEC
 DISK USED  *       108.86 MB
 **********************************************************************************************************************************

 Dump information in style XML to xml output                                                                      

 Orbitals will not be exported.

 **********************************************************************************************************************************

 MP2/aug-cc-pVTZ energy=    -76.328985755830

             MP2          HF-SCF
    -76.32898576    -76.06039913
 **********************************************************************************************************************************
 Molpro calculation terminated
