
 Working directory              : /var/folders/2v/xbgp75_9785319ghcgb4zr4r0000gp/T//molpro.fP55XuoDD2/
 Global scratch directory       : /var/folders/2v/xbgp75_9785319ghcgb4zr4r0000gp/T//molpro.fP55XuoDD2/
 Wavefunction directory         : /Users/sacpjk/wfu/
 Main file repository           : /var/folders/2v/xbgp75_9785319ghcgb4zr4r0000gp/T//molpro.fP55XuoDD2/

 id        : peterk

 Nodes                        nprocs
 Cardiff-University-G34YLXT77Y    1
 GA implementation: MPI file
 GA implementation (serial work in mppx): MPI file

 Using customized tuning parameters: mindgm=1; mindgv=20; mindgc=4; mindgr=1; noblas=0; minvec=7
 default implementation of scratch files=df  


 Variables initialized (1032), CPU time= 0.00 sec
 
 core,small
 angstrom
 
 geometry={
 C1;H4,C1,1.08637390;H1,C1,1.08637390,H4,109.47122063;H2,C1,1.08637390,H4,109.47122063,H1,120;H3,C1,1.08637390,H4,109.47122063,H2,120
 }
 basis=cc-pCVDZ
 
 
 
 hf; hf; papt; mp4
 
 
 
 {put,xml;noorbitals,nobasis}
 Commands initialized (841), CPU time= 0.01 sec, 704 directives.
 Default parameters read. Elapsed time= 0.38 sec

 Checking input...
 Passed
1


                                         ***  PROGRAM SYSTEM MOLPRO  ***
                                       Copyright, TTI GmbH Stuttgart, 2015
                                    Version 2023.1 linked Tue Jun  6 09:54:11 2023


 **********************************************************************************************************************************
 LABEL *                                                                                                                                                                 
  64 bit serial version                                                                  DATE: 12-Jun-23          TIME: 09:40:34  
 **********************************************************************************************************************************

 SHA1:             8ebb0dd001088a5c915591db1a321413035db0b1
 **********************************************************************************************************************************

 Memory per process:       393 MW
 Total memory per node:    524 MW
 Total GA space:           131 MW

 GA preallocation disabled
 GA check enabled

 Variable memory set to 393.2 MW

 ZUNIT=ANG

 SETTING BASIS          =    CC-PCVDZ


 Recomputing integrals since basis changed


 Using spherical harmonics

 Library entry C      S cc-pCVDZ             selected for orbital group  1
 Library entry C      P cc-pCVDZ             selected for orbital group  1
 Library entry C      D cc-pCVDZ             selected for orbital group  1
 Library entry H      S cc-pVDZ              selected for orbital group  2
 Library entry H      P cc-pVDZ              selected for orbital group  2


 PROGRAM * SEWARD (Integral evaluation for generally contracted gaussian basis sets)     Author: Roland Lindh, 1990

 Geometry written to block  1 of record 700

 Orientation using atomic masses  
 Molecule type: Spherical top,     Neighbour degeneracy = 4
 Symmetry elements: X,Y
 Rotational constants:     159.3144359    159.3144359    159.3144358 GHz  (calculated with average atomic masses)

 Point group  C2v 



 ATOMIC COORDINATES

 NR  ATOM    CHARGE       X              Y              Z

   1  C1      6.00    0.000000000    0.000000000   -0.000000000
   2  H4      1.00    1.676225954    0.000000000    1.185270739
   3  H1      1.00   -1.676225954    0.000000000    1.185270739
   4  H2      1.00    0.000000000    1.676225954   -1.185270739
   5  H3      1.00    0.000000000   -1.676225954   -1.185270739

 Bond lengths in Bohr (Angstrom)

 1-2  2.052949140  1-3  2.052949140  1-4  2.052949140  1-5  2.052949140
     ( 1.086373900)     ( 1.086373900)     ( 1.086373900)     ( 1.086373900)

 Bond angles

  2-1-3  109.47122063   2-1-4  109.47122063   2-1-5  109.47122063   3-1-4  109.47122063

  3-1-5  109.47122063   4-1-5  109.47122064

 NUCLEAR CHARGE:                   10
 NUMBER OF PRIMITIVE AOS:          59
 NUMBER OF SYMMETRY AOS:           58
 NUMBER OF CONTRACTIONS:           38   (   17A1  +    9B1  +    9B2  +    3A2  )
 NUMBER OF INNER CORE ORBITALS:     0   (    0A1  +    0B1  +    0B2  +    0A2  )
 NUMBER OF OUTER CORE ORBITALS:     1   (    1A1  +    0B1  +    0B2  +    0A2  )
 NUMBER OF VALENCE ORBITALS:        8   (    4A1  +    2B1  +    2B2  +    0A2  )


 NUCLEAR REPULSION ENERGY   13.48023391


 Eigenvalues of metric

         1 0.116E-01 0.346E-01 0.427E-01 0.569E-01 0.753E-01 0.127E+00 0.133E+00 0.287E+00
         2 0.346E-01 0.569E-01 0.127E+00 0.406E+00 0.914E+00 0.976E+00 0.114E+01 0.148E+01
         3 0.346E-01 0.569E-01 0.127E+00 0.406E+00 0.914E+00 0.976E+00 0.114E+01 0.148E+01
         4 0.287E+00 0.914E+00 0.176E+01


 Contracted 2-electron integrals neglected if value below      1.0D-11
 AO integral compression algorithm  1   Integral accuracy      1.0D-11

     0.786 MB (compressed) written to integral file ( 67.8%)


 NUMBER OF SORTED TWO-ELECTRON INTEGRALS:      78024.     BUFFER LENGTH:  32768
 NUMBER OF SEGMENTS:   1  SEGMENT LENGTH:      78024      RECORD LENGTH: 524288

 Memory used in sort:       0.64 MW

 SORT1 READ      103253. AND WROTE       74624. INTEGRALS IN      1 RECORDS. CPU TIME:     0.00 SEC, REAL TIME:     0.01 SEC
 SORT2 READ       74624. AND WROTE       78024. INTEGRALS IN      3 RECORDS. CPU TIME:     0.00 SEC, REAL TIME:     0.01 SEC

 FILE SIZES:   FILE 1:    30.8 MBYTE,  FILE 4:     4.3 MBYTE,   TOTAL:     35.1 MBYTE

 OPERATOR DM      FOR CENTER  0  COORDINATES:    0.000000    0.000000    0.000000


 **********************************************************************************************************************************
 DATASETS  * FILE   NREC   LENGTH (MB)   RECORD NAMES
              1      19       29.03       500      610      700      900      950      970     1000      129      960     1100   
                                          VAR    BASINP    GEOM    SYMINP    ZMAT    AOBASIS   BASIS     P2S    ABASIS      S 
                                         1400     1410     1200     1210     1080     1600     1650     1300     1700   
                                           T        V       H0       H01     AOSYM     SMH    MOLCAS    ERIS     OPER   

 PROGRAMS   *        TOTAL       INT
 CPU TIMES  *         0.18      0.07
 REAL TIME  *         1.66 SEC
 DISK USED  *        33.81 MB
 **********************************************************************************************************************************


 Program * Restricted Hartree-Fock

 Orbital guess generated from atomic densities. Full valence occupancy:    5   2   2   0

 Initial occupancy:   3   1   1   0

 NELEC=   10   SYM=1   MS2= 0   THRE=1.0D-08   THRD=3.2D-06   THRG=3.2D-06  HFMA2=F  DIIS_START=2   DIIS_MAX=10   DIIS_INCORE=F

 Level shifts:    0.00 (CLOSED)    0.00 (OPEN)    0.30 (GAP_MIN)

 ITER           ETOT              DE          GRAD        DDIFF     DIIS  NEXP   TIME(IT)  TIME(TOT)  DIAG
   1      -40.18088451     -40.18088451     0.00D+00     0.25D+00     0     0       0.00      0.00    start
   2      -40.19704952      -0.01616501     0.14D-01     0.29D-01     1     0       0.00      0.00    diag
   3      -40.19898334      -0.00193382     0.54D-02     0.10D-01     2     0       0.00      0.00    diag
   4      -40.19924763      -0.00026429     0.14D-02     0.36D-02     3     0       0.00      0.00    diag
   5      -40.19925019      -0.00000256     0.15D-03     0.55D-03     4     0       0.00      0.00    diag
   6      -40.19925021      -0.00000002     0.12D-04     0.58D-04     5     0       0.00      0.00    diag
   7      -40.19925021      -0.00000000     0.64D-06     0.25D-05     6     0       0.00      0.00    diag
   8      -40.19925021      -0.00000000     0.39D-07     0.95D-07     0     0       0.00      0.00    fixocc

 Final occupancy:   3   1   1   0

 !RHF STATE 1.1 Energy                -40.199250205939
  RHF One-electron energy             -79.779366865388
  RHF Two-electron energy              26.099882748266
  RHF Kinetic energy                   40.099314203276
  RHF Nuclear energy                   13.480233911183
  RHF Virial quotient                  -1.002492212265

 !RHF STATE 1.1 Dipole moment           0.00000000     0.00000000     0.00000000
 Dipole moment /Debye                   0.00000000     0.00000000     0.00000000

 Orbital energies:

           1.1          2.1          3.1          4.1          5.1
    -11.215163    -0.943486    -0.543717     0.191869     0.274498

           1.2          2.2          3.2
     -0.543717     0.274498     0.588701

           1.3          2.3          3.3
     -0.543717     0.274498     0.588701

           1.4          2.4
      1.131955     1.688828


 HOMO      1.3    -0.543717 =     -14.7953eV
 LUMO      4.1     0.191869 =       5.2210eV
 LUMO-HOMO         0.735587 =      20.0163eV

 Orbitals saved in record  2100.2


 **********************************************************************************************************************************
 DATASETS  * FILE   NREC   LENGTH (MB)   RECORD NAMES
              1      19       29.03       500      610      700      900      950      970     1000      129      960     1100   
                                          VAR    BASINP    GEOM    SYMINP    ZMAT    AOBASIS   BASIS     P2S    ABASIS      S 
                                         1400     1410     1200     1210     1080     1600     1650     1300     1700   
                                           T        V       H0       H01     AOSYM     SMH    MOLCAS    ERIS     OPER   

              2       4        0.41       700     1000      520     2100   
                                         GEOM     BASIS   MCVARS     RHF  

 PROGRAMS   *        TOTAL    HF-SCF       INT
 CPU TIMES  *         0.19      0.02      0.07
 REAL TIME  *         1.84 SEC
 DISK USED  *        33.81 MB
 **********************************************************************************************************************************


 Program * Restricted Hartree-Fock

 Molecular orbitals read from record     2100.2  Type=RHF/CANONICAL  

 Initial occupancy:   3   1   1   0

 NELEC=   10   SYM=1   MS2= 0   THRE=1.0D-08   THRD=3.2D-06   THRG=3.2D-06  HFMA2=F  DIIS_START=2   DIIS_MAX=10   DIIS_INCORE=F

 Level shifts:    0.00 (CLOSED)    0.00 (OPEN)    0.30 (GAP_MIN)

 ITER           ETOT              DE          GRAD        DDIFF     DIIS  NEXP   TIME(IT)  TIME(TOT)  DIAG
   1      -40.19925021     -40.19925021     0.00D+00     0.26D+00     0     0       0.00      0.00    start
   2      -40.19925021      -0.00000000     0.90D-08     0.21D-07     1     0       0.00      0.00    diag

 Final occupancy:   3   1   1   0

 !RHF STATE 1.1 Energy                -40.199250205939
  RHF One-electron energy             -79.779366535894
  RHF Two-electron energy              26.099882418771
  RHF Kinetic energy                   40.099313960171
  RHF Nuclear energy                   13.480233911183
  RHF Virial quotient                  -1.002492218342

 !RHF STATE 1.1 Dipole moment           0.00000000     0.00000000     0.00000000
 Dipole moment /Debye                   0.00000000     0.00000000     0.00000000

 Orbital energies:

           1.1          2.1          3.1          4.1          5.1
    -11.215163    -0.943486    -0.543717     0.191869     0.274498

           1.2          2.2          3.2
     -0.543717     0.274498     0.588701

           1.3          2.3          3.3
     -0.543717     0.274498     0.588701

           1.4          2.4
      1.131955     1.688828


 HOMO      1.3    -0.543717 =     -14.7953eV
 LUMO      4.1     0.191869 =       5.2210eV
 LUMO-HOMO         0.735587 =      20.0163eV

 Orbitals saved in record  2101.2


 **********************************************************************************************************************************
 DATASETS  * FILE   NREC   LENGTH (MB)   RECORD NAMES
              1      19       29.03       500      610      700      900      950      970     1000      129      960     1100   
                                          VAR    BASINP    GEOM    SYMINP    ZMAT    AOBASIS   BASIS     P2S    ABASIS      S 
                                         1400     1410     1200     1210     1080     1600     1650     1300     1700   
                                           T        V       H0       H01     AOSYM     SMH    MOLCAS    ERIS     OPER   

              2       5        0.52       700     1000      520     2100     2101   
                                         GEOM     BASIS   MCVARS     RHF      RHF  

 PROGRAMS   *        TOTAL    HF-SCF    HF-SCF       INT
 CPU TIMES  *         0.20      0.01      0.02      0.07
 REAL TIME  *         1.97 SEC
 DISK USED  *        33.81 MB
 **********************************************************************************************************************************


 PROGRAM * PAPT (Closed-shell)     Authors: C. Hampel, H.-J. Werner, 1991, P.J. Knowles, 2021


 CORETYPE=SMALL

 Convergence thresholds:  THRVAR = 1.00D-08  THRDEN = 1.00D-06

 Number of closed-shell orbitals:   5 (   3   1   1   0 )
 Number of external orbitals:      33 (  14   8   8   3 )

 Molecular orbitals read from record     2101.2  Type=RHF/CANONICAL  

 Number of N-1 electron functions:               5
 Number of N-2 electron functions:              15
 Number of singly external CSFs:                58
 Number of doubly external CSFs:              3758
 Total number of CSFs:                        3817

 Length of J-op  integral file:               0.00 MB
 Length of K-op  integral file:               0.09 MB

 Integral transformation finished. Total CPU:   0.00 sec, npass=  1  Memory used:   0.07 MW

 Reference energy:                    -40.19925021

                        CORR.ENERGY   TOTAL ENERGY   ENERGY CHANGE
 MP2:                   -0.19772679   -40.39697700    -0.19772679

 SCS-MP2 correlation energy:           -0.20867379   (PS=  1.200000  PT=  0.333333)
 SCS-MP2 total energy:                -40.40792400
 Iteration:   1     0.4407D+00
 Iteration:   2     0.3493D+01
 Iteration:   3     0.2066D+00
 Iteration:   4     0.8195D-01
 Iteration:   5     0.7394D+00
 Iteration:   6     0.9429D-02
 Iteration:   7     0.5292D-02
 Iteration:   8     0.1546D-01
 Iteration:   9     0.7456D-03
 Iteration:  10     0.1567D-03
 Iteration:  11     0.1728D-04
 PAPT operator written to  7000.1
 PAPT orbitals and eigenvalues written to  7000.2

 MP3(D):                -0.21980428   -40.41905449    -0.02207749



 RESULTS
 =======

  Reference energy                    -40.199250205939

  Correlated core orbitals:             1.1
  Orbital energies:                   -11.2152

  MP3 core-core energy                 -0.031680181707
  MP3 core-valence energy              -0.005960985426
  MP3 valence correlation energy       -0.182163115363

  MP3 singlet pair energy              -0.169878485892
  MP3 triplet pair energy              -0.049925796605
  MP3 correlation energy               -0.219804282496

 !MP3 total energy                    -40.419054488436

 Timing summary (sec):

 STEP                 CPU(USER)    SYS     CPU(TOT)    WALL
 CCSD iterations         0.33      0.01      0.34      0.51

 Program statistics:

 Available memory in ccsd:               393215897
 Min. memory needed in ccsd:                 17587
 Max. memory used in ccsd:                   20053
 Max. memory used in cckext:                 50612 ( 1 integral passes)



 **********************************************************************************************************************************
 DATASETS  * FILE   NREC   LENGTH (MB)   RECORD NAMES
              1      21       29.11       500      610      700      900      950      970     1000      129      960     1100   
                                          VAR    BASINP    GEOM    SYMINP    ZMAT    AOBASIS   BASIS     P2S    ABASIS      S 
                                         1400     1410     1200     1210     1080     1600     1650     1300     1700     1380   
                                           T        V       H0       H01     AOSYM     SMH    MOLCAS    ERIS     OPER     JKOP   
                                         7000   
                                        PAPT AO    

              2       6        0.63       700     1000      520     2100     2101     7000   
                                         GEOM     BASIS   MCVARS     RHF      RHF     PAPT   

 PROGRAMS   *        TOTAL      PAPT    HF-SCF    HF-SCF       INT
 CPU TIMES  *         0.24      0.04      0.01      0.02      0.07
 REAL TIME  *         2.84 SEC
 DISK USED  *        33.81 MB
 **********************************************************************************************************************************


 PROGRAM * MP4 (Closed-shell)     Authors: C. Hampel, H.-J. Werner, 1991, M. Deegan, P.J. Knowles, 1992


 CORETYPE=SMALL

 Convergence thresholds:  THRVAR = 1.00D-08  THRDEN = 1.00D-06

 MP4(T)     terms to be evaluated (factor= 0.000)


 Number of closed-shell orbitals:   5 (   3   1   1   0 )
 Number of external orbitals:      33 (  14   8   8   3 )

 Molecular orbitals read from record     7000.2  Type=PAPT/CANONICAL (state 1.1)

 Number of N-1 electron functions:               5
 Number of N-2 electron functions:              15
 Number of singly external CSFs:                58
 Number of doubly external CSFs:              3758
 Total number of CSFs:                        3817

 Length of J-op  integral file:               0.00 MB
 Length of K-op  integral file:               0.09 MB

 Memory could be reduced to 0.13 Mwords without degradation in triples

 Integral transformation finished. Total CPU:   0.00 sec, npass=  1  Memory used:   0.08 MW
 Orbital energies read from record       7000.2  Type=PAPT/CANONICAL (state 1.1)

 Reference energy:                    -40.19925021

                        CORR.ENERGY   TOTAL ENERGY   ENERGY CHANGE
 MP2:                   -0.22402294   -40.42327314    -0.22402294

 SCS-MP2 correlation energy:           -0.23719127   (PS=  1.200000  PT=  0.333333)
 SCS-MP2 total energy:                -40.43644147

 MP3(D):                -0.22412422   -40.42337442    -0.00010128
 MP4(DQ):               -0.22218359   -40.42143379     0.00194063
 MP4(SDQ):              -0.22296968   -40.42221989    -0.00078610

 Norm of t1 vector:      0.02157869      S-energy:    -0.00078610      T1 diagnostic:  0.00482514

 Largest off-diagonal element in interal  block of Fock matrix:  0.64D-01
 Largest off-diagonal element in external block of Fock matrix:  0.16D+00


 Total CPU time for triples:      0.00 sec


 RESULTS
 =======

  Reference energy                    -40.199250205939

  Correlated core orbitals:             1.1
  Orbital energies:                   -10.3509

  MP4(SDQ) core-core energy            -0.031922360626
  MP4(SDQ) core-valence energy         -0.005866290915
  MP4(SDQ) valence correlation ener    -0.185181033161

  MP4(SDQ) singlet pair energy         -0.172775704262
  MP4(SDQ) triplet pair energy         -0.049407883371
  MP4(SDQ) correlation energy          -0.222969684701

  Triples contribution                 -0.004856751759
  Total correlation energy             -0.227826436460

  MP4(SDQ) total energy               -40.422219890640
 !MP4(SDTQ) total energy              -40.427076642399

 Timing summary (sec):

 STEP                 CPU(USER)    SYS     CPU(TOT)    WALL
 CCSD iterations         0.37      0.00      0.37      0.18

 Program statistics:

 Available memory in ccsd:               393215897
 Min. memory needed in ccsd:                 17587
 Max. memory used in ccsd:                   20053
 Max. memory used in cckext:                 50612 ( 1 integral passes)



 **********************************************************************************************************************************
 DATASETS  * FILE   NREC   LENGTH (MB)   RECORD NAMES
              1      22       29.30       500      610      700      900      950      970     1000      129      960     1100   
                                          VAR    BASINP    GEOM    SYMINP    ZMAT    AOBASIS   BASIS     P2S    ABASIS      S 
                                         1400     1410     1200     1210     1080     1600     1650     1300     1700     1380   
                                           T        V       H0       H01     AOSYM     SMH    MOLCAS    ERIS     OPER     JKOP   
                                         7000     1380(1)
                                        PAPT AO   JKOP   

              2       6        0.63       700     1000      520     2100     2101     7000   
                                         GEOM     BASIS   MCVARS     RHF      RHF     PAPT   

 PROGRAMS   *        TOTAL       MP4      PAPT    HF-SCF    HF-SCF       INT
 CPU TIMES  *         0.28      0.04      0.04      0.01      0.02      0.07
 REAL TIME  *         3.31 SEC
 DISK USED  *        33.81 MB
 **********************************************************************************************************************************

 Dump information in style XML to xml output                                                                      

 Orbitals will not be exported.

 **********************************************************************************************************************************

 MP4/cc-pCVDZ energy=    -40.427076642399

             MP4            PAPT          HF-SCF          HF-SCF
    -40.42707664    -40.41905449    -40.19925021    -40.19925021
 **********************************************************************************************************************************
 Molpro calculation terminated
