
 Working directory              : /var/folders/2v/xbgp75_9785319ghcgb4zr4r0000gp/T//molpro.87R5oN1LuU/
 Global scratch directory       : /var/folders/2v/xbgp75_9785319ghcgb4zr4r0000gp/T//molpro.87R5oN1LuU/
 Wavefunction directory         : /Users/sacpjk/wfu/
 Main file repository           : /var/folders/2v/xbgp75_9785319ghcgb4zr4r0000gp/T//molpro.87R5oN1LuU/

 id        : peterk

 Nodes                        nprocs
 Cardiff-University-G34YLXT77Y    1
 GA implementation: MPI file
 GA implementation (serial work in mppx): MPI file

 Using customized tuning parameters: mindgm=1; mindgv=20; mindgc=4; mindgr=1; noblas=0; minvec=7
 default implementation of scratch files=df  


 Variables initialized (1032), CPU time= 0.00 sec
 
 symmetry,nosym
 
 
 geometry={
           11
     C         -0.09812376     -0.86171422      0.74510227
     C         -0.09812376     -0.86171422     -0.74510227
     C         -0.07649575      0.48854926      1.14927041
     C         -0.07649575      0.48854926     -1.14927041
     C         -0.06639375      1.29138755      0.00000000
     H          0.96023961     -1.09286530      0.00000000
     H         -0.24947482     -1.74512953      1.35355848
     H         -0.24947482     -1.74512953     -1.35355848
     H         -0.02538874      0.83198439      2.17492777
     H         -0.02538874      0.83198439     -2.17492777
     H          0.00512027      2.37409794      0.00000000
 }
 basis=cc-pVTZ
 
 
 
 hf; hf; papt; mp2
 
 
 
 {put,xml;noorbitals,nobasis}
 Commands initialized (841), CPU time= 0.01 sec, 704 directives.
 Default parameters read. Elapsed time= 0.12 sec

 Checking input...
 Passed
1


                                         ***  PROGRAM SYSTEM MOLPRO  ***
                                       Copyright, TTI GmbH Stuttgart, 2015
                                    Version 2023.1 linked Tue Jun  6 09:54:11 2023


 **********************************************************************************************************************************
 LABEL *                                                                                                                                                                 
  64 bit serial version                                                                  DATE: 11-Jun-23          TIME: 09:07:24  
 **********************************************************************************************************************************

 SHA1:             8ebb0dd001088a5c915591db1a321413035db0b1
 **********************************************************************************************************************************

 Memory per process:       393 MW
 Total memory per node:    524 MW
 Total GA space:           131 MW

 GA preallocation disabled
 GA check enabled

 Variable memory set to 393.2 MW

 ZSYMEL=NOSYM


 Geometry recognized as XYZ

 SETTING BASIS          =    CC-PVTZ


 Recomputing integrals since basis changed


 Using spherical harmonics

 Library entry C      S cc-pVTZ              selected for orbital group  1
 Library entry C      P cc-pVTZ              selected for orbital group  1
 Library entry C      D cc-pVTZ              selected for orbital group  1
 Library entry C      F cc-pVTZ              selected for orbital group  1
 Library entry H      S cc-pVTZ              selected for orbital group  2
 Library entry H      P cc-pVTZ              selected for orbital group  2
 Library entry H      D cc-pVTZ              selected for orbital group  2


 PROGRAM * SEWARD (Integral evaluation for generally contracted gaussian basis sets)     Author: Roland Lindh, 1990

 Geometry written to block  1 of record 700


 Point group  C1  



 ATOMIC COORDINATES

 NR  ATOM    CHARGE       X              Y              Z

   1  C       6.00   -0.185427033   -1.628403873    1.408039225
   2  C       6.00   -0.185427033   -1.628403873   -1.408039225
   3  C       6.00   -0.144556017    0.923224300    2.171806318
   4  C       6.00   -0.144556017    0.923224300   -2.171806318
   5  C       6.00   -0.125466004    2.440368790    0.000000000
   6  H       1.00    1.814589877   -2.065216108    0.000000000
   7  H       1.00   -0.471439085   -3.297816864    2.557854821
   8  H       1.00   -0.471439085   -3.297816864   -2.557854821
   9  H       1.00   -0.047977765    1.572222637    4.110017826
  10  H       1.00   -0.047977765    1.572222637   -4.110017826
  11  H       1.00    0.009675908    4.486394900    0.000000000

 Bond lengths in Bohr (Angstrom)

 1-2  2.816078450  1-3  2.663797467  1-6  2.484642233  1-7  2.047148878  2-4  2.663797467
     ( 1.490204540)     ( 1.409620914)     ( 1.314816047)     ( 1.083304534)     ( 1.409620914)

 2-6  2.484642233  2-8  2.047148878  3-5  2.649308309  3-9  2.046262459  4-5  2.649308309
     ( 1.314816047)     ( 1.083304534)     ( 1.401953582)     ( 1.082835461)     ( 1.401953582)

  4-10  2.046262459   5-11  2.050484376
       ( 1.082835461)       ( 1.085069603)

 Bond angles

  1-2-4  106.66175794   1-2-6   55.47978489   1-2-8  124.17114784   1-3-5  108.27691816

  1-3-9  125.17759500   1-6-2   69.04043022   2-1-3  106.66175794   2-1-6   55.47978489

  2- 1- 7  124.17114784   2- 4- 5  108.27691816   2- 4-10  125.17759500   3- 1- 6  108.57437980

  3- 1- 7  128.48025281   3- 5- 4  110.12225738   3- 5-11  124.88189150   4- 2- 6  108.57437980

  4- 2- 8  128.48025281   4- 5-11  124.88189150   5- 3- 9  126.47779134   5- 4-10  126.47779134

  6-1-7  106.70181673   6-2-8  106.70181673

 NUCLEAR CHARGE:                   36
 NUMBER OF PRIMITIVE AOS:         337
 NUMBER OF SYMMETRY AOS:          306
 NUMBER OF CONTRACTIONS:          234   (  234A   )
 NUMBER OF INNER CORE ORBITALS:     0   (    0A   )
 NUMBER OF OUTER CORE ORBITALS:     5   (    5A   )
 NUMBER OF VALENCE ORBITALS:       26   (   26A   )


 NUCLEAR REPULSION ENERGY  158.26977708


 Eigenvalues of metric

         1 0.131E-03 0.204E-03 0.970E-03 0.100E-02 0.104E-02 0.106E-02 0.117E-02 0.129E-02


 Contracted 2-electron integrals neglected if value below      1.0D-11
 AO integral compression algorithm  1   Integral accuracy      1.0D-11

     1449.132 MB (compressed) written to integral file ( 44.6%)


 NUMBER OF SORTED TWO-ELECTRON INTEGRALS:  378001260.     BUFFER LENGTH:  32768
 NUMBER OF SEGMENTS:  24  SEGMENT LENGTH:   15999762      RECORD LENGTH: 524288

 Memory used in sort:      16.56 MW

 SORT1 READ   406309485. AND WROTE   348371988. INTEGRALS IN   1007 RECORDS. CPU TIME:     3.56 SEC, REAL TIME:    11.23 SEC
 SORT2 READ   348371988. AND WROTE   378001260. INTEGRALS IN   5528 RECORDS. CPU TIME:     2.54 SEC, REAL TIME:     9.58 SEC

 FILE SIZES:   FILE 1:  1481.3 MBYTE,  FILE 4:  4223.7 MBYTE,   TOTAL:   5705.1 MBYTE

 OPERATOR DM      FOR CENTER  0  COORDINATES:    0.000000    0.000000    0.000000


 **********************************************************************************************************************************
 DATASETS  * FILE   NREC   LENGTH (MB)   RECORD NAMES
              1      19     1310.81       500      610      700      900      950      970     1000      129      960     1100   
                                          VAR    BASINP    GEOM    SYMINP    ZMAT    AOBASIS   BASIS     P2S    ABASIS      S 
                                         1400     1410     1200     1210     1080     1600     1650     1300     1700   
                                           T        V       H0       H01     AOSYM     SMH    MOLCAS    ERIS     OPER   

 PROGRAMS   *        TOTAL       INT
 CPU TIMES  *        17.32     17.20
 REAL TIME  *        46.78 SEC
 DISK USED  *         5.31 GB
 **********************************************************************************************************************************


 Program * Restricted Hartree-Fock

 Orbital guess generated from atomic densities. Full valence occupancy:   31

 Initial occupancy:  18

 NELEC=   36   SYM=1   MS2= 0   THRE=1.0D-08   THRD=3.2D-06   THRG=3.2D-06  HFMA2=F  DIIS_START=2   DIIS_MAX=10   DIIS_INCORE=F

 Level shifts:    0.00 (CLOSED)    0.00 (OPEN)    0.30 (GAP_MIN)

 ITER           ETOT              DE          GRAD        DDIFF     DIIS  NEXP   TIME(IT)  TIME(TOT)  DIAG
   1     -192.72983678    -192.72983678     0.00D+00     0.48D-01     0     0       1.92      3.62    start
   2     -192.78515546      -0.05531868     0.35D-02     0.53D-02     1     0       1.90      5.52    diag
   3     -192.79817439      -0.01301893     0.18D-02     0.19D-02     2     0       1.90      7.42    diag
   4     -192.79942016      -0.00124577     0.44D-03     0.81D-03     3     0       1.91      9.33    diag
   5     -192.79949138      -0.00007123     0.11D-03     0.17D-03     4     0       1.93     11.26    diag
   6     -192.79950299      -0.00001161     0.34D-04     0.87D-04     5     0       2.00     13.26    diag
   7     -192.79950522      -0.00000223     0.11D-04     0.31D-04     6     0       2.06     15.32    diag
   8     -192.79950587      -0.00000065     0.55D-05     0.17D-04     7     0       2.01     17.33    fixocc
   9     -192.79950595      -0.00000008     0.21D-05     0.65D-05     8     0       2.01     19.34    diag
  10     -192.79950596      -0.00000001     0.69D-06     0.22D-05     9     0       2.00     21.34    diag/orth
  11     -192.79950596      -0.00000000     0.15D-06     0.30D-06     0     0       1.95     23.29    diag

 Final occupancy:  18

 !RHF STATE 1.1 Energy               -192.799505958588
  RHF One-electron energy            -572.471723688529
  RHF Two-electron energy             221.402440650757
  RHF Kinetic energy                  192.439705882584
  RHF Nuclear energy                  158.269777079184
  RHF Virial quotient                  -1.001869676917

 !RHF STATE 1.1 Dipole moment           0.18280101    -0.47892285    -0.00000000
 Dipole moment /Debye                   0.46463383    -1.21730047    -0.00000000

 Orbital energies:

           1.1          2.1          3.1          4.1          5.1          6.1          7.1          8.1          9.1         10.1
    -11.257446   -11.256712   -11.221239   -11.213910   -11.213797    -1.172159    -0.976549    -0.954178    -0.744760    -0.743450

          11.1         12.1         13.1         14.1         15.1         16.1         17.1         18.1         19.1         20.1
     -0.701179    -0.604655    -0.553934    -0.531621    -0.526206    -0.510854    -0.350183    -0.300577     0.140660     0.162660


 HOMO     18.1    -0.300577 =      -8.1791eV
 LUMO     19.1     0.140660 =       3.8275eV
 LUMO-HOMO         0.441237 =      12.0067eV

 Orbitals saved in record  2100.2


 **********************************************************************************************************************************
 DATASETS  * FILE   NREC   LENGTH (MB)   RECORD NAMES
              1      19     1310.81       500      610      700      900      950      970     1000      129      960     1100   
                                          VAR    BASINP    GEOM    SYMINP    ZMAT    AOBASIS   BASIS     P2S    ABASIS      S 
                                         1400     1410     1200     1210     1080     1600     1650     1300     1700   
                                           T        V       H0       H01     AOSYM     SMH    MOLCAS    ERIS     OPER   

              2       4        1.41       700     1000      520     2100   
                                         GEOM     BASIS   MCVARS     RHF  

 PROGRAMS   *        TOTAL    HF-SCF       INT
 CPU TIMES  *        40.61     23.28     17.20
 REAL TIME  *        92.49 SEC
 DISK USED  *         5.31 GB
 **********************************************************************************************************************************


 Program * Restricted Hartree-Fock

 Molecular orbitals read from record     2100.2  Type=RHF/CANONICAL  

 Initial occupancy:  18

 NELEC=   36   SYM=1   MS2= 0   THRE=1.0D-08   THRD=3.2D-06   THRG=3.2D-06  HFMA2=F  DIIS_START=2   DIIS_MAX=10   DIIS_INCORE=F

 Level shifts:    0.00 (CLOSED)    0.00 (OPEN)    0.30 (GAP_MIN)

 ITER           ETOT              DE          GRAD        DDIFF     DIIS  NEXP   TIME(IT)  TIME(TOT)  DIAG
   1     -192.79950596    -192.79950596     0.00D+00     0.49D-01     0     0       1.93      1.93    start
   2     -192.79950596      -0.00000000     0.72D-07     0.13D-06     1     0       2.02      3.95    diag

 Final occupancy:  18

 !RHF STATE 1.1 Energy               -192.799505958639
  RHF One-electron energy            -572.471734074003
  RHF Two-electron energy             221.402451036179
  RHF Kinetic energy                  192.439710749798
  RHF Nuclear energy                  158.269777079184
  RHF Virial quotient                  -1.001869651578

 !RHF STATE 1.1 Dipole moment           0.18280341    -0.47893476     0.00000000
 Dipole moment /Debye                   0.46463994    -1.21733074     0.00000000

 Orbital energies:

           1.1          2.1          3.1          4.1          5.1          6.1          7.1          8.1          9.1         10.1
    -11.257447   -11.256713   -11.221246   -11.213907   -11.213794    -1.172159    -0.976550    -0.954178    -0.744761    -0.743451

          11.1         12.1         13.1         14.1         15.1         16.1         17.1         18.1         19.1         20.1
     -0.701179    -0.604655    -0.553934    -0.531623    -0.526206    -0.510854    -0.350184    -0.300577     0.140660     0.162660


 HOMO     18.1    -0.300577 =      -8.1791eV
 LUMO     19.1     0.140660 =       3.8275eV
 LUMO-HOMO         0.441237 =      12.0067eV

 Orbitals saved in record  2101.2


 **********************************************************************************************************************************
 DATASETS  * FILE   NREC   LENGTH (MB)   RECORD NAMES
              1      19     1310.81       500      610      700      900      950      970     1000      129      960     1100   
                                          VAR    BASINP    GEOM    SYMINP    ZMAT    AOBASIS   BASIS     P2S    ABASIS      S 
                                         1400     1410     1200     1210     1080     1600     1650     1300     1700   
                                           T        V       H0       H01     AOSYM     SMH    MOLCAS    ERIS     OPER   

              2       5        2.98       700     1000      520     2100     2101   
                                         GEOM     BASIS   MCVARS     RHF      RHF  

 PROGRAMS   *        TOTAL    HF-SCF    HF-SCF       INT
 CPU TIMES  *        44.58      3.96     23.28     17.20
 REAL TIME  *        99.83 SEC
 DISK USED  *         5.31 GB
 **********************************************************************************************************************************


 PROGRAM * PAPT (Closed-shell)     Authors: C. Hampel, H.-J. Werner, 1991, P.J. Knowles, 2021


 Convergence thresholds:  THRVAR = 1.00D-08  THRDEN = 1.00D-06

 Number of core orbitals:           5 (   5 )
 Number of closed-shell orbitals:  13 (  13 )
 Number of external orbitals:     216 ( 216 )

 Molecular orbitals read from record     2101.2  Type=RHF/CANONICAL  

 Number of N-1 electron functions:              13
 Number of N-2 electron functions:              91
 Number of singly external CSFs:              2808
 Number of doubly external CSFs:           3943836
 Total number of CSFs:                     3946645

 Length of J-op  integral file:               0.00 MB
 Length of K-op  integral file:               3.82 MB

 Integral transformation finished. Total CPU:   4.86 sec, npass=  1  Memory used:   9.44 MW

 Reference energy:                   -192.79950596

                        CORR.ENERGY   TOTAL ENERGY   ENERGY CHANGE
 MP2:                   -0.82529569  -193.62480165    -0.82529569

 SCS-MP2 correlation energy:           -0.81162874   (PS=  1.200000  PT=  0.333333)
 SCS-MP2 total energy:               -193.61113470
 Iteration:   1     0.2761D+00
 Iteration:   2     0.4660D+00
 Iteration:   3     0.7706D-01
 Iteration:   4     0.1009D+00
 Iteration:   5     0.3410D-01
 Iteration:   6     0.1926D-01
 Iteration:   7     0.4906D-01
 Iteration:   8     0.4428D-02
 Iteration:   9     0.6373D-02
 Iteration:  10     0.1412D-02
 Iteration:  11     0.8303D-03
 Iteration:  12     0.1265D-02
 Iteration:  13     0.2681D-03
 Iteration:  14     0.1123D-02
 Iteration:  15     0.9757D-04
 PAPT operator written to  7000.1
 PAPT orbitals and eigenvalues written to  7000.2

 MP3(D):                -0.84610399  -193.64560995    -0.02080830



 RESULTS
 =======

  Reference energy                   -192.799505958638
  MP3 singlet pair energy              -0.560643643578
  MP3 triplet pair energy              -0.285460349452
  MP3 correlation energy               -0.846103993030

 !MP3 total energy                   -193.645609951668

 Timing summary (sec):

 STEP                 CPU(USER)    SYS     CPU(TOT)    WALL
 Transformation          5.11      0.33      5.44      8.24
 CCSD iterations        67.86      0.62     68.48     41.15

 Program statistics:

 Available memory in ccsd:               393215306
 Min. memory needed in ccsd:              10107745
 Max. memory used in ccsd:                13644421
 Max. memory used in cckext:              10474438 ( 1 integral passes)



 **********************************************************************************************************************************
 DATASETS  * FILE   NREC   LENGTH (MB)   RECORD NAMES
              1      21     1368.96       500      610      700      900      950      970     1000      129      960     1100   
                                          VAR    BASINP    GEOM    SYMINP    ZMAT    AOBASIS   BASIS     P2S    ABASIS      S 
                                         1400     1410     1200     1210     1080     1600     1650     1300     1700     1380   
                                           T        V       H0       H01     AOSYM     SMH    MOLCAS    ERIS     OPER     JKOP   
                                         7000   
                                        PAPT AO    

              2       6        4.34       700     1000      520     2100     2101     7000   
                                         GEOM     BASIS   MCVARS     RHF      RHF     PAPT   

 PROGRAMS   *        TOTAL      PAPT    HF-SCF    HF-SCF       INT
 CPU TIMES  *        72.87     28.28      3.96     23.28     17.20
 REAL TIME  *       149.41 SEC
 DISK USED  *         5.31 GB
 **********************************************************************************************************************************


 PROGRAM * MP2 (Closed-shell)     Authors: C. Hampel, H.-J. Werner, 1991, M. Deegan, P.J. Knowles, 1992


 Convergence thresholds:  THRVAR = 1.00D-08  THRDEN = 1.00D-06

 Number of core orbitals:           5 (   5 )
 Number of closed-shell orbitals:  13 (  13 )
 Number of external orbitals:     216 ( 216 )

 Molecular orbitals read from record     7000.2  Type=PAPT/CANONICAL (state 1.1)

 Number of N-1 electron functions:              13
 Number of N-2 electron functions:              91
 Number of singly external CSFs:              2808
 Number of doubly external CSFs:           3943836
 Total number of CSFs:                     3946645

 Length of J-op  integral file:               0.00 MB
 Length of K-op  integral file:               3.82 MB

 Integral transformation finished. Total CPU:   4.40 sec, npass=  1  Memory used:   9.44 MW
 Orbital energies read from record       7000.2  Type=PAPT/CANONICAL (state 1.1)

 Memory needed for MP2:                      0.27 MW

 SCS-MP2 correlation energy:           -0.844504671347   (PS=  1.200000  PT=  0.333333)
 SCS-MP2 total energy:               -193.644010629986


  Reference energy                   -192.799505958639
  MP2 singlet pair energy              -0.542173323583
  MP2 triplet pair energy              -0.311619669185
  MP2 correlation energy               -0.853792992767

 !MP2 total energy                   -193.653298951406


 **********************************************************************************************************************************
 DATASETS  * FILE   NREC   LENGTH (MB)   RECORD NAMES
              1      21     1368.96       500      610      700      900      950      970     1000      129      960     1100   
                                          VAR    BASINP    GEOM    SYMINP    ZMAT    AOBASIS   BASIS     P2S    ABASIS      S 
                                         1400     1410     1200     1210     1080     1600     1650     1300     1700     1380   
                                           T        V       H0       H01     AOSYM     SMH    MOLCAS    ERIS     OPER     JKOP   
                                         7000   
                                        PAPT AO    

              2       6        4.34       700     1000      520     2100     2101     7000   
                                         GEOM     BASIS   MCVARS     RHF      RHF     PAPT   

 PROGRAMS   *        TOTAL       MP2      PAPT    HF-SCF    HF-SCF       INT
 CPU TIMES  *        79.58      6.70     28.28      3.96     23.28     17.20
 REAL TIME  *       162.34 SEC
 DISK USED  *         5.31 GB
 **********************************************************************************************************************************

 Dump information in style XML to xml output                                                                      

 Orbitals will not be exported.

 **********************************************************************************************************************************

 MP2/cc-pVTZ energy=   -193.653298951406

             MP2            PAPT          HF-SCF          HF-SCF
   -193.65329895   -193.64560995   -192.79950596   -192.79950596
 **********************************************************************************************************************************
 Molpro calculation terminated
