
 Working directory              : /var/folders/2v/xbgp75_9785319ghcgb4zr4r0000gp/T//molpro.AVWmnwJ5o4/
 Global scratch directory       : /var/folders/2v/xbgp75_9785319ghcgb4zr4r0000gp/T//molpro.AVWmnwJ5o4/
 Wavefunction directory         : /Users/sacpjk/wfu/
 Main file repository           : /var/folders/2v/xbgp75_9785319ghcgb4zr4r0000gp/T//molpro.AVWmnwJ5o4/

 id        : peterk

 Nodes                        nprocs
 Cardiff-University-G34YLXT77Y    1
 GA implementation: MPI file
 GA implementation (serial work in mppx): MPI file

 Using customized tuning parameters: mindgm=1; mindgv=20; mindgc=4; mindgr=1; noblas=0; minvec=7
 default implementation of scratch files=df  


 Variables initialized (1032), CPU time= 0.00 sec
 
 symmetry,nosym
 
 
 geometry={
            8
     N         -0.17184112     -0.55707404      0.30027257
     N          1.20115329     -0.58382423     -0.10374620
     N         -0.75671527      0.76298616      0.15935504
     H         -1.28142531      0.84592998     -0.71555242
     H         -1.41634923      0.87959036      0.92732319
     H          1.34067837      0.03520591     -0.91080201
     H          1.72995729     -0.17035158      0.66351983
     H         -0.64545801     -1.21246256     -0.32036999
 }
 basis=cc-pVTZ
 
 
 
 hf; mp3
 
 
 
 {put,xml;noorbitals,nobasis}
 Commands initialized (841), CPU time= 0.00 sec, 704 directives.
 Default parameters read. Elapsed time= 0.37 sec

 Checking input...
 Passed
1


                                         ***  PROGRAM SYSTEM MOLPRO  ***
                                       Copyright, TTI GmbH Stuttgart, 2015
                                    Version 2023.1 linked Tue Jun  6 09:54:11 2023


 **********************************************************************************************************************************
 LABEL *                                                                                                                                                                 
  64 bit serial version                                                                  DATE: 12-Jun-23          TIME: 23:55:20  
 **********************************************************************************************************************************

 SHA1:             8ebb0dd001088a5c915591db1a321413035db0b1
 **********************************************************************************************************************************

 Memory per process:       393 MW
 Total memory per node:    524 MW
 Total GA space:           131 MW

 GA preallocation disabled
 GA check enabled

 Variable memory set to 393.2 MW

 ZSYMEL=NOSYM


 Geometry recognized as XYZ

 SETTING BASIS          =    CC-PVTZ


 Recomputing integrals since basis changed


 Using spherical harmonics

 Library entry N      S cc-pVTZ              selected for orbital group  1
 Library entry N      P cc-pVTZ              selected for orbital group  1
 Library entry N      D cc-pVTZ              selected for orbital group  1
 Library entry N      F cc-pVTZ              selected for orbital group  1
 Library entry H      S cc-pVTZ              selected for orbital group  2
 Library entry H      P cc-pVTZ              selected for orbital group  2
 Library entry H      D cc-pVTZ              selected for orbital group  2


 PROGRAM * SEWARD (Integral evaluation for generally contracted gaussian basis sets)     Author: Roland Lindh, 1990

 Geometry written to block  1 of record 700


 Point group  C1  



 ATOMIC COORDINATES

 NR  ATOM    CHARGE       X              Y              Z

   1  N       7.00   -0.324732654   -1.052717367    0.567432920
   2  N       7.00    2.269850752   -1.103267900   -0.196051904
   3  N       7.00   -1.429984615    1.441834879    0.301137382
   4  H       1.00   -2.421542885    1.598575983   -1.352198102
   5  H       1.00   -2.676512142    1.662184882    1.752386858
   6  H       1.00    2.533514941    0.066529528   -1.721166353
   7  H       1.00    3.269145485   -0.321917831    1.253870757
   8  H       1.00   -1.219738864   -2.291222175   -0.605411540

 Bond lengths in Bohr (Angstrom)

 1-2  2.705055911  1-3  2.741402218  1-8  1.926264365  2-6  1.940082190  2-7  1.926492569
     ( 1.431453942)     ( 1.450687579)     ( 1.019335204)     ( 1.026647282)     ( 1.019455964)

 3-4  1.934237265  3-5  1.925749215
     ( 1.023554281)     ( 1.019062599)

 Bond angles

  1-2-6  109.93535004   1-2-7  106.11259225   1-3-4  111.31216286   1-3-5  106.97090458

  2-1-3  112.10425868   2-1-8  105.17647685   3-1-8  109.79103677   4-3-5  107.64156507

  6-2-7  106.05724365

 NUCLEAR CHARGE:                   26
 NUMBER OF PRIMITIVE AOS:         226
 NUMBER OF SYMMETRY AOS:          206
 NUMBER OF CONTRACTIONS:          160   (  160A   )
 NUMBER OF INNER CORE ORBITALS:     0   (    0A   )
 NUMBER OF OUTER CORE ORBITALS:     3   (    3A   )
 NUMBER OF VALENCE ORBITALS:       17   (   17A   )


 NUCLEAR REPULSION ENERGY   83.49322499


 Eigenvalues of metric

         1 0.953E-03 0.126E-02 0.201E-02 0.253E-02 0.275E-02 0.328E-02 0.374E-02 0.503E-02


 Contracted 2-electron integrals neglected if value below      1.0D-11
 AO integral compression algorithm  1   Integral accuracy      1.0D-11

     361.234 MB (compressed) written to integral file ( 48.7%)


 NUMBER OF SORTED TWO-ELECTRON INTEGRALS:   82953640.     BUFFER LENGTH:  32768
 NUMBER OF SEGMENTS:   6  SEGMENT LENGTH:   15999503      RECORD LENGTH: 524288

 Memory used in sort:      16.56 MW

 SORT1 READ    92747911. AND WROTE    80456391. INTEGRALS IN    233 RECORDS. CPU TIME:     0.63 SEC, REAL TIME:     0.93 SEC
 SORT2 READ    80456391. AND WROTE    82953640. INTEGRALS IN   1378 RECORDS. CPU TIME:     0.56 SEC, REAL TIME:     0.77 SEC

 FILE SIZES:   FILE 1:   392.3 MBYTE,  FILE 4:   977.3 MBYTE,   TOTAL:   1369.6 MBYTE

 OPERATOR DM      FOR CENTER  0  COORDINATES:    0.000000    0.000000    0.000000


 **********************************************************************************************************************************
 DATASETS  * FILE   NREC   LENGTH (MB)   RECORD NAMES
              1      19      341.10       500      610      700      900      950      970     1000      129      960     1100   
                                          VAR    BASINP    GEOM    SYMINP    ZMAT    AOBASIS   BASIS     P2S    ABASIS      S 
                                         1400     1410     1200     1210     1080     1600     1650     1300     1700   
                                           T        V       H0       H01     AOSYM     SMH    MOLCAS    ERIS     OPER   

 PROGRAMS   *        TOTAL       INT
 CPU TIMES  *         3.45      3.35
 REAL TIME  *         5.60 SEC
 DISK USED  *         1.28 GB
 **********************************************************************************************************************************


 Program * Restricted Hartree-Fock

 Orbital guess generated from atomic densities. Full valence occupancy:   20

 Initial occupancy:  13

 NELEC=   26   SYM=1   MS2= 0   THRE=1.0D-08   THRD=3.2D-06   THRG=3.2D-06  HFMA2=F  DIIS_START=2   DIIS_MAX=10   DIIS_INCORE=F

 Level shifts:    0.00 (CLOSED)    0.00 (OPEN)    0.30 (GAP_MIN)

 ITER           ETOT              DE          GRAD        DDIFF     DIIS  NEXP   TIME(IT)  TIME(TOT)  DIAG
   1     -166.20063629    -166.20063629     0.00D+00     0.60D-01     0     0       0.37      0.71    start
   2     -166.23644766      -0.03581138     0.45D-02     0.56D-02     1     0       0.36      1.07    diag
   3     -166.23960387      -0.00315620     0.14D-02     0.15D-02     2     0       0.38      1.45    diag
   4     -166.24014817      -0.00054430     0.51D-03     0.54D-03     3     0       0.40      1.85    diag
   5     -166.24019667      -0.00004851     0.13D-03     0.17D-03     4     0       0.37      2.22    diag
   6     -166.24020083      -0.00000415     0.31D-04     0.56D-04     5     0       0.39      2.61    diag
   7     -166.24020142      -0.00000060     0.12D-04     0.21D-04     6     0       0.36      2.97    diag
   8     -166.24020150      -0.00000008     0.38D-05     0.85D-05     7     0       0.37      3.34    fixocc
   9     -166.24020150      -0.00000000     0.10D-05     0.21D-05     8     0       0.36      3.70    diag
  10     -166.24020150      -0.00000000     0.19D-06     0.40D-06     0     0       0.38      4.08    diag/orth

 Final occupancy:  13

 !RHF STATE 1.1 Energy               -166.240201503983
  RHF One-electron energy            -391.535380428482
  RHF Two-electron energy             141.801953935279
  RHF Kinetic energy                  165.875562713934
  RHF Nuclear energy                   83.493224989220
  RHF Virial quotient                  -1.002198267087

 !RHF STATE 1.1 Dipole moment          -0.56734704     0.34374886    -0.43349743
 Dipole moment /Debye                  -1.44205235     0.87372246    -1.10184056

 Orbital energies:

           1.1          2.1          3.1          4.1          5.1          6.1          7.1          8.1          9.1         10.1
    -15.601651   -15.572466   -15.563951    -1.299754    -1.133479    -0.947887    -0.701803    -0.655757    -0.636056    -0.607713

          11.1         12.1         13.1         14.1         15.1
     -0.430335    -0.413424    -0.401458     0.136686     0.173377


 HOMO     13.1    -0.401458 =     -10.9242eV
 LUMO     14.1     0.136686 =       3.7194eV
 LUMO-HOMO         0.538144 =      14.6436eV

 Orbitals saved in record  2100.2


 **********************************************************************************************************************************
 DATASETS  * FILE   NREC   LENGTH (MB)   RECORD NAMES
              1      19      341.10       500      610      700      900      950      970     1000      129      960     1100   
                                          VAR    BASINP    GEOM    SYMINP    ZMAT    AOBASIS   BASIS     P2S    ABASIS      S 
                                         1400     1410     1200     1210     1080     1600     1650     1300     1700   
                                           T        V       H0       H01     AOSYM     SMH    MOLCAS    ERIS     OPER   

              2       4        0.91       700     1000      520     2100   
                                         GEOM     BASIS   MCVARS     RHF  

 PROGRAMS   *        TOTAL    HF-SCF       INT
 CPU TIMES  *         7.53      4.08      3.35
 REAL TIME  *        10.92 SEC
 DISK USED  *         1.28 GB
 **********************************************************************************************************************************


 PROGRAM * MP3 (Closed-shell)     Authors: C. Hampel, H.-J. Werner, 1991, M. Deegan, P.J. Knowles, 1992


 Convergence thresholds:  THRVAR = 1.00D-08  THRDEN = 1.00D-06

 Number of core orbitals:           3 (   3 )
 Number of closed-shell orbitals:  10 (  10 )
 Number of external orbitals:     147 ( 147 )

 Molecular orbitals read from record     2100.2  Type=RHF/CANONICAL  

 Number of N-1 electron functions:              10
 Number of N-2 electron functions:              55
 Number of singly external CSFs:              1470
 Number of doubly external CSFs:           1081185
 Total number of CSFs:                     1082656

 Length of J-op  integral file:               0.00 MB
 Length of K-op  integral file:               1.82 MB

 Integral transformation finished. Total CPU:   0.66 sec, npass=  1  Memory used:   2.91 MW

 Reference energy:                   -166.24020150

                        CORR.ENERGY   TOTAL ENERGY   ENERGY CHANGE
 MP2:                   -0.65007543  -166.89027693    -0.65007543

 SCS-MP2 correlation energy:           -0.64518866   (PS=  1.200000  PT=  0.333333)
 SCS-MP2 total energy:               -166.88539017

 MP3(D):                -0.66939179  -166.90959329    -0.01931636



 RESULTS
 =======

  Reference energy                   -166.240201503984
  MP3 singlet pair energy              -0.452947391475
  MP3 triplet pair energy              -0.216444399162
  MP3 correlation energy               -0.669391790637

 !MP3 total energy                   -166.909593294621

 Timing summary (sec):

 STEP                 CPU(USER)    SYS     CPU(TOT)    WALL
 Transformation          0.69      0.06      0.75      0.86
 CCSD iterations         9.23      0.07      9.30      1.85

 Program statistics:

 Available memory in ccsd:               393215587
 Min. memory needed in ccsd:               3016044
 Max. memory used in ccsd:                 3950009
 Max. memory used in cckext:               3046915 ( 1 integral passes)



 **********************************************************************************************************************************
 DATASETS  * FILE   NREC   LENGTH (MB)   RECORD NAMES
              1      20      357.64       500      610      700      900      950      970     1000      129      960     1100   
                                          VAR    BASINP    GEOM    SYMINP    ZMAT    AOBASIS   BASIS     P2S    ABASIS      S 
                                         1400     1410     1200     1210     1080     1600     1650     1300     1700     1380   
                                           T        V       H0       H01     AOSYM     SMH    MOLCAS    ERIS     OPER     JKOP   

              2       4        0.91       700     1000      520     2100   
                                         GEOM     BASIS   MCVARS     RHF  

 PROGRAMS   *        TOTAL       MP3    HF-SCF       INT
 CPU TIMES  *         9.82      2.29      4.08      3.35
 REAL TIME  *        13.75 SEC
 DISK USED  *         1.28 GB
 **********************************************************************************************************************************

 Dump information in style XML to xml output                                                                      

 Orbitals will not be exported.

 **********************************************************************************************************************************

 MP3/cc-pVTZ energy=   -166.909593294621

             MP3          HF-SCF
   -166.90959329   -166.24020150
 **********************************************************************************************************************************
 Molpro calculation terminated
