
 Working directory              : /var/folders/2v/xbgp75_9785319ghcgb4zr4r0000gp/T//molpro.w3WZ6FwYUv/
 Global scratch directory       : /var/folders/2v/xbgp75_9785319ghcgb4zr4r0000gp/T//molpro.w3WZ6FwYUv/
 Wavefunction directory         : /Users/sacpjk/wfu/
 Main file repository           : /var/folders/2v/xbgp75_9785319ghcgb4zr4r0000gp/T//molpro.w3WZ6FwYUv/

 id        : peterk

 Nodes                        nprocs
 Cardiff-University-G34YLXT77Y    1
 GA implementation: MPI file
 GA implementation (serial work in mppx): MPI file

 Using customized tuning parameters: mindgm=1; mindgv=20; mindgc=4; mindgr=1; noblas=0; minvec=7
 default implementation of scratch files=df  


 Variables initialized (1032), CPU time= 0.00 sec
 
 symmetry,nosym
 
 
 geometry={
            6
     F          1.82355879      0.00051927      0.00010874
     C          0.00014416     -0.00008973     -0.00018227
     H          0.00006416     -0.30488877      1.02506923
     H          0.00028716      1.04017819     -0.24893240
     H         -0.00009484     -0.73625925     -0.77617604
     F         -1.82395944      0.00054027      0.00011274
 }
 basis=cc-pVTZ
 
 charge=-1
 
 hf; hf; papt; mp3
 
 
 
 {put,xml;noorbitals,nobasis}
 Commands initialized (841), CPU time= 0.00 sec, 704 directives.
 Default parameters read. Elapsed time= 0.23 sec

 Checking input...
 Passed
1


                                         ***  PROGRAM SYSTEM MOLPRO  ***
                                       Copyright, TTI GmbH Stuttgart, 2015
                                    Version 2023.1 linked Tue Jun  6 09:54:11 2023


 **********************************************************************************************************************************
 LABEL *                                                                                                                                                                 
  64 bit serial version                                                                  DATE: 09-Jun-23          TIME: 15:37:13  
 **********************************************************************************************************************************

 SHA1:             8ebb0dd001088a5c915591db1a321413035db0b1
 **********************************************************************************************************************************

 Memory per process:       805 MW
 Total memory per node:   1074 MW
 Total GA space:           268 MW

 GA preallocation disabled
 GA check enabled

 Variable memory set to 805.3 MW

 ZSYMEL=NOSYM


 Geometry recognized as XYZ

 SETTING BASIS          =    CC-PVTZ
 SETTING CHARGE         =        -1.00000000                                  


 Recomputing integrals since basis changed


 Using spherical harmonics

 Library entry F      S cc-pVTZ              selected for orbital group  1
 Library entry F      P cc-pVTZ              selected for orbital group  1
 Library entry F      D cc-pVTZ              selected for orbital group  1
 Library entry F      F cc-pVTZ              selected for orbital group  1
 Library entry C      S cc-pVTZ              selected for orbital group  2
 Library entry C      P cc-pVTZ              selected for orbital group  2
 Library entry C      D cc-pVTZ              selected for orbital group  2
 Library entry C      F cc-pVTZ              selected for orbital group  2
 Library entry H      S cc-pVTZ              selected for orbital group  3
 Library entry H      P cc-pVTZ              selected for orbital group  3
 Library entry H      D cc-pVTZ              selected for orbital group  3


 PROGRAM * SEWARD (Integral evaluation for generally contracted gaussian basis sets)     Author: Roland Lindh, 1990

 Geometry written to block  1 of record 700


 Point group  C1  



 ATOMIC COORDINATES

 NR  ATOM    CHARGE       X              Y              Z

   1  F       9.00    3.446026685    0.000981278    0.000205489
   2  C       6.00    0.000272423   -0.000169565   -0.000344440
   3  H       1.00    0.000121245   -0.576156274    1.937100103
   4  H       1.00    0.000542654    1.965651900   -0.470414060
   5  H       1.00   -0.000179222   -1.391328339   -1.466760140
   6  F       9.00   -3.446783804    0.001020962    0.000213048

 Bond lengths in Bohr (Angstrom)

 1-2  3.445754498  2-3  2.021250126  2-4  2.021242082  2-5  2.021310947  2-6  3.447056478
     ( 1.823414755)     ( 1.069599504)     ( 1.069595247)     ( 1.069631689)     ( 1.824103733)

 Bond angles

  1-2-3   90.00097349   1-2-4   89.97585498   1-2-5   90.03260652   1-2-6  179.95694098

  3-2-4  120.00490672   3-2-5  119.95179677   3-2-6   89.99247148   4-2-5  120.04329562

  4-2-6   89.99056926   5-2-6   90.00753967

 NUCLEAR CHARGE:                   27
 NUMBER OF PRIMITIVE AOS:         192
 NUMBER OF SYMMETRY AOS:          174
 NUMBER OF CONTRACTIONS:          132   (  132A   )
 NUMBER OF INNER CORE ORBITALS:     0   (    0A   )
 NUMBER OF OUTER CORE ORBITALS:     3   (    3A   )
 NUMBER OF VALENCE ORBITALS:       15   (   15A   )


 NUCLEAR REPULSION ENERGY   66.36612659


 Eigenvalues of metric

         1 0.120E-02 0.182E-02 0.183E-02 0.245E-02 0.764E-02 0.858E-02 0.987E-02 0.988E-02


 Contracted 2-electron integrals neglected if value below      1.0D-11
 AO integral compression algorithm  1   Integral accuracy      1.0D-11

     145.228 MB (compressed) written to integral file ( 41.3%)


 NUMBER OF SORTED TWO-ELECTRON INTEGRALS:   38531031.     BUFFER LENGTH:  32768
 NUMBER OF SEGMENTS:   3  SEGMENT LENGTH:   15998004      RECORD LENGTH: 524288

 Memory used in sort:      16.56 MW

 SORT1 READ    43978959. AND WROTE    33100263. INTEGRALS IN     96 RECORDS. CPU TIME:     0.30 SEC, REAL TIME:     0.39 SEC
 SORT2 READ    33100263. AND WROTE    38531031. INTEGRALS IN    554 RECORDS. CPU TIME:     0.33 SEC, REAL TIME:     0.42 SEC

 FILE SIZES:   FILE 1:   176.0 MBYTE,  FILE 4:   402.7 MBYTE,   TOTAL:    578.7 MBYTE

 OPERATOR DM      FOR CENTER  0  COORDINATES:    0.000000    0.000000    0.000000


 **********************************************************************************************************************************
 DATASETS  * FILE   NREC   LENGTH (MB)   RECORD NAMES
              1      19      148.92       500      610      700      900      950      970     1000      129      960     1100   
                                          VAR    BASINP    GEOM    SYMINP    ZMAT    AOBASIS   BASIS     P2S    ABASIS      S 
                                         1400     1410     1200     1210     1080     1600     1650     1300     1700   
                                           T        V       H0       H01     AOSYM     SMH    MOLCAS    ERIS     OPER   

 PROGRAMS   *        TOTAL       INT
 CPU TIMES  *         1.74      1.64
 REAL TIME  *         3.92 SEC
 DISK USED  *       552.30 MB
 **********************************************************************************************************************************


 Program * Restricted Hartree-Fock

 Orbital guess generated from atomic densities. Full valence occupancy:   18

 Initial occupancy:  14

 NELEC=   28   SYM=1   MS2= 0   THRE=1.0D-08   THRD=3.2D-06   THRG=3.2D-06  HFMA2=F  DIIS_START=2   DIIS_MAX=10   DIIS_INCORE=F

 Level shifts:    0.00 (CLOSED)    0.00 (OPEN)    0.30 (GAP_MIN)

 ITER           ETOT              DE          GRAD        DDIFF     DIIS  NEXP   TIME(IT)  TIME(TOT)  DIAG
   1     -238.41948214    -238.41948214     0.00D+00     0.78D-01     0     0       0.18      0.35    start
   2     -238.47507795      -0.05559581     0.92D-02     0.12D-01     1     0       0.18      0.53    diag
   3     -238.51602639      -0.04094844     0.69D-02     0.46D-02     2     0       0.19      0.72    diag
   4     -238.51655487      -0.00052848     0.39D-03     0.74D-03     3     0       0.18      0.90    diag
   5     -238.51659458      -0.00003971     0.11D-03     0.17D-03     4     0       0.18      1.08    diag
   6     -238.51659987      -0.00000529     0.41D-04     0.77D-04     5     0       0.18      1.26    diag
   7     -238.51660042      -0.00000055     0.11D-04     0.25D-04     6     0       0.18      1.44    diag
   8     -238.51660044      -0.00000002     0.21D-05     0.56D-05     7     0       0.17      1.61    fixocc
   9     -238.51660044      -0.00000000     0.39D-06     0.11D-05     8     0       0.19      1.80    diag
  10     -238.51660044      -0.00000000     0.90D-07     0.15D-06     0     0       0.18      1.98    diag/orth

 Final occupancy:  14

 !RHF STATE 1.1 Energy               -238.516600437603
  RHF One-electron energy            -472.581363177641
  RHF Two-electron energy             167.698636145933
  RHF Kinetic energy                  238.593235138022
  RHF Nuclear energy                   66.366126594105
  RHF Virial quotient                  -0.999678806063

 !RHF STATE 1.1 Dipole moment           0.00211933    -0.00149511    -0.00033234
 Dipole moment /Debye                   0.00538680    -0.00380020    -0.00084473

 Orbital energies:

           1.1          2.1          3.1          4.1          5.1          6.1          7.1          8.1          9.1         10.1
    -25.916939   -25.916711   -11.109276    -1.195444    -1.190508    -0.728990    -0.426803    -0.426649    -0.339004    -0.292629

          11.1         12.1         13.1         14.1         15.1         16.1
     -0.292624    -0.264944    -0.264923    -0.226596     0.327185     0.388694


 HOMO     14.1    -0.226596 =      -6.1660eV
 LUMO     15.1     0.327185 =       8.9032eV
 LUMO-HOMO         0.553781 =      15.0691eV

 Orbitals saved in record  2100.2


 **********************************************************************************************************************************
 DATASETS  * FILE   NREC   LENGTH (MB)   RECORD NAMES
              1      19      148.92       500      610      700      900      950      970     1000      129      960     1100   
                                          VAR    BASINP    GEOM    SYMINP    ZMAT    AOBASIS   BASIS     P2S    ABASIS      S 
                                         1400     1410     1200     1210     1080     1600     1650     1300     1700   
                                           T        V       H0       H01     AOSYM     SMH    MOLCAS    ERIS     OPER   

              2       4        0.75       700     1000      520     2100   
                                         GEOM     BASIS   MCVARS     RHF  

 PROGRAMS   *        TOTAL    HF-SCF       INT
 CPU TIMES  *         3.72      1.98      1.64
 REAL TIME  *         6.53 SEC
 DISK USED  *       552.30 MB
 **********************************************************************************************************************************


 Program * Restricted Hartree-Fock

 Molecular orbitals read from record     2100.2  Type=RHF/CANONICAL  

 Initial occupancy:  14

 NELEC=   28   SYM=1   MS2= 0   THRE=1.0D-08   THRD=3.2D-06   THRG=3.2D-06  HFMA2=F  DIIS_START=2   DIIS_MAX=10   DIIS_INCORE=F

 Level shifts:    0.00 (CLOSED)    0.00 (OPEN)    0.30 (GAP_MIN)

 ITER           ETOT              DE          GRAD        DDIFF     DIIS  NEXP   TIME(IT)  TIME(TOT)  DIAG
   1     -238.51660044    -238.51660044     0.00D+00     0.77D-01     0     0       0.17      0.17    start
   2     -238.51660044      -0.00000000     0.55D-07     0.77D-07     1     0       0.19      0.36    diag

 Final occupancy:  14

 !RHF STATE 1.1 Energy               -238.516600437606
  RHF One-electron energy            -472.581371049753
  RHF Two-electron energy             167.698644018042
  RHF Kinetic energy                  238.593243967048
  RHF Nuclear energy                   66.366126594105
  RHF Virial quotient                  -0.999678769071

 !RHF STATE 1.1 Dipole moment           0.00212304    -0.00149511    -0.00033234
 Dipole moment /Debye                   0.00539622    -0.00380020    -0.00084473

 Orbital energies:

           1.1          2.1          3.1          4.1          5.1          6.1          7.1          8.1          9.1         10.1
    -25.916936   -25.916716   -11.109276    -1.195445    -1.190508    -0.728990    -0.426803    -0.426649    -0.339005    -0.292629

          11.1         12.1         13.1         14.1         15.1         16.1
     -0.292624    -0.264945    -0.264923    -0.226596     0.327185     0.388694


 HOMO     14.1    -0.226596 =      -6.1660eV
 LUMO     15.1     0.327185 =       8.9032eV
 LUMO-HOMO         0.553781 =      15.0691eV

 Orbitals saved in record  2101.2


 **********************************************************************************************************************************
 DATASETS  * FILE   NREC   LENGTH (MB)   RECORD NAMES
              1      19      148.92       500      610      700      900      950      970     1000      129      960     1100   
                                          VAR    BASINP    GEOM    SYMINP    ZMAT    AOBASIS   BASIS     P2S    ABASIS      S 
                                         1400     1410     1200     1210     1080     1600     1650     1300     1700   
                                           T        V       H0       H01     AOSYM     SMH    MOLCAS    ERIS     OPER   

              2       5        1.31       700     1000      520     2100     2101   
                                         GEOM     BASIS   MCVARS     RHF      RHF  

 PROGRAMS   *        TOTAL    HF-SCF    HF-SCF       INT
 CPU TIMES  *         4.09      0.37      1.98      1.64
 REAL TIME  *         7.14 SEC
 DISK USED  *       552.30 MB
 **********************************************************************************************************************************


 PROGRAM * PAPT (Closed-shell)     Authors: C. Hampel, H.-J. Werner, 1991, P.J. Knowles, 2021


 Convergence thresholds:  THRVAR = 1.00D-08  THRDEN = 1.00D-06

 Number of core orbitals:           3 (   3 )
 Number of closed-shell orbitals:  11 (  11 )
 Number of external orbitals:     118 ( 118 )

 Molecular orbitals read from record     2101.2  Type=RHF/CANONICAL  

 Number of N-1 electron functions:              11
 Number of N-2 electron functions:              66
 Number of singly external CSFs:              1298
 Number of doubly external CSFs:            843051
 Total number of CSFs:                      844350

 Length of J-op  integral file:               0.00 MB
 Length of K-op  integral file:               1.26 MB

 Integral transformation finished. Total CPU:   0.33 sec, npass=  1  Memory used:   2.30 MW

 Reference energy:                   -238.51660044

                        CORR.ENERGY   TOTAL ENERGY   ENERGY CHANGE
 MP2:                   -0.71893016  -239.23553059    -0.71893016

 SCS-MP2 correlation energy:           -0.70844872   (PS=  1.200000  PT=  0.333333)
 SCS-MP2 total energy:               -239.22504916
 Iteration:   1     0.2558D+00
 Iteration:   2     0.2591D+00
 Iteration:   3     0.1285D+00
 Iteration:   4     0.7601D-01
 Iteration:   5     0.3522D+00
 Iteration:   6     0.4429D-01
 Iteration:   7     0.4015D-01
 Iteration:   8     0.4004D-01
 Iteration:   9     0.1489D-01
 Iteration:  10     0.3603D-01
 Iteration:  11     0.4055D-02
 Iteration:  12     0.6786D-02
 Iteration:  13     0.2608D-02
 Iteration:  14     0.1033D-02
 Iteration:  15     0.5031D-02
 Iteration:  16     0.3539D-03
 Iteration:  17     0.9706D-03
 Iteration:  18     0.9204D-04
 PAPT operator written to  7000.1
 PAPT orbitals and eigenvalues written to  7000.2

 MP3(D):                -0.72078894  -239.23738938    -0.00185879



 RESULTS
 =======

  Reference energy                   -238.516600437606
  MP3 singlet pair energy              -0.479083229784
  MP3 triplet pair energy              -0.241705712473
  MP3 correlation energy               -0.720788942256

 !MP3 total energy                   -239.237389379862

 Timing summary (sec):

 STEP                 CPU(USER)    SYS     CPU(TOT)    WALL
 Transformation          0.34      0.02      0.36      0.84
 CCSD iterations         6.85      0.14      6.99      3.35

 Program statistics:

 Available memory in ccsd:               805305870
 Min. memory needed in ccsd:               2323550
 Max. memory used in ccsd:                 3052168
 Max. memory used in cckext:               2473006 ( 1 integral passes)



 **********************************************************************************************************************************
 DATASETS  * FILE   NREC   LENGTH (MB)   RECORD NAMES
              1      21      162.45       500      610      700      900      950      970     1000      129      960     1100   
                                          VAR    BASINP    GEOM    SYMINP    ZMAT    AOBASIS   BASIS     P2S    ABASIS      S 
                                         1400     1410     1200     1210     1080     1600     1650     1300     1700     1380   
                                           T        V       H0       H01     AOSYM     SMH    MOLCAS    ERIS     OPER     JKOP   
                                         7000   
                                        PAPT AO    

              2       6        1.81       700     1000      520     2100     2101     7000   
                                         GEOM     BASIS   MCVARS     RHF      RHF     PAPT   

 PROGRAMS   *        TOTAL      PAPT    HF-SCF    HF-SCF       INT
 CPU TIMES  *         7.11      3.02      0.37      1.98      1.64
 REAL TIME  *        11.47 SEC
 DISK USED  *       552.30 MB
 **********************************************************************************************************************************


 PROGRAM * MP3 (Closed-shell)     Authors: C. Hampel, H.-J. Werner, 1991, M. Deegan, P.J. Knowles, 1992


 Convergence thresholds:  THRVAR = 1.00D-08  THRDEN = 1.00D-06

 Number of core orbitals:           3 (   3 )
 Number of closed-shell orbitals:  11 (  11 )
 Number of external orbitals:     118 ( 118 )

 Molecular orbitals read from record     7000.2  Type=PAPT/CANONICAL (state 1.1)

 Number of N-1 electron functions:              11
 Number of N-2 electron functions:              66
 Number of singly external CSFs:              1298
 Number of doubly external CSFs:            843051
 Total number of CSFs:                      844350

 Length of J-op  integral file:               0.00 MB
 Length of K-op  integral file:               1.26 MB

 Integral transformation finished. Total CPU:   0.33 sec, npass=  1  Memory used:   2.30 MW
 Orbital energies read from record       7000.2  Type=PAPT/CANONICAL (state 1.1)

 Reference energy:                   -238.51660044

                        CORR.ENERGY   TOTAL ENERGY   ENERGY CHANGE
 MP2:                   -0.72772112  -239.24432156    -0.72772112

 SCS-MP2 correlation energy:           -0.72022319   (PS=  1.200000  PT=  0.333333)
 SCS-MP2 total energy:               -239.23682363

 MP3(D):                -0.72786153  -239.24446197    -0.00014041



 RESULTS
 =======

  Reference energy                   -238.516600437606
  MP3 singlet pair energy              -0.483527595226
  MP3 triplet pair energy              -0.244333936859
  MP3 correlation energy               -0.727861532085

 !MP3 total energy                   -239.244461969691

 Timing summary (sec):

 STEP                 CPU(USER)    SYS     CPU(TOT)    WALL
 Transformation          0.54      0.05      0.59      0.75
 CCSD iterations         8.05      0.03      8.08      1.04

 Program statistics:

 Available memory in ccsd:               805305870
 Min. memory needed in ccsd:               2323550
 Max. memory used in ccsd:                 3052168
 Max. memory used in cckext:               2473006 ( 1 integral passes)



 **********************************************************************************************************************************
 DATASETS  * FILE   NREC   LENGTH (MB)   RECORD NAMES
              1      21      162.45       500      610      700      900      950      970     1000      129      960     1100   
                                          VAR    BASINP    GEOM    SYMINP    ZMAT    AOBASIS   BASIS     P2S    ABASIS      S 
                                         1400     1410     1200     1210     1080     1600     1650     1300     1700     1380   
                                           T        V       H0       H01     AOSYM     SMH    MOLCAS    ERIS     OPER     JKOP   
                                         7000   
                                        PAPT AO    

              2       6        1.81       700     1000      520     2100     2101     7000   
                                         GEOM     BASIS   MCVARS     RHF      RHF     PAPT   

 PROGRAMS   *        TOTAL       MP3      PAPT    HF-SCF    HF-SCF       INT
 CPU TIMES  *         8.51      1.40      3.02      0.37      1.98      1.64
 REAL TIME  *        13.42 SEC
 DISK USED  *       552.30 MB
 **********************************************************************************************************************************

 Dump information in style XML to xml output                                                                      

 Orbitals will not be exported.

 **********************************************************************************************************************************

 MP3/cc-pVTZ energy=   -239.244461969691

             MP3            PAPT          HF-SCF          HF-SCF
   -239.24446197   -239.23738938   -238.51660044   -238.51660044
 **********************************************************************************************************************************
 Molpro calculation terminated
