
 Working directory              : /var/folders/2v/xbgp75_9785319ghcgb4zr4r0000gp/T//molpro.YnbMMHsx9W/
 Global scratch directory       : /var/folders/2v/xbgp75_9785319ghcgb4zr4r0000gp/T//molpro.YnbMMHsx9W/
 Wavefunction directory         : /Users/sacpjk/wfu/
 Main file repository           : /var/folders/2v/xbgp75_9785319ghcgb4zr4r0000gp/T//molpro.YnbMMHsx9W/

 id        : peterk

 Nodes                        nprocs
 Cardiff-University-G34YLXT77Y    1
 GA implementation: MPI file
 GA implementation (serial work in mppx): MPI file

 Using customized tuning parameters: mindgm=1; mindgv=20; mindgc=4; mindgr=1; noblas=0; minvec=7
 default implementation of scratch files=df  


 Variables initialized (1032), CPU time= 0.00 sec
 
 core,small
 angstrom
 
 geometry={
 O1;C,O1,1.16039505;O2,C,1.16039505,O1,180
 }
 basis=cc-pCVDZ
 
 
 
 hf; hf; papt; mp4
 
 
 
 {put,xml;noorbitals,nobasis}
 Commands initialized (841), CPU time= 0.01 sec, 704 directives.
 Default parameters read. Elapsed time= 0.30 sec

 Checking input...
 Passed
1


                                         ***  PROGRAM SYSTEM MOLPRO  ***
                                       Copyright, TTI GmbH Stuttgart, 2015
                                    Version 2023.1 linked Tue Jun  6 09:54:11 2023


 **********************************************************************************************************************************
 LABEL *                                                                                                                                                                 
  64 bit serial version                                                                  DATE: 12-Jun-23          TIME: 09:40:25  
 **********************************************************************************************************************************

 SHA1:             8ebb0dd001088a5c915591db1a321413035db0b1
 **********************************************************************************************************************************

 Memory per process:       393 MW
 Total memory per node:    524 MW
 Total GA space:           131 MW

 GA preallocation disabled
 GA check enabled

 Variable memory set to 393.2 MW

 ZUNIT=ANG

 SETTING BASIS          =    CC-PCVDZ


 Recomputing integrals since basis changed


 Using spherical harmonics

 Library entry O      S cc-pCVDZ             selected for orbital group  1
 Library entry O      P cc-pCVDZ             selected for orbital group  1
 Library entry O      D cc-pCVDZ             selected for orbital group  1
 Library entry C      S cc-pCVDZ             selected for orbital group  2
 Library entry C      P cc-pCVDZ             selected for orbital group  2
 Library entry C      D cc-pCVDZ             selected for orbital group  2


 PROGRAM * SEWARD (Integral evaluation for generally contracted gaussian basis sets)     Author: Roland Lindh, 1990

 Geometry written to block  1 of record 700

 Orientation using atomic masses  
 Molecule type: Linear
 Symmetry elements: X,Y,Z
 Rotational constants:      11.7292910     11.7292910      0.0000000 GHz  (calculated with average atomic masses)

 Point group  D2h 



 ATOMIC COORDINATES

 NR  ATOM    CHARGE       X              Y              Z

   1  O1      8.00    0.000000000    0.000000000   -2.192828841
   2  O2      8.00    0.000000000    0.000000000    2.192828841
   3  C       6.00    0.000000000    0.000000000    0.000000000

 Bond lengths in Bohr (Angstrom)

 1-3  2.192828841  2-3  2.192828841
     ( 1.160395050)     ( 1.160395050)

 Bond angles

  1-3-2  179.99999879

 NUCLEAR CHARGE:                   22
 NUMBER OF PRIMITIVE AOS:          93
 NUMBER OF SYMMETRY AOS:           90
 NUMBER OF CONTRACTIONS:           54   (   15Ag  +    7B3u +    7B2u +    2B1g +   12B1u +    5B2g +    5B3g +    1Au  )
 NUMBER OF INNER CORE ORBITALS:     0   (    0Ag  +    0B3u +    0B2u +    0B1g +    0B1u +    0B2g +    0B3g +    0Au  )
 NUMBER OF OUTER CORE ORBITALS:     3   (    2Ag  +    0B3u +    0B2u +    0B1g +    1B1u +    0B2g +    0B3g +    0Au  )
 NUMBER OF VALENCE ORBITALS:       12   (    3Ag  +    2B3u +    2B2u +    0B1g +    3B1u +    1B2g +    1B3g +    0Au  )


 NUCLEAR REPULSION ENERGY   58.37208888

 EXTRA SYMMETRY OF AOS IN SYMMETRY 1:   1 1 1 1 1 1 1 1 2 1   1 1 1 1 2
 EXTRA SYMMETRY OF AOS IN SYMMETRY 5:   1 1 1 1 1 1 1 1 2 1   1 1

 Eigenvalues of metric

         1 0.129E-01 0.248E-01 0.462E-01 0.732E-01 0.862E-01 0.137E+00 0.819E+00 0.922E+00
         2 0.103E+00 0.176E+00 0.582E+00 0.994E+00 0.101E+01 0.112E+01 0.310E+01
         3 0.103E+00 0.176E+00 0.582E+00 0.994E+00 0.101E+01 0.112E+01 0.310E+01
         4 0.819E+00 0.118E+01
         5 0.970E-02 0.635E-01 0.722E-01 0.148E+00 0.189E+00 0.956E+00 0.986E+00 0.100E+01
         6 0.169E+00 0.281E+00 0.990E+00 0.121E+01 0.226E+01
         7 0.169E+00 0.281E+00 0.990E+00 0.121E+01 0.226E+01
         8 0.100E+01


 Contracted 2-electron integrals neglected if value below      1.0D-11
 AO integral compression algorithm  1   Integral accuracy      1.0D-11

     1.311 MB (compressed) written to integral file ( 59.1%)


 NUMBER OF SORTED TWO-ELECTRON INTEGRALS:     162537.     BUFFER LENGTH:  32768
 NUMBER OF SEGMENTS:   1  SEGMENT LENGTH:     162537      RECORD LENGTH: 524288

 Memory used in sort:       0.72 MW

 SORT1 READ      254445. AND WROTE      144762. INTEGRALS IN      1 RECORDS. CPU TIME:     0.01 SEC, REAL TIME:     0.01 SEC
 SORT2 READ      144762. AND WROTE      162537. INTEGRALS IN      5 RECORDS. CPU TIME:     0.02 SEC, REAL TIME:     0.03 SEC

 FILE SIZES:   FILE 1:    31.4 MBYTE,  FILE 4:     4.3 MBYTE,   TOTAL:     35.6 MBYTE

 OPERATOR DM      FOR CENTER  0  COORDINATES:    0.000000    0.000000    0.000000


 **********************************************************************************************************************************
 DATASETS  * FILE   NREC   LENGTH (MB)   RECORD NAMES
              1      19       29.39       500      610      700      900      950      970     1000      129      960     1100   
                                          VAR    BASINP    GEOM    SYMINP    ZMAT    AOBASIS   BASIS     P2S    ABASIS      S 
                                         1400     1410     1200     1210     1080     1600     1650     1300     1700   
                                           T        V       H0       H01     AOSYM     SMH    MOLCAS    ERIS     OPER   

 PROGRAMS   *        TOTAL       INT
 CPU TIMES  *         0.22      0.13
 REAL TIME  *         1.94 SEC
 DISK USED  *        34.33 MB
 **********************************************************************************************************************************


 Program * Restricted Hartree-Fock

 Orbital guess generated from atomic densities. Full valence occupancy:    5   2   2   0   4   1   1   0


 Initial occupancy:   4   1   1   0   3   1   1   0

 NELEC=   22   SYM=1   MS2= 0   THRE=1.0D-08   THRD=3.2D-06   THRG=3.2D-06  HFMA2=F  DIIS_START=2   DIIS_MAX=10   DIIS_INCORE=F

 Level shifts:    0.00 (CLOSED)    0.00 (OPEN)    0.30 (GAP_MIN)

 ITER           ETOT              DE          GRAD        DDIFF     DIIS  NEXP   TIME(IT)  TIME(TOT)  DIAG
   1     -187.58152839    -187.58152839     0.00D+00     0.36D+00     0     0       0.00      0.00    start
   2     -187.62043111      -0.03890272     0.33D-01     0.79D-01     1     0       0.00      0.00    diag
   3     -187.65187430      -0.03144319     0.22D-01     0.30D-01     2     0       0.00      0.00    diag
   4     -187.65214242      -0.00026812     0.19D-02     0.33D-02     3     0       0.00      0.00    diag
   5     -187.65217161      -0.00002919     0.54D-03     0.16D-02     4     0       0.00      0.00    diag
   6     -187.65217317      -0.00000156     0.11D-03     0.35D-03     5     0       0.00      0.00    diag
   7     -187.65217322      -0.00000005     0.16D-04     0.42D-04     6     0       0.00      0.00    diag
   8     -187.65217322      -0.00000000     0.25D-05     0.68D-05     7     0       0.00      0.00    fixocc
   9     -187.65217322      -0.00000000     0.30D-06     0.82D-06     8     0       0.01      0.01    diag
  10     -187.65217322      -0.00000000     0.21D-07     0.44D-07     0     0       0.00      0.01    diag/orth

 Final occupancy:   4   1   1   0   3   1   1   0

 !RHF STATE 1.1 Energy               -187.652173217712
  RHF One-electron energy            -372.455639054117
  RHF Two-electron energy             126.431376955482
  RHF Kinetic energy                  187.389730003175
  RHF Nuclear energy                   58.372088880924
  RHF Virial quotient                  -1.001400520800

 !RHF STATE 1.1 Dipole moment           0.00000000     0.00000000     0.00000000
 Dipole moment /Debye                   0.00000000     0.00000000     0.00000000

 Orbital energies:

           1.1          2.1          3.1          4.1          5.1          6.1
    -20.650681   -11.466726    -1.529557    -0.795081     0.249457     0.748969

           1.2          2.2          3.2
     -0.708726     0.217003     0.600182

           1.3          2.3          3.3
     -0.708726     0.217003     0.600182

           1.4          2.4
      1.255131     3.013645

           1.5          2.5          3.5          4.5          5.5
    -20.650717    -1.475851    -0.737202     0.485630     0.983114

           1.6          2.6          3.6
     -0.536588     1.121435     1.578673

           1.7          2.7          3.7
     -0.536588     1.121435     1.578673

           1.8
      2.872046


 HOMO      1.7    -0.536588 =     -14.6013eV
 LUMO      2.2     0.217003 =       5.9050eV
 LUMO-HOMO         0.753591 =      20.5063eV

 Orbitals saved in record  2100.2


 **********************************************************************************************************************************
 DATASETS  * FILE   NREC   LENGTH (MB)   RECORD NAMES
              1      19       29.39       500      610      700      900      950      970     1000      129      960     1100   
                                          VAR    BASINP    GEOM    SYMINP    ZMAT    AOBASIS   BASIS     P2S    ABASIS      S 
                                         1400     1410     1200     1210     1080     1600     1650     1300     1700   
                                           T        V       H0       H01     AOSYM     SMH    MOLCAS    ERIS     OPER   

              2       4        0.40       700     1000      520     2100   
                                         GEOM     BASIS   MCVARS     RHF  

 PROGRAMS   *        TOTAL    HF-SCF       INT
 CPU TIMES  *         0.23      0.01      0.13
 REAL TIME  *         2.54 SEC
 DISK USED  *        34.33 MB
 **********************************************************************************************************************************


 Program * Restricted Hartree-Fock

 Molecular orbitals read from record     2100.2  Type=RHF/CANONICAL  

 Initial occupancy:   4   1   1   0   3   1   1   0

 NELEC=   22   SYM=1   MS2= 0   THRE=1.0D-08   THRD=3.2D-06   THRG=3.2D-06  HFMA2=F  DIIS_START=2   DIIS_MAX=10   DIIS_INCORE=F

 Level shifts:    0.00 (CLOSED)    0.00 (OPEN)    0.30 (GAP_MIN)

 ITER           ETOT              DE          GRAD        DDIFF     DIIS  NEXP   TIME(IT)  TIME(TOT)  DIAG
   1     -187.65217322    -187.65217322     0.00D+00     0.37D+00     0     0       0.00      0.00    start
   2     -187.65217322       0.00000000     0.56D-08     0.12D-07     1     0       0.00      0.00    diag

 Final occupancy:   4   1   1   0   3   1   1   0

 !RHF STATE 1.1 Energy               -187.652173217712
  RHF One-electron energy            -372.455638985195
  RHF Two-electron energy             126.431376886560
  RHF Kinetic energy                  187.389729965394
  RHF Nuclear energy                   58.372088880924
  RHF Virial quotient                  -1.001400521002

 !RHF STATE 1.1 Dipole moment           0.00000000     0.00000000     0.00000000
 Dipole moment /Debye                   0.00000000     0.00000000     0.00000000

 Orbital energies:

           1.1          2.1          3.1          4.1          5.1          6.1
    -20.650681   -11.466726    -1.529557    -0.795081     0.249457     0.748969

           1.2          2.2          3.2
     -0.708726     0.217003     0.600182

           1.3          2.3          3.3
     -0.708726     0.217003     0.600182

           1.4          2.4
      1.255131     3.013645

           1.5          2.5          3.5          4.5          5.5
    -20.650717    -1.475851    -0.737202     0.485630     0.983114

           1.6          2.6          3.6
     -0.536588     1.121435     1.578674

           1.7          2.7          3.7
     -0.536588     1.121435     1.578674

           1.8
      2.872046


 HOMO      1.7    -0.536588 =     -14.6013eV
 LUMO      2.2     0.217003 =       5.9050eV
 LUMO-HOMO         0.753591 =      20.5063eV

 Orbitals saved in record  2101.2


 **********************************************************************************************************************************
 DATASETS  * FILE   NREC   LENGTH (MB)   RECORD NAMES
              1      19       29.39       500      610      700      900      950      970     1000      129      960     1100   
                                          VAR    BASINP    GEOM    SYMINP    ZMAT    AOBASIS   BASIS     P2S    ABASIS      S 
                                         1400     1410     1200     1210     1080     1600     1650     1300     1700   
                                           T        V       H0       H01     AOSYM     SMH    MOLCAS    ERIS     OPER   

              2       5        0.51       700     1000      520     2100     2101   
                                         GEOM     BASIS   MCVARS     RHF      RHF  

 PROGRAMS   *        TOTAL    HF-SCF    HF-SCF       INT
 CPU TIMES  *         0.24      0.01      0.01      0.13
 REAL TIME  *         3.24 SEC
 DISK USED  *        34.33 MB
 **********************************************************************************************************************************


 PROGRAM * PAPT (Closed-shell)     Authors: C. Hampel, H.-J. Werner, 1991, P.J. Knowles, 2021


 CORETYPE=SMALL

 Convergence thresholds:  THRVAR = 1.00D-08  THRDEN = 1.00D-06

 Number of closed-shell orbitals:  11 (   4   1   1   0   3   1   1   0 )
 Number of external orbitals:      43 (  11   6   6   2   9   4   4   1 )

 Molecular orbitals read from record     2101.2  Type=RHF/CANONICAL  

 Number of N-1 electron functions:              11
 Number of N-2 electron functions:              66
 Number of singly external CSFs:                91
 Number of doubly external CSFs:             15998
 Total number of CSFs:                       16090

 Length of J-op  integral file:               0.00 MB
 Length of K-op  integral file:               0.10 MB

 Integral transformation finished. Total CPU:   0.01 sec, npass=  1  Memory used:   0.09 MW

 Reference energy:                   -187.65217322

                        CORR.ENERGY   TOTAL ENERGY   ENERGY CHANGE
 MP2:                   -0.59722932  -188.24940254    -0.59722932

 SCS-MP2 correlation energy:           -0.59018901   (PS=  1.200000  PT=  0.333333)
 SCS-MP2 total energy:               -188.24236223
 Iteration:   1     0.5747D+00
 Iteration:   2     0.4292D+01
 Iteration:   3     0.7873D+00
 Iteration:   4     0.3079D+00
 Iteration:   5     0.1933D+00
 Iteration:   6     0.3706D-01
 Iteration:   7     0.2120D+00
 Iteration:   8     0.1197D-01
 Iteration:   9     0.2261D-01
 Iteration:  10     0.9153D-02
 Iteration:  11     0.2246D-02
 Iteration:  12     0.6653D-02
 Iteration:  13     0.6005D-03
 Iteration:  14     0.4703D-03
 Iteration:  15     0.6280D-03
 Iteration:  16     0.1761D-03
 Iteration:  17     0.2366D-03
 Iteration:  18     0.5245D-04
 PAPT operator written to  7000.1
 PAPT orbitals and eigenvalues written to  7000.2

 MP3(D):                -0.58690136  -188.23907458     0.01032796



 RESULTS
 =======

  Reference energy                   -187.652173217712

  Correlated core orbitals:             1.1       2.1       1.5
  Orbital energies:                   -20.6507  -11.4667  -20.6507

  MP3 core-core energy                 -0.092480335671
  MP3 core-valence energy              -0.021140106373
  MP3 valence correlation energy       -0.473280921009

  MP3 singlet pair energy              -0.396482218556
  MP3 triplet pair energy              -0.190419144497
  MP3 correlation energy               -0.586901363053

 !MP3 total energy                   -188.239074580765

 Timing summary (sec):

 STEP                 CPU(USER)    SYS     CPU(TOT)    WALL
 Transformation          0.01      0.00      0.01      0.12
 CCSD iterations         0.38      0.03      0.41      0.96

 Program statistics:

 Available memory in ccsd:               393215512
 Min. memory needed in ccsd:                 53401
 Max. memory used in ccsd:                   65924
 Max. memory used in cckext:                 96701 ( 1 integral passes)



 **********************************************************************************************************************************
 DATASETS  * FILE   NREC   LENGTH (MB)   RECORD NAMES
              1      21       29.73       500      610      700      900      950      970     1000      129      960     1100   
                                          VAR    BASINP    GEOM    SYMINP    ZMAT    AOBASIS   BASIS     P2S    ABASIS      S 
                                         1400     1410     1200     1210     1080     1600     1650     1300     1700     1380   
                                           T        V       H0       H01     AOSYM     SMH    MOLCAS    ERIS     OPER     JKOP   
                                         7000   
                                        PAPT AO    

              2       6        0.62       700     1000      520     2100     2101     7000   
                                         GEOM     BASIS   MCVARS     RHF      RHF     PAPT   

 PROGRAMS   *        TOTAL      PAPT    HF-SCF    HF-SCF       INT
 CPU TIMES  *         0.31      0.07      0.01      0.01      0.13
 REAL TIME  *         4.54 SEC
 DISK USED  *        34.33 MB
 **********************************************************************************************************************************


 PROGRAM * MP4 (Closed-shell)     Authors: C. Hampel, H.-J. Werner, 1991, M. Deegan, P.J. Knowles, 1992


 CORETYPE=SMALL

 Convergence thresholds:  THRVAR = 1.00D-08  THRDEN = 1.00D-06

 MP4(T)     terms to be evaluated (factor= 0.000)


 Number of closed-shell orbitals:  11 (   4   1   1   0   3   1   1   0 )
 Number of external orbitals:      43 (  11   6   6   2   9   4   4   1 )

 Molecular orbitals read from record     7000.2  Type=PAPT/CANONICAL (state 1.1)

 Number of N-1 electron functions:              11
 Number of N-2 electron functions:              66
 Number of singly external CSFs:                91
 Number of doubly external CSFs:             15998
 Total number of CSFs:                       16090

 Length of J-op  integral file:               0.00 MB
 Length of K-op  integral file:               0.10 MB

 Memory could be reduced to 0.24 Mwords without degradation in triples

 Integral transformation finished. Total CPU:   0.00 sec, npass=  1  Memory used:   0.14 MW
 Orbital energies read from record       7000.2  Type=PAPT/CANONICAL (state 1.1)

 Reference energy:                   -187.65217322

                        CORR.ENERGY   TOTAL ENERGY   ENERGY CHANGE
 MP2:                   -0.59100760  -188.24318082    -0.59100760

 SCS-MP2 correlation energy:           -0.58652734   (PS=  1.200000  PT=  0.333333)
 SCS-MP2 total energy:               -188.23870056

 MP3(D):                -0.59125525  -188.24342847    -0.00024765
 MP4(DQ):               -0.59030566  -188.24247888     0.00094959
 MP4(SDQ):              -0.59780062  -188.24997384    -0.00749496

 Norm of t1 vector:      0.07923911      S-energy:    -0.00749496      T1 diagnostic:  0.01194575

 Largest off-diagonal element in interal  block of Fock matrix:  0.18D+00
 Largest off-diagonal element in external block of Fock matrix:  0.27D+00


 Total CPU time for triples:      0.06 sec


 RESULTS
 =======

  Reference energy                   -187.652173217712

  Correlated core orbitals:             1.1       2.1       1.5
  Orbital energies:                   -19.2832  -10.6541  -19.2805

  MP4(SDQ) core-core energy            -0.093207787340
  MP4(SDQ) core-valence energy         -0.020833531236
  MP4(SDQ) valence correlation ener    -0.483759304147

  MP4(SDQ) singlet pair energy         -0.395537808829
  MP4(SDQ) triplet pair energy         -0.194767854954
  MP4(SDQ) correlation energy          -0.597800622723

  Triples contribution                 -0.019473467269
  Total correlation energy             -0.617274089992

  MP4(SDQ) total energy              -188.249973840435
 !MP4(SDTQ) total energy             -188.269447307704

 Timing summary (sec):

 STEP                 CPU(USER)    SYS     CPU(TOT)    WALL
 CCSD iterations         0.46      0.01      0.47      0.20
 Triples                 0.06      0.00      0.06      0.07

 Program statistics:

 Available memory in ccsd:               393215512
 Min. memory needed in ccsd:                 53401
 Max. memory used in ccsd:                   65924
 Max. memory used in cckext:                 96701 ( 1 integral passes)



 **********************************************************************************************************************************
 DATASETS  * FILE   NREC   LENGTH (MB)   RECORD NAMES
              1      22       30.20       500      610      700      900      950      970     1000      129      960     1100   
                                          VAR    BASINP    GEOM    SYMINP    ZMAT    AOBASIS   BASIS     P2S    ABASIS      S 
                                         1400     1410     1200     1210     1080     1600     1650     1300     1700     1380   
                                           T        V       H0       H01     AOSYM     SMH    MOLCAS    ERIS     OPER     JKOP   
                                         7000     1380(1)
                                        PAPT AO   JKOP   

              2       6        0.62       700     1000      520     2100     2101     7000   
                                         GEOM     BASIS   MCVARS     RHF      RHF     PAPT   

 PROGRAMS   *        TOTAL       MP4      PAPT    HF-SCF    HF-SCF       INT
 CPU TIMES  *         0.43      0.12      0.07      0.01      0.01      0.13
 REAL TIME  *         5.31 SEC
 DISK USED  *        34.33 MB
 **********************************************************************************************************************************

 Dump information in style XML to xml output                                                                      

 Orbitals will not be exported.

 **********************************************************************************************************************************

 MP4/cc-pCVDZ energy=   -188.269447307704

             MP4            PAPT          HF-SCF          HF-SCF
   -188.26944731   -188.23907458   -187.65217322   -187.65217322
 **********************************************************************************************************************************
 Molpro calculation terminated
