
 Working directory              : /var/folders/2v/xbgp75_9785319ghcgb4zr4r0000gp/T//molpro.rK21vMf9cc/
 Global scratch directory       : /var/folders/2v/xbgp75_9785319ghcgb4zr4r0000gp/T//molpro.rK21vMf9cc/
 Wavefunction directory         : /Users/sacpjk/wfu/
 Main file repository           : /var/folders/2v/xbgp75_9785319ghcgb4zr4r0000gp/T//molpro.rK21vMf9cc/

 id        : peterk

 Nodes                        nprocs
 Cardiff-University-G34YLXT77Y    1
 GA implementation: MPI file
 GA implementation (serial work in mppx): MPI file

 Using customized tuning parameters: mindgm=1; mindgv=20; mindgc=4; mindgr=1; noblas=0; minvec=7
 default implementation of scratch files=df  


 Variables initialized (1032), CPU time= 0.00 sec
 
 symmetry,nosym
 
 
 geometry={
           10
     P         -0.29583691     -1.58651577      0.00000000
     C         -0.08286083     -0.32282431      1.28601846
     C         -0.08286083     -0.32282431     -1.28601846
     C         -0.08286083      0.90939312      0.72894826
     C         -0.08286083      0.90939312     -0.72894826
     H          0.99164355     -2.19229798      0.00000000
     H         -0.09867284     -0.52734039      2.34781184
     H         -0.09867284     -0.52734039     -2.34781184
     H         -0.08350883      1.83017845      1.30240546
     H         -0.08350883      1.83017845     -1.30240546
 }
 basis=cc-pVDZ
 
 
 
 hf; ccsd
 
 
 
 {put,xml;noorbitals,nobasis}
 Commands initialized (841), CPU time= 0.00 sec, 704 directives.
 Default parameters read. Elapsed time= 0.06 sec

 Checking input...
 Passed
1


                                         ***  PROGRAM SYSTEM MOLPRO  ***
                                       Copyright, TTI GmbH Stuttgart, 2015
                                    Version 2023.1 linked Tue Jun  6 09:54:11 2023


 **********************************************************************************************************************************
 LABEL *                                                                                                                                                                 
  64 bit serial version                                                                  DATE: 11-Jun-23          TIME: 07:17:27  
 **********************************************************************************************************************************

 SHA1:             8ebb0dd001088a5c915591db1a321413035db0b1
 **********************************************************************************************************************************

 Memory per process:       393 MW
 Total memory per node:    524 MW
 Total GA space:           131 MW

 GA preallocation disabled
 GA check enabled

 Variable memory set to 393.2 MW

 ZSYMEL=NOSYM


 Geometry recognized as XYZ

 SETTING BASIS          =    CC-PVDZ


 Recomputing integrals since basis changed


 Using spherical harmonics

 Library entry P      S cc-pVDZ              selected for orbital group  1
 Library entry P      P cc-pVDZ              selected for orbital group  1
 Library entry P      D cc-pVDZ              selected for orbital group  1
 Library entry C      S cc-pVDZ              selected for orbital group  2
 Library entry C      P cc-pVDZ              selected for orbital group  2
 Library entry C      D cc-pVDZ              selected for orbital group  2
 Library entry H      S cc-pVDZ              selected for orbital group  3
 Library entry H      P cc-pVDZ              selected for orbital group  3


 PROGRAM * SEWARD (Integral evaluation for generally contracted gaussian basis sets)     Author: Roland Lindh, 1990

 Geometry written to block  1 of record 700


 Point group  C1  



 ATOMIC COORDINATES

 NR  ATOM    CHARGE       X              Y              Z

   1  P      15.00   -0.559050737   -2.998080298    0.000000000
   2  C       6.00   -0.156584275   -0.610049532    2.430222681
   3  C       6.00   -0.156584275   -0.610049532   -2.430222681
   4  C       6.00   -0.156584275    1.718503936    1.377512570
   5  C       6.00   -0.156584275    1.718503936   -1.377512570
   6  H       1.00    1.873934723   -4.142842766    0.000000000
   7  H       1.00   -0.186464644   -0.996528912    4.436721370
   8  H       1.00   -0.186464644   -0.996528912   -4.436721370
   9  H       1.00   -0.157808818    3.458536030    2.461189623
  10  H       1.00   -0.157808818    3.458536030   -2.461189623

 Bond lengths in Bohr (Angstrom)

 1-2  3.430838450  1-3  3.430838450  1-6  2.688847217  2-4  2.555456874  2-7  2.043598820
     ( 1.815521522)     ( 1.815521522)     ( 1.422876671)     ( 1.352289541)     ( 1.081425924)

  3- 5  2.555456874   3- 8  2.043598820   4- 5  2.755025141   4- 9  2.049894909   5-10  2.049894909
       ( 1.352289541)       ( 1.081425924)       ( 1.457896520)       ( 1.084757671)       ( 1.084757671)

 Bond angles

  1-2-4  110.02589884   1-2-7  124.20372387   1-3-5  110.02589884   1-3-8  124.20372387

  2-1-3   90.20109447   2-1-6  100.96406309   2-4-5  114.32713511   2-4-9  123.75856205

  3- 1- 6  100.96406309   3- 5- 4  114.32713511   3- 5-10  123.75856205   4- 2- 7  125.22525031

  4- 5-10  121.91428964   5- 3- 8  125.22525031   5- 4- 9  121.91428964

 NUCLEAR CHARGE:                   44
 NUMBER OF PRIMITIVE AOS:         185
 NUMBER OF SYMMETRY AOS:          180
 NUMBER OF CONTRACTIONS:           99   (   99A   )
 NUMBER OF INNER CORE ORBITALS:     1   (    1A   )
 NUMBER OF OUTER CORE ORBITALS:     8   (    8A   )
 NUMBER OF VALENCE ORBITALS:       25   (   25A   )


 NUCLEAR REPULSION ENERGY  201.74589258


 Eigenvalues of metric

         1 0.111E-02 0.247E-02 0.436E-02 0.464E-02 0.142E-01 0.168E-01 0.174E-01 0.200E-01


 Contracted 2-electron integrals neglected if value below      1.0D-11
 AO integral compression algorithm  1   Integral accuracy      1.0D-11

     51.905 MB (compressed) written to integral file ( 47.3%)


 NUMBER OF SORTED TWO-ELECTRON INTEGRALS:   12253725.     BUFFER LENGTH:  32768
 NUMBER OF SEGMENTS:   1  SEGMENT LENGTH:   12253725      RECORD LENGTH: 524288

 Memory used in sort:      12.81 MW

 SORT1 READ    13692407. AND WROTE    11317595. INTEGRALS IN     33 RECORDS. CPU TIME:     0.10 SEC, REAL TIME:     0.14 SEC
 SORT2 READ    11317595. AND WROTE    12253725. INTEGRALS IN    198 RECORDS. CPU TIME:     0.14 SEC, REAL TIME:     0.23 SEC

 FILE SIZES:   FILE 1:    82.4 MBYTE,  FILE 4:   138.5 MBYTE,   TOTAL:    220.9 MBYTE

 OPERATOR DM      FOR CENTER  0  COORDINATES:    0.000000    0.000000    0.000000


 **********************************************************************************************************************************
 DATASETS  * FILE   NREC   LENGTH (MB)   RECORD NAMES
              1      19       73.22       500      610      700      900      950      970     1000      129      960     1100   
                                          VAR    BASINP    GEOM    SYMINP    ZMAT    AOBASIS   BASIS     P2S    ABASIS      S 
                                         1400     1410     1200     1210     1080     1600     1650     1300     1700   
                                           T        V       H0       H01     AOSYM     SMH    MOLCAS    ERIS     OPER   

 PROGRAMS   *        TOTAL       INT
 CPU TIMES  *         1.04      0.95
 REAL TIME  *         1.53 SEC
 DISK USED  *       211.16 MB
 **********************************************************************************************************************************


 Program * Restricted Hartree-Fock

 Orbital guess generated from atomic densities. Full valence occupancy:   34

 Initial occupancy:  22

 NELEC=   44   SYM=1   MS2= 0   THRE=1.0D-08   THRD=3.2D-06   THRG=3.2D-06  HFMA2=F  DIIS_START=2   DIIS_MAX=10   DIIS_INCORE=F

 Level shifts:    0.00 (CLOSED)    0.00 (OPEN)    0.30 (GAP_MIN)

 ITER           ETOT              DE          GRAD        DDIFF     DIIS  NEXP   TIME(IT)  TIME(TOT)  DIAG
   1     -495.01705180    -495.01705180     0.00D+00     0.12D+00     0     0       0.07      0.12    start
   2     -495.07343319      -0.05638139     0.46D-02     0.12D-01     1     0       0.06      0.18    diag
   3     -495.08626635      -0.01283316     0.24D-02     0.49D-02     2     0       0.07      0.25    diag
   4     -495.08874884      -0.00248249     0.71D-03     0.21D-02     3     0       0.06      0.31    diag
   5     -495.08900036      -0.00025152     0.24D-03     0.55D-03     4     0       0.05      0.36    diag
   6     -495.08908368      -0.00008332     0.97D-04     0.36D-03     5     0       0.07      0.43    diag
   7     -495.08909193      -0.00000826     0.32D-04     0.12D-03     6     0       0.06      0.49    diag
   8     -495.08909255      -0.00000061     0.91D-05     0.33D-04     7     0       0.05      0.54    fixocc
   9     -495.08909260      -0.00000005     0.26D-05     0.96D-05     8     0       0.06      0.60    diag
  10     -495.08909260      -0.00000000     0.75D-06     0.28D-05     9     0       0.06      0.66    diag/orth
  11     -495.08909260      -0.00000000     0.20D-06     0.51D-06     0     0       0.06      0.72    diag

 Final occupancy:  22

 !RHF STATE 1.1 Energy               -495.089092603864
  RHF One-electron energy           -1079.764062892822
  RHF Two-electron energy             382.929077709034
  RHF Kinetic energy                  494.929291951848
  RHF Nuclear energy                  201.745892579924
  RHF Virial quotient                  -1.000322875721

 !RHF STATE 1.1 Dipole moment           0.21757100     0.32040665     0.00000000
 Dipole moment /Debye                   0.55301033     0.81439247     0.00000000

 Orbital energies:

           1.1          2.1          3.1          4.1          5.1          6.1          7.1          8.1          9.1         10.1
    -79.947450   -11.248219   -11.247408   -11.240091   -11.240083    -7.489902    -5.384152    -5.383803    -5.382391    -1.129071

          11.1         12.1         13.1         14.1         15.1         16.1         17.1         18.1         19.1         20.1
     -0.977343    -0.899786    -0.744113    -0.721938    -0.682334    -0.571989    -0.546299    -0.518602    -0.476157    -0.451102

          21.1         22.1         23.1         24.1
     -0.347522    -0.323191     0.096757     0.183255


 HOMO     22.1    -0.323191 =      -8.7945eV
 LUMO     23.1     0.096757 =       2.6329eV
 LUMO-HOMO         0.419948 =      11.4274eV

 Orbitals saved in record  2100.2


 **********************************************************************************************************************************
 DATASETS  * FILE   NREC   LENGTH (MB)   RECORD NAMES
              1      19       73.22       500      610      700      900      950      970     1000      129      960     1100   
                                          VAR    BASINP    GEOM    SYMINP    ZMAT    AOBASIS   BASIS     P2S    ABASIS      S 
                                         1400     1410     1200     1210     1080     1600     1650     1300     1700   
                                           T        V       H0       H01     AOSYM     SMH    MOLCAS    ERIS     OPER   

              2       4        0.69       700     1000      520     2100   
                                         GEOM     BASIS   MCVARS     RHF  

 PROGRAMS   *        TOTAL    HF-SCF       INT
 CPU TIMES  *         1.77      0.74      0.95
 REAL TIME  *         2.53 SEC
 DISK USED  *       211.16 MB
 **********************************************************************************************************************************


 PROGRAM * CCSD (Closed-shell coupled cluster)     Authors: C. Hampel, H.-J. Werner, 1991, M. Deegan, P.J. Knowles, 1992


 Convergence thresholds:  THRVAR = 1.00D-08  THRDEN = 1.00D-06

 Number of core orbitals:           9 (   9 )
 Number of closed-shell orbitals:  13 (  13 )
 Number of external orbitals:      77 (  77 )

 Molecular orbitals read from record     2100.2  Type=RHF/CANONICAL  

 Number of N-1 electron functions:              13
 Number of N-2 electron functions:              91
 Number of singly external CSFs:              1001
 Number of doubly external CSFs:            501501
 Total number of CSFs:                      502503

 Length of J-op  integral file:               0.00 MB
 Length of K-op  integral file:               0.74 MB
 Length of 3-ext integral record:             0.00 MB

 Integral transformation finished. Total CPU:   0.38 sec, npass=  1  Memory used:   8.56 MW

 Reference energy:                   -495.08909260

 MP2 singlet pair energy:              -0.39989489
 MP2 triplet pair energy:              -0.24372331
 MP2 correlation energy:               -0.64361821
 MP2 total energy:                   -495.73271081

 SCS-MP2 correlation energy:           -0.63152393   (PS=  1.200000  PT=  0.333333)
 SCS-MP2 total energy:               -495.72061654

 ITER.      SQ.NORM     CORR.ENERGY   TOTAL ENERGY   ENERGY CHANGE        DEN1      VAR(S)    VAR(P)  DIIS     TIME  TIME/IT
   1      1.28002161    -0.68268821  -495.77178082    -0.03907001    -0.01848260  0.39D-02  0.54D-02  1  1     3.15     1.11
   2      1.30653301    -0.68758742  -495.77668002    -0.00489921    -0.02055089  0.91D-04  0.81D-03  2  2     4.10     1.14
   3      1.31597444    -0.68780227  -495.77689487    -0.00021485    -0.00389837  0.57D-04  0.72D-04  3  3     5.05     1.19
   4      1.32015631    -0.68790091  -495.77699352    -0.00009864    -0.00108124  0.42D-05  0.10D-04  4  4     6.03     1.27
   5      1.32147947    -0.68791547  -495.77700807    -0.00001455    -0.00022725  0.15D-05  0.10D-05  5  5     6.95     1.31
   6      1.32183225    -0.68790334  -495.77699594     0.00001213    -0.00004160  0.22D-06  0.14D-06  6  6     7.97     1.35
   7      1.32190879    -0.68790272  -495.77699533     0.00000062     0.00000015  0.63D-07  0.24D-07  6  2     8.94     1.39
   8      1.32194287    -0.68790172  -495.77699432     0.00000100    -0.00000131  0.14D-07  0.42D-08  6  1     9.90     1.43
   9      1.32195848    -0.68790113  -495.77699374     0.00000058    -0.00000155  0.14D-08  0.11D-08  6  3    10.96     1.51
  10      1.32195797    -0.68790117  -495.77699377    -0.00000003     0.00000159  0.33D-09  0.89D-10  6  5    11.91     1.55

 Norm of t1 vector:      0.09699125      S-energy:    -0.00000034      T1 diagnostic:  0.01345027
                                                                       D1 diagnostic:  0.04000706
                                                                       D2 diagnostic:  0.20099622 (internal)

 Doubles amplitudes (print threshold =  0.500E-01):

         I         J         SYM. A    SYM. B    A         B      T(IJ, AB)

        13        13         1         1         1         1     -0.08581613


 RESULTS
 =======

  Reference energy                   -495.089092603864
  CCSD singlet pair energy             -0.467902880487
  CCSD triplet pair energy             -0.219997949342
  CCSD correlation energy              -0.687901167502

 !CCSD total energy                  -495.776993771366

 Timing summary (sec):

 STEP                 CPU(USER)    SYS     CPU(TOT)    WALL
 Transformation          0.40      0.04      0.44      0.58
 CCSD iterations        11.54      0.47     12.01     15.53

 Program statistics:

 Available memory in ccsd:               393215302
 Min. memory needed in ccsd:               1417560
 Max. memory used in ccsd:                 1830687
 Max. memory used in cckext:               1909049 (10 integral passes)



 **********************************************************************************************************************************
 DATASETS  * FILE   NREC   LENGTH (MB)   RECORD NAMES
              1      20      106.55       500      610      700      900      950      970     1000      129      960     1100   
                                          VAR    BASINP    GEOM    SYMINP    ZMAT    AOBASIS   BASIS     P2S    ABASIS      S 
                                         1400     1410     1200     1210     1080     1600     1650     1300     1700     1380   
                                           T        V       H0       H01     AOSYM     SMH    MOLCAS    ERIS     OPER     JKOP   

              2       4        0.69       700     1000      520     2100   
                                         GEOM     BASIS   MCVARS     RHF  

 PROGRAMS   *        TOTAL      CCSD    HF-SCF       INT
 CPU TIMES  *        11.86     10.09      0.74      0.95
 REAL TIME  *        18.74 SEC
 DISK USED  *       211.16 MB
 **********************************************************************************************************************************

 Dump information in style XML to xml output                                                                      

 Orbitals will not be exported.

 **********************************************************************************************************************************

 CCSD/cc-pVDZ energy=   -495.776993771366

            CCSD          HF-SCF
   -495.77699377   -495.08909260
 **********************************************************************************************************************************
 Molpro calculation terminated
