
 Working directory              : /var/folders/2v/xbgp75_9785319ghcgb4zr4r0000gp/T//molpro.cWhCzIWMVf/
 Global scratch directory       : /var/folders/2v/xbgp75_9785319ghcgb4zr4r0000gp/T//molpro.cWhCzIWMVf/
 Wavefunction directory         : /Users/sacpjk/wfu/
 Main file repository           : /var/folders/2v/xbgp75_9785319ghcgb4zr4r0000gp/T//molpro.cWhCzIWMVf/

 id        : peterk

 Nodes                        nprocs
 Cardiff-University-G34YLXT77Y    1
 GA implementation: MPI file
 GA implementation (serial work in mppx): MPI file

 Using customized tuning parameters: mindgm=1; mindgv=20; mindgc=4; mindgr=1; noblas=0; minvec=7
 default implementation of scratch files=df  


 Variables initialized (1032), CPU time= 0.01 sec
 
 symmetry,nosym
 
 
 geometry={
            6
     C         -0.13926933      0.33472048      0.00000000
     O         -0.13926933     -1.08341104      0.00000000
     H         -1.17980283      0.64759124      0.00000000
     H          0.76774408     -1.38539133      0.00000000
     H          0.34529870      0.74324532      0.88954166
     H          0.34529870      0.74324532     -0.88954166
 }
 basis=cc-pVDZ
 
 
 
 hf; hf; papt; mp3
 
 
 
 {put,xml;noorbitals,nobasis}
 Commands initialized (841), CPU time= 0.00 sec, 704 directives.
 Default parameters read. Elapsed time= 0.78 sec

 Checking input...
 Passed
1


                                         ***  PROGRAM SYSTEM MOLPRO  ***
                                       Copyright, TTI GmbH Stuttgart, 2015
                                    Version 2023.1 linked Tue Jun  6 09:54:11 2023


 **********************************************************************************************************************************
 LABEL *                                                                                                                                                                 
  64 bit serial version                                                                  DATE: 09-Jun-23          TIME: 15:36:51  
 **********************************************************************************************************************************

 SHA1:             8ebb0dd001088a5c915591db1a321413035db0b1
 **********************************************************************************************************************************

 Memory per process:       805 MW
 Total memory per node:   1074 MW
 Total GA space:           268 MW

 GA preallocation disabled
 GA check enabled

 Variable memory set to 805.3 MW

 ZSYMEL=NOSYM


 Geometry recognized as XYZ

 SETTING BASIS          =    CC-PVDZ


 Recomputing integrals since basis changed


 Using spherical harmonics

 Library entry C      S cc-pVDZ              selected for orbital group  1
 Library entry C      P cc-pVDZ              selected for orbital group  1
 Library entry C      D cc-pVDZ              selected for orbital group  1
 Library entry O      S cc-pVDZ              selected for orbital group  2
 Library entry O      P cc-pVDZ              selected for orbital group  2
 Library entry O      D cc-pVDZ              selected for orbital group  2
 Library entry H      S cc-pVDZ              selected for orbital group  3
 Library entry H      P cc-pVDZ              selected for orbital group  3


 PROGRAM * SEWARD (Integral evaluation for generally contracted gaussian basis sets)     Author: Roland Lindh, 1990

 Geometry written to block  1 of record 700


 Point group  C1  



 ATOMIC COORDINATES

 NR  ATOM    CHARGE       X              Y              Z

   1  C       6.00   -0.263180891    0.632530036    0.000000000
   2  O       8.00   -0.263180891   -2.047350146    0.000000000
   3  H       1.00   -2.229504230    1.223770084    0.000000000
   4  H       1.00    1.450826045   -2.618010189    0.000000000
   5  H       1.00    0.652519974    1.404530098    1.680990114
   6  H       1.00    0.652519974    1.404530098   -1.680990114

 Bond lengths in Bohr (Angstrom)

 1-2  2.679880181  1-3  2.053288160  1-5  2.064030023  1-6  2.064030023  2-4  1.806508417
     ( 1.418131520)     ( 1.086553302)     ( 1.092237651)     ( 1.092237651)     ( 0.955963086)

 Bond angles

  1-2-4  108.41462081   2-1-3  106.73514063   2-1-5  111.96410162   2-1-6  111.96410162

  3-1-5  108.49107784   3-1-6  108.49107784   5-1-6  109.06037247

 NUCLEAR CHARGE:                   18
 NUMBER OF PRIMITIVE AOS:          82
 NUMBER OF SYMMETRY AOS:           80
 NUMBER OF CONTRACTIONS:           48   (   48A   )
 NUMBER OF INNER CORE ORBITALS:     0   (    0A   )
 NUMBER OF OUTER CORE ORBITALS:     2   (    2A   )
 NUMBER OF VALENCE ORBITALS:       12   (   12A   )


 NUCLEAR REPULSION ENERGY   40.39336013


 Eigenvalues of metric

         1 0.961E-02 0.177E-01 0.365E-01 0.371E-01 0.377E-01 0.471E-01 0.473E-01 0.514E-01


 Contracted 2-electron integrals neglected if value below      1.0D-11
 AO integral compression algorithm  1   Integral accuracy      1.0D-11

     3.146 MB (compressed) written to integral file ( 49.9%)


 NUMBER OF SORTED TWO-ELECTRON INTEGRALS:     692076.     BUFFER LENGTH:  32768
 NUMBER OF SEGMENTS:   1  SEGMENT LENGTH:     692076      RECORD LENGTH: 524288

 Memory used in sort:       1.25 MW

 SORT1 READ      832256. AND WROTE      537734. INTEGRALS IN      2 RECORDS. CPU TIME:     0.01 SEC, REAL TIME:     0.01 SEC
 SORT2 READ      537734. AND WROTE      692076. INTEGRALS IN     12 RECORDS. CPU TIME:     0.02 SEC, REAL TIME:     0.03 SEC

 FILE SIZES:   FILE 1:    33.3 MBYTE,  FILE 4:     8.5 MBYTE,   TOTAL:     41.8 MBYTE

 OPERATOR DM      FOR CENTER  0  COORDINATES:    0.000000    0.000000    0.000000


 **********************************************************************************************************************************
 DATASETS  * FILE   NREC   LENGTH (MB)   RECORD NAMES
              1      19       31.25       500      610      700      900      950      970     1000      129      960     1100   
                                          VAR    BASINP    GEOM    SYMINP    ZMAT    AOBASIS   BASIS     P2S    ABASIS      S 
                                         1400     1410     1200     1210     1080     1600     1650     1300     1700   
                                           T        V       H0       H01     AOSYM     SMH    MOLCAS    ERIS     OPER   

 PROGRAMS   *        TOTAL       INT
 CPU TIMES  *         0.24      0.15
 REAL TIME  *         1.68 SEC
 DISK USED  *        40.22 MB
 **********************************************************************************************************************************


 Program * Restricted Hartree-Fock

 Orbital guess generated from atomic densities. Full valence occupancy:   14

 Initial occupancy:   9

 NELEC=   18   SYM=1   MS2= 0   THRE=1.0D-08   THRD=3.2D-06   THRG=3.2D-06  HFMA2=F  DIIS_START=2   DIIS_MAX=10   DIIS_INCORE=F

 Level shifts:    0.00 (CLOSED)    0.00 (OPEN)    0.30 (GAP_MIN)

 ITER           ETOT              DE          GRAD        DDIFF     DIIS  NEXP   TIME(IT)  TIME(TOT)  DIAG
   1     -115.01456587    -115.01456587     0.00D+00     0.16D+00     0     0       0.00      0.00    start
   2     -115.04287198      -0.02830611     0.10D-01     0.20D-01     1     0       0.01      0.01    diag
   3     -115.04884081      -0.00596883     0.48D-02     0.64D-02     2     0       0.00      0.01    diag
   4     -115.04929959      -0.00045878     0.10D-02     0.20D-02     3     0       0.00      0.01    diag
   5     -115.04931991      -0.00002032     0.18D-03     0.43D-03     4     0       0.01      0.02    diag
   6     -115.04932067      -0.00000076     0.32D-04     0.92D-04     5     0       0.00      0.02    diag
   7     -115.04932070      -0.00000003     0.67D-05     0.15D-04     6     0       0.01      0.03    diag
   8     -115.04932070      -0.00000000     0.22D-05     0.51D-05     7     0       0.00      0.03    fixocc
   9     -115.04932070      -0.00000000     0.44D-06     0.14D-05     8     0       0.00      0.03    diag
  10     -115.04932070      -0.00000000     0.73D-07     0.17D-06     0     0       0.01      0.04    diag/orth

 Final occupancy:   9

 !RHF STATE 1.1 Energy               -115.049320701467
  RHF One-electron energy            -237.049135984027
  RHF Two-electron energy              81.606455148883
  RHF Kinetic energy                  114.964903884805
  RHF Nuclear energy                   40.393360133677
  RHF Virial quotient                  -1.000734283367

 !RHF STATE 1.1 Dipole moment           0.57065072     0.41535466    -0.00000000
 Dipole moment /Debye                   1.45044945     1.05572624    -0.00000000

 Orbital energies:

           1.1          2.1          3.1          4.1          5.1          6.1          7.1          8.1          9.1         10.1
    -20.548346   -11.273665    -1.350496    -0.922375    -0.683713    -0.614760    -0.586043    -0.496140    -0.442576     0.185137

          11.1
      0.224957


 HOMO      9.1    -0.442576 =     -12.0431eV
 LUMO     10.1     0.185137 =       5.0378eV
 LUMO-HOMO         0.627714 =      17.0810eV

 Orbitals saved in record  2100.2


 **********************************************************************************************************************************
 DATASETS  * FILE   NREC   LENGTH (MB)   RECORD NAMES
              1      19       31.25       500      610      700      900      950      970     1000      129      960     1100   
                                          VAR    BASINP    GEOM    SYMINP    ZMAT    AOBASIS   BASIS     P2S    ABASIS      S 
                                         1400     1410     1200     1210     1080     1600     1650     1300     1700   
                                           T        V       H0       H01     AOSYM     SMH    MOLCAS    ERIS     OPER   

              2       4        0.50       700     1000      520     2100   
                                         GEOM     BASIS   MCVARS     RHF  

 PROGRAMS   *        TOTAL    HF-SCF       INT
 CPU TIMES  *         0.28      0.04      0.15
 REAL TIME  *         2.07 SEC
 DISK USED  *        40.22 MB
 **********************************************************************************************************************************


 Program * Restricted Hartree-Fock

 Molecular orbitals read from record     2100.2  Type=RHF/CANONICAL  

 Initial occupancy:   9

 NELEC=   18   SYM=1   MS2= 0   THRE=1.0D-08   THRD=3.2D-06   THRG=3.2D-06  HFMA2=F  DIIS_START=2   DIIS_MAX=10   DIIS_INCORE=F

 Level shifts:    0.00 (CLOSED)    0.00 (OPEN)    0.30 (GAP_MIN)

 ITER           ETOT              DE          GRAD        DDIFF     DIIS  NEXP   TIME(IT)  TIME(TOT)  DIAG
   1     -115.04932070    -115.04932070     0.00D+00     0.17D+00     0     0       0.01      0.01    start
   2     -115.04932070      -0.00000000     0.30D-07     0.70D-07     1     0       0.00      0.01    diag

 Final occupancy:   9

 !RHF STATE 1.1 Energy               -115.049320701468
  RHF One-electron energy            -237.049135752848
  RHF Two-electron energy              81.606454917703
  RHF Kinetic energy                  114.964903789231
  RHF Nuclear energy                   40.393360133677
  RHF Virial quotient                  -1.000734284199

 !RHF STATE 1.1 Dipole moment           0.57065089     0.41535553    -0.00000000
 Dipole moment /Debye                   1.45044990     1.05572846    -0.00000000

 Orbital energies:

           1.1          2.1          3.1          4.1          5.1          6.1          7.1          8.1          9.1         10.1
    -20.548346   -11.273665    -1.350496    -0.922375    -0.683713    -0.614760    -0.586042    -0.496139    -0.442576     0.185137

          11.1
      0.224957


 HOMO      9.1    -0.442576 =     -12.0431eV
 LUMO     10.1     0.185137 =       5.0378eV
 LUMO-HOMO         0.627714 =      17.0810eV

 Orbitals saved in record  2101.2


 **********************************************************************************************************************************
 DATASETS  * FILE   NREC   LENGTH (MB)   RECORD NAMES
              1      19       31.25       500      610      700      900      950      970     1000      129      960     1100   
                                          VAR    BASINP    GEOM    SYMINP    ZMAT    AOBASIS   BASIS     P2S    ABASIS      S 
                                         1400     1410     1200     1210     1080     1600     1650     1300     1700   
                                           T        V       H0       H01     AOSYM     SMH    MOLCAS    ERIS     OPER   

              2       5        0.66       700     1000      520     2100     2101   
                                         GEOM     BASIS   MCVARS     RHF      RHF  

 PROGRAMS   *        TOTAL    HF-SCF    HF-SCF       INT
 CPU TIMES  *         0.29      0.01      0.04      0.15
 REAL TIME  *         2.42 SEC
 DISK USED  *        40.22 MB
 **********************************************************************************************************************************


 PROGRAM * PAPT (Closed-shell)     Authors: C. Hampel, H.-J. Werner, 1991, P.J. Knowles, 2021


 Convergence thresholds:  THRVAR = 1.00D-08  THRDEN = 1.00D-06

 Number of core orbitals:           2 (   2 )
 Number of closed-shell orbitals:   7 (   7 )
 Number of external orbitals:      39 (  39 )

 Molecular orbitals read from record     2101.2  Type=RHF/CANONICAL  

 Number of N-1 electron functions:               7
 Number of N-2 electron functions:              28
 Number of singly external CSFs:               273
 Number of doubly external CSFs:             37401
 Total number of CSFs:                       37675

 Length of J-op  integral file:               0.00 MB
 Length of K-op  integral file:               0.22 MB

 Integral transformation finished. Total CPU:   0.01 sec, npass=  1  Memory used:   0.21 MW

 Reference energy:                   -115.04932070

                        CORR.ENERGY   TOTAL ENERGY   ENERGY CHANGE
 MP2:                   -0.33797809  -115.38729879    -0.33797809

 SCS-MP2 correlation energy:           -0.33642513   (PS=  1.200000  PT=  0.333333)
 SCS-MP2 total energy:               -115.38574583
 Iteration:   1     0.2092D+00
 Iteration:   2     0.4996D+00
 Iteration:   3     0.9293D-01
 Iteration:   4     0.5907D-01
 Iteration:   5     0.6091D+00
 Iteration:   6     0.2610D-01
 Iteration:   7     0.3780D-01
 Iteration:   8     0.8627D-02
 Iteration:   9     0.3396D-02
 Iteration:  10     0.1841D-01
 Iteration:  11     0.1492D-02
 Iteration:  12     0.1148D-02
 Iteration:  13     0.1170D-02
 Iteration:  14     0.3677D-03
 Iteration:  15     0.6627D-02
 Iteration:  16     0.1266D-03
 Iteration:  17     0.1875D-03
 Iteration:  18     0.8785D-04
 PAPT operator written to  7000.1
 PAPT orbitals and eigenvalues written to  7000.2

 MP3(D):                -0.35759801  -115.40691871    -0.01961992



 RESULTS
 =======

  Reference energy                   -115.049320701468
  MP3 singlet pair energy              -0.245048168984
  MP3 triplet pair energy              -0.112549842569
  MP3 correlation energy               -0.357598011553

 !MP3 total energy                   -115.406918713021

 Timing summary (sec):

 STEP                 CPU(USER)    SYS     CPU(TOT)    WALL
 Transformation          0.01      0.01      0.02      0.05
 CCSD iterations         0.49      0.02      0.51      0.48

 Program statistics:

 Available memory in ccsd:               805306163
 Min. memory needed in ccsd:                136177
 Max. memory used in ccsd:                  162910
 Max. memory used in cckext:                178661 ( 1 integral passes)



 **********************************************************************************************************************************
 DATASETS  * FILE   NREC   LENGTH (MB)   RECORD NAMES
              1      21       32.04       500      610      700      900      950      970     1000      129      960     1100   
                                          VAR    BASINP    GEOM    SYMINP    ZMAT    AOBASIS   BASIS     P2S    ABASIS      S 
                                         1400     1410     1200     1210     1080     1600     1650     1300     1700     1380   
                                           T        V       H0       H01     AOSYM     SMH    MOLCAS    ERIS     OPER     JKOP   
                                         7000   
                                        PAPT AO    

              2       6        0.81       700     1000      520     2100     2101     7000   
                                         GEOM     BASIS   MCVARS     RHF      RHF     PAPT   

 PROGRAMS   *        TOTAL      PAPT    HF-SCF    HF-SCF       INT
 CPU TIMES  *         0.42      0.13      0.01      0.04      0.15
 REAL TIME  *         3.06 SEC
 DISK USED  *        40.22 MB
 **********************************************************************************************************************************


 PROGRAM * MP3 (Closed-shell)     Authors: C. Hampel, H.-J. Werner, 1991, M. Deegan, P.J. Knowles, 1992


 Convergence thresholds:  THRVAR = 1.00D-08  THRDEN = 1.00D-06

 Number of core orbitals:           2 (   2 )
 Number of closed-shell orbitals:   7 (   7 )
 Number of external orbitals:      39 (  39 )

 Molecular orbitals read from record     7000.2  Type=PAPT/CANONICAL (state 1.1)

 Number of N-1 electron functions:               7
 Number of N-2 electron functions:              28
 Number of singly external CSFs:               273
 Number of doubly external CSFs:             37401
 Total number of CSFs:                       37675

 Length of J-op  integral file:               0.00 MB
 Length of K-op  integral file:               0.22 MB

 Integral transformation finished. Total CPU:   0.01 sec, npass=  1  Memory used:   0.21 MW
 Orbital energies read from record       7000.2  Type=PAPT/CANONICAL (state 1.1)

 Reference energy:                   -115.04932070

                        CORR.ENERGY   TOTAL ENERGY   ENERGY CHANGE
 MP2:                   -0.36183981  -115.41116051    -0.36183981

 SCS-MP2 correlation energy:           -0.36239908   (PS=  1.200000  PT=  0.333333)
 SCS-MP2 total energy:               -115.41171978

 MP3(D):                -0.36205490  -115.41137560    -0.00021510



 RESULTS
 =======

  Reference energy                   -115.049320701468
  MP3 singlet pair energy              -0.249920901587
  MP3 triplet pair energy              -0.112134000103
  MP3 correlation energy               -0.362054901691

 !MP3 total energy                   -115.411375603158

 Timing summary (sec):

 STEP                 CPU(USER)    SYS     CPU(TOT)    WALL
 Transformation          0.01      0.01      0.02      0.06
 CCSD iterations         0.55      0.00      0.55      0.12

 Program statistics:

 Available memory in ccsd:               805306163
 Min. memory needed in ccsd:                136177
 Max. memory used in ccsd:                  162910
 Max. memory used in cckext:                178661 ( 1 integral passes)



 **********************************************************************************************************************************
 DATASETS  * FILE   NREC   LENGTH (MB)   RECORD NAMES
              1      21       32.04       500      610      700      900      950      970     1000      129      960     1100   
                                          VAR    BASINP    GEOM    SYMINP    ZMAT    AOBASIS   BASIS     P2S    ABASIS      S 
                                         1400     1410     1200     1210     1080     1600     1650     1300     1700     1380   
                                           T        V       H0       H01     AOSYM     SMH    MOLCAS    ERIS     OPER     JKOP   
                                         7000   
                                        PAPT AO    

              2       6        0.81       700     1000      520     2100     2101     7000   
                                         GEOM     BASIS   MCVARS     RHF      RHF     PAPT   

 PROGRAMS   *        TOTAL       MP3      PAPT    HF-SCF    HF-SCF       INT
 CPU TIMES  *         0.48      0.05      0.13      0.01      0.04      0.15
 REAL TIME  *         3.31 SEC
 DISK USED  *        40.22 MB
 **********************************************************************************************************************************

 Dump information in style XML to xml output                                                                      

 Orbitals will not be exported.

 **********************************************************************************************************************************

 MP3/cc-pVDZ energy=   -115.411375603158

             MP3            PAPT          HF-SCF          HF-SCF
   -115.41137560   -115.40691871   -115.04932070   -115.04932070
 **********************************************************************************************************************************
 Molpro calculation terminated
