
 Working directory              : /var/folders/2v/xbgp75_9785319ghcgb4zr4r0000gp/T//molpro.b1skR4WaVl/
 Global scratch directory       : /var/folders/2v/xbgp75_9785319ghcgb4zr4r0000gp/T//molpro.b1skR4WaVl/
 Wavefunction directory         : /Users/sacpjk/wfu/
 Main file repository           : /var/folders/2v/xbgp75_9785319ghcgb4zr4r0000gp/T//molpro.b1skR4WaVl/

 id        : peterk

 Nodes                        nprocs
 Cardiff-University-G34YLXT77Y    1
 GA implementation: MPI file
 GA implementation (serial work in mppx): MPI file

 Using customized tuning parameters: mindgm=1; mindgv=20; mindgc=4; mindgr=1; noblas=0; minvec=7
 default implementation of scratch files=df  


 Variables initialized (1032), CPU time= 0.00 sec
 
 symmetry,nosym
 
 
 geometry={
            6
     C          0.96745826     -0.11636709      0.00000000
     N         -0.30997205     -0.08985970      0.00000000
     C         -1.52110730     -0.22012413      0.00000000
     H          1.50098112     -0.12812485      0.94177700
     H          1.50098112     -0.12812485     -0.94177700
     H         -2.13834115      0.68260062      0.00000000
 }
 basis=cc-pVTZ
 
 
 
 hf
 
 
 
 {put,xml;noorbitals,nobasis}
 Commands initialized (841), CPU time= 0.01 sec, 704 directives.
 Default parameters read. Elapsed time= 0.43 sec

 Checking input...
 Passed
1


                                         ***  PROGRAM SYSTEM MOLPRO  ***
                                       Copyright, TTI GmbH Stuttgart, 2015
                                    Version 2023.1 linked Tue Jun  6 09:54:11 2023


 **********************************************************************************************************************************
 LABEL *                                                                                                                                                                 
  64 bit serial version                                                                  DATE: 10-Jun-23          TIME: 14:45:02  
 **********************************************************************************************************************************

 SHA1:             8ebb0dd001088a5c915591db1a321413035db0b1
 **********************************************************************************************************************************

 Memory per process:       805 MW
 Total memory per node:   1074 MW
 Total GA space:           268 MW

 GA preallocation disabled
 GA check enabled

 Variable memory set to 805.3 MW

 ZSYMEL=NOSYM


 Geometry recognized as XYZ

 SETTING BASIS          =    CC-PVTZ


 Recomputing integrals since basis changed


 Using spherical harmonics

 Library entry C      S cc-pVTZ              selected for orbital group  1
 Library entry C      P cc-pVTZ              selected for orbital group  1
 Library entry C      D cc-pVTZ              selected for orbital group  1
 Library entry C      F cc-pVTZ              selected for orbital group  1
 Library entry N      S cc-pVTZ              selected for orbital group  2
 Library entry N      P cc-pVTZ              selected for orbital group  2
 Library entry N      D cc-pVTZ              selected for orbital group  2
 Library entry N      F cc-pVTZ              selected for orbital group  2
 Library entry H      S cc-pVTZ              selected for orbital group  4
 Library entry H      P cc-pVTZ              selected for orbital group  4
 Library entry H      D cc-pVTZ              selected for orbital group  4


 PROGRAM * SEWARD (Integral evaluation for generally contracted gaussian basis sets)     Author: Roland Lindh, 1990

 Geometry written to block  1 of record 700


 Point group  C1  



 ATOMIC COORDINATES

 NR  ATOM    CHARGE       X              Y              Z

   1  C       6.00    1.828231148   -0.219901930    0.000000000
   2  N       7.00   -0.585762281   -0.169810223    0.000000000
   3  C       6.00   -2.874476203   -0.415974319    0.000000000
   4  H       1.00    2.836443235   -0.242120876    1.779700600
   5  H       1.00    2.836443235   -0.242120876   -1.779700600
   6  H       1.00   -4.040879135    1.289928224    0.000000000

 Bond lengths in Bohr (Angstrom)

 1-2  2.414513089  1-4  2.045560931  1-5  2.045560931  2-3  2.301914026  3-6  2.066542834
     ( 1.277705302)     ( 1.082464228)     ( 1.082464228)     ( 1.218120444)     ( 1.093567373)

 Bond angles

  1-2-3  172.67236630   2-1-4  119.53777769   2-1-5  119.53777769   2-3-6  118.22330183

  4-1-5  120.92439085

 NUCLEAR CHARGE:                   22
 NUMBER OF PRIMITIVE AOS:         192
 NUMBER OF SYMMETRY AOS:          174
 NUMBER OF CONTRACTIONS:          132   (  132A   )
 NUMBER OF INNER CORE ORBITALS:     0   (    0A   )
 NUMBER OF OUTER CORE ORBITALS:     3   (    3A   )
 NUMBER OF VALENCE ORBITALS:       15   (   15A   )


 NUCLEAR REPULSION ENERGY   61.10533246


 Eigenvalues of metric

         1 0.118E-02 0.130E-02 0.163E-02 0.184E-02 0.189E-02 0.263E-02 0.287E-02 0.595E-02


 Contracted 2-electron integrals neglected if value below      1.0D-11
 AO integral compression algorithm  1   Integral accuracy      1.0D-11

     135.528 MB (compressed) written to integral file ( 38.2%)


 NUMBER OF SORTED TWO-ELECTRON INTEGRALS:   38531031.     BUFFER LENGTH:  32768
 NUMBER OF SEGMENTS:   3  SEGMENT LENGTH:   15998004      RECORD LENGTH: 524288

 Memory used in sort:      16.56 MW

 SORT1 READ    44271642. AND WROTE    29399536. INTEGRALS IN     85 RECORDS. CPU TIME:     0.26 SEC, REAL TIME:     3.12 SEC
 SORT2 READ    29399536. AND WROTE    38531031. INTEGRALS IN    517 RECORDS. CPU TIME:     0.28 SEC, REAL TIME:     0.61 SEC

 FILE SIZES:   FILE 1:   166.3 MBYTE,  FILE 4:   356.6 MBYTE,   TOTAL:    522.8 MBYTE

 OPERATOR DM      FOR CENTER  0  COORDINATES:    0.000000    0.000000    0.000000


 **********************************************************************************************************************************
 DATASETS  * FILE   NREC   LENGTH (MB)   RECORD NAMES
              1      19      142.76       500      610      700      900      950      970     1000      129      960     1100   
                                          VAR    BASINP    GEOM    SYMINP    ZMAT    AOBASIS   BASIS     P2S    ABASIS      S 
                                         1400     1410     1200     1210     1080     1600     1650     1300     1700   
                                           T        V       H0       H01     AOSYM     SMH    MOLCAS    ERIS     OPER   

 PROGRAMS   *        TOTAL       INT
 CPU TIMES  *         1.69      1.60
 REAL TIME  *         9.79 SEC
 DISK USED  *       499.05 MB
 **********************************************************************************************************************************


 Program * Restricted Hartree-Fock

 Orbital guess generated from atomic densities. Full valence occupancy:   18

 Initial occupancy:  11

 NELEC=   22   SYM=1   MS2= 0   THRE=1.0D-08   THRD=3.2D-06   THRG=3.2D-06  HFMA2=F  DIIS_START=2   DIIS_MAX=10   DIIS_INCORE=F

 Level shifts:    0.00 (CLOSED)    0.00 (OPEN)    0.30 (GAP_MIN)

 ITER           ETOT              DE          GRAD        DDIFF     DIIS  NEXP   TIME(IT)  TIME(TOT)  DIAG
   1     -131.83239898    -131.83239898     0.00D+00     0.66D-01     0     0       0.17      0.32    start
   2     -131.85804580      -0.02564681     0.36D-02     0.52D-02     1     0       0.16      0.48    diag
   3     -131.86368022      -0.00563443     0.19D-02     0.20D-02     2     0       0.17      0.65    diag
   4     -131.86618000      -0.00249978     0.82D-03     0.12D-02     3     0       0.17      0.82    diag
   5     -131.86682816      -0.00064816     0.32D-03     0.70D-03     4     0       0.16      0.98    diag
   6     -131.86700560      -0.00017744     0.18D-03     0.43D-03     5     0       0.17      1.15    diag
   7     -131.86702276      -0.00001716     0.59D-04     0.15D-03     6     0       0.17      1.32    diag
   8     -131.86702358      -0.00000082     0.17D-04     0.31D-04     7     0       0.16      1.48    fixocc
   9     -131.86702362      -0.00000004     0.35D-05     0.71D-05     8     0       0.16      1.64    diag
  10     -131.86702363      -0.00000000     0.10D-05     0.23D-05     9     0       0.16      1.80    diag/orth
  11     -131.86702363      -0.00000000     0.26D-06     0.37D-06     0     0       0.17      1.97    diag

 Final occupancy:  11

 !RHF STATE 1.1 Energy               -131.867023626365
  RHF One-electron energy            -298.047407041891
  RHF Two-electron energy             105.075050955726
  RHF Kinetic energy                  131.653667635300
  RHF Nuclear energy                   61.105332459801
  RHF Virial quotient                  -1.001620585244

 !RHF STATE 1.1 Dipole moment           0.59288238     0.57509012    -0.00000000
 Dipole moment /Debye                   1.50695670     1.46173327    -0.00000000

 Orbital energies:

           1.1          2.1          3.1          4.1          5.1          6.1          7.1          8.1          9.1         10.1
    -15.648086   -11.282582   -11.263137    -1.294243    -1.025854    -0.756729    -0.677499    -0.665897    -0.553057    -0.469737

          11.1         12.1         13.1
     -0.311842     0.120533     0.139329


 HOMO     11.1    -0.311842 =      -8.4856eV
 LUMO     12.1     0.120533 =       3.2799eV
 LUMO-HOMO         0.432374 =      11.7655eV

 Orbitals saved in record  2100.2


 **********************************************************************************************************************************
 DATASETS  * FILE   NREC   LENGTH (MB)   RECORD NAMES
              1      19      142.76       500      610      700      900      950      970     1000      129      960     1100   
                                          VAR    BASINP    GEOM    SYMINP    ZMAT    AOBASIS   BASIS     P2S    ABASIS      S 
                                         1400     1410     1200     1210     1080     1600     1650     1300     1700   
                                           T        V       H0       H01     AOSYM     SMH    MOLCAS    ERIS     OPER   

              2       4        0.75       700     1000      520     2100   
                                         GEOM     BASIS   MCVARS     RHF  

 PROGRAMS   *        TOTAL    HF-SCF       INT
 CPU TIMES  *         3.66      1.97      1.60
 REAL TIME  *        13.10 SEC
 DISK USED  *       499.05 MB
 **********************************************************************************************************************************

 Dump information in style XML to xml output                                                                      

 Orbitals will not be exported.

 **********************************************************************************************************************************

 HF/cc-pVTZ energy=   -131.867023626365

          HF-SCF
   -131.86702363
 **********************************************************************************************************************************
 Molpro calculation terminated
