
 Working directory              : /var/folders/2v/xbgp75_9785319ghcgb4zr4r0000gp/T//molpro.EOMs4S26jl/
 Global scratch directory       : /var/folders/2v/xbgp75_9785319ghcgb4zr4r0000gp/T//molpro.EOMs4S26jl/
 Wavefunction directory         : /Users/sacpjk/wfu/
 Main file repository           : /var/folders/2v/xbgp75_9785319ghcgb4zr4r0000gp/T//molpro.EOMs4S26jl/

 id        : peterk

 Nodes                        nprocs
 Cardiff-University-G34YLXT77Y    1
 GA implementation: MPI file
 GA implementation (serial work in mppx): MPI file

 Using customized tuning parameters: mindgm=1; mindgv=20; mindgc=4; mindgr=1; noblas=0; minvec=7
 default implementation of scratch files=df  


 Variables initialized (1032), CPU time= 0.01 sec
 
 symmetry,nosym
 
 
 geometry={
 4
  c          0.000000000000    0.000000000000   -0.605439359614
  h          0.000000000000    0.000000000000   -1.669276666645
  c          0.000000000000    0.000000000000    0.606637366315
  h          0.000000000000    0.000000000000    1.668078659891
 }
 basis=aug-cc-pVTZ
 
 
 
 hf; ccsd(t)
 
 
 
 {put,xml;noorbitals,nobasis}
 Commands initialized (841), CPU time= 0.00 sec, 704 directives.
 Default parameters read. Elapsed time= 1.66 sec

 Checking input...
 Passed
1


                                         ***  PROGRAM SYSTEM MOLPRO  ***
                                       Copyright, TTI GmbH Stuttgart, 2015
                                    Version 2023.1 linked Tue Jun  6 09:54:11 2023


 **********************************************************************************************************************************
 LABEL *                                                                                                                                                                 
  64 bit serial version                                                                  DATE: 09-Jun-23          TIME: 02:40:16  
 **********************************************************************************************************************************

 SHA1:             8ebb0dd001088a5c915591db1a321413035db0b1
 **********************************************************************************************************************************

 Memory per process:       805 MW
 Total memory per node:   1074 MW
 Total GA space:           268 MW

 GA preallocation disabled
 GA check enabled

 Variable memory set to 805.3 MW

 ZSYMEL=NOSYM


 Geometry recognized as XYZ

 SETTING BASIS          =    AUG-CC-PVTZ


 Recomputing integrals since basis changed


 Using spherical harmonics

 Library entry C      S aug-cc-pVTZ          selected for orbital group  1
 Library entry C      P aug-cc-pVTZ          selected for orbital group  1
 Library entry C      D aug-cc-pVTZ          selected for orbital group  1
 Library entry C      F aug-cc-pVTZ          selected for orbital group  1
 Library entry H      S aug-cc-pVTZ          selected for orbital group  2
 Library entry H      P aug-cc-pVTZ          selected for orbital group  2
 Library entry H      D aug-cc-pVTZ          selected for orbital group  2


 PROGRAM * SEWARD (Integral evaluation for generally contracted gaussian basis sets)     Author: Roland Lindh, 1990

 Geometry written to block  1 of record 700


 Point group  C1  



 ATOMIC COORDINATES

 NR  ATOM    CHARGE       X              Y              Z

   1  C       6.00    0.000000000    0.000000000   -1.144114575
   2  H       1.00    0.000000000    0.000000000   -3.154475726
   3  C       6.00    0.000000000    0.000000000    1.146378479
   4  H       1.00    0.000000000    0.000000000    3.152211822

 Bond lengths in Bohr (Angstrom)

 1-2  2.010361151  1-3  2.290493054  3-4  2.005833342
     ( 1.063837307)     ( 1.212076726)     ( 1.061441294)

 Bond angles

  1-3-4  179.99999852   2-1-3  180.00000000

 NUCLEAR CHARGE:                   14
 NUMBER OF PRIMITIVE AOS:         188
 NUMBER OF SYMMETRY AOS:          166
 NUMBER OF CONTRACTIONS:          138   (  138A   )
 NUMBER OF INNER CORE ORBITALS:     0   (    0A   )
 NUMBER OF OUTER CORE ORBITALS:     2   (    2A   )
 NUMBER OF VALENCE ORBITALS:       10   (   10A   )


 NUCLEAR REPULSION ENERGY   24.64312929

 EXTRA SYMMETRY OF AOS IN SYMMETRY 1:   1 1 1 1 1 2 3 1 2 3   1 2 3 1 2 3 1 1 4 2   5 3 1 4 2 5 3 1 4 2   5 3 2 3 1 6 4 7 5 2
                                        3 1 6 4 7 5 1 1 1 1   2 3 1 2 3 1 2 3 1 1   4 2 5 3 1 4 2 5 3 1   1 1 1 1 2 3 1 2 3 1
                                        2 3 1 2 3 1 1 4 2 5   3 1 4 2 5 3 1 4 2 5   3 2 3 1 6 4 7 5 2 3   1 6 4 7 5 1 1 1 1 2
                                        3 1 2 3 1 2 3 1 1 4   2 5 3 1 4 2 5 3

 Eigenvalues of metric

         1 0.867E-05 0.140E-04 0.742E-04 0.122E-03 0.323E-03 0.366E-03 0.366E-03 0.611E-03


 Contracted 2-electron integrals neglected if value below      1.0D-12
 AO integral compression algorithm  1   Integral accuracy      1.0D-12

     81.789 MB (compressed) written to integral file ( 17.8%)


 NUMBER OF SORTED TWO-ELECTRON INTEGRALS:   45998436.     BUFFER LENGTH:  32768
 NUMBER OF SEGMENTS:   3  SEGMENT LENGTH:   15998004      RECORD LENGTH: 524288

 Memory used in sort:      16.56 MW

 SORT1 READ    57346098. AND WROTE     9719482. INTEGRALS IN     29 RECORDS. CPU TIME:     0.22 SEC, REAL TIME:     0.28 SEC
 SORT2 READ     9719482. AND WROTE    45998436. INTEGRALS IN    312 RECORDS. CPU TIME:     0.29 SEC, REAL TIME:     0.33 SEC

 FILE SIZES:   FILE 1:   112.5 MBYTE,  FILE 4:   121.7 MBYTE,   TOTAL:    234.2 MBYTE

 OPERATOR DM      FOR CENTER  0  COORDINATES:    0.000000    0.000000    0.000000


 **********************************************************************************************************************************
 DATASETS  * FILE   NREC   LENGTH (MB)   RECORD NAMES
              1      19       88.09       500      610      700      900      950      970     1000      129      960     1100   
                                          VAR    BASINP    GEOM    SYMINP    ZMAT    AOBASIS   BASIS     P2S    ABASIS      S 
                                         1400     1410     1200     1210     1080     1600     1650     1300     1700   
                                           T        V       H0       H01     AOSYM     SMH    MOLCAS    ERIS     OPER   

 PROGRAMS   *        TOTAL       INT
 CPU TIMES  *         1.67      1.58
 REAL TIME  *         8.88 SEC
 DISK USED  *       223.79 MB
 **********************************************************************************************************************************


 Program * Restricted Hartree-Fock

 Orbital guess generated from atomic densities. Full valence occupancy:   12

 Initial occupancy:   7

 NELEC=   14   SYM=1   MS2= 0   THRE=1.0D-08   THRD=3.2D-06   THRG=3.2D-06  HFMA2=F  DIIS_START=2   DIIS_MAX=10   DIIS_INCORE=F

 Level shifts:    0.00 (CLOSED)    0.00 (OPEN)    0.30 (GAP_MIN)

 ITER           ETOT              DE          GRAD        DDIFF     DIIS  NEXP   TIME(IT)  TIME(TOT)  DIAG
   1      -76.83413880     -76.83413880     0.00D+00     0.55D-01     0     0       0.22      0.41    start
   2      -76.84769372      -0.01355492     0.38D-02     0.78D-02     1     0       0.21      0.62    diag
   3      -76.84895552      -0.00126180     0.12D-02     0.12D-02     2     0       0.23      0.85    diag
   4      -76.84908358      -0.00012806     0.25D-03     0.55D-03     3     0       0.22      1.07    diag
   5      -76.84908927      -0.00000569     0.53D-04     0.10D-03     4     0       0.22      1.29    diag
   6      -76.84908948      -0.00000021     0.11D-04     0.18D-04     5     0       0.22      1.51    diag
   7      -76.84908951      -0.00000003     0.56D-05     0.52D-05     6     0       0.22      1.73    diag
   8      -76.84908951      -0.00000000     0.78D-06     0.17D-05     7     0       0.23      1.96    fixocc
   9      -76.84908951      -0.00000000     0.91D-07     0.14D-06     0     0       0.21      2.17    diag

 Final occupancy:   7

 !RHF STATE 1.1 Energy                -76.849089514118
  RHF One-electron energy            -151.409927809089
  RHF Two-electron energy              49.917709002767
  RHF Kinetic energy                   76.633763722867
  RHF Nuclear energy                   24.643129292204
  RHF Virial quotient                  -1.002809803157

 !RHF STATE 1.1 Dipole moment          -0.00000000    -0.00000000    -0.00102481
 Dipole moment /Debye                  -0.00000000    -0.00000000    -0.00260480

 Orbital energies:

           1.1          2.1          3.1          4.1          5.1          6.1          7.1          8.1          9.1
    -11.246999   -11.243387    -1.028178    -0.769190    -0.681322    -0.409089    -0.409089     0.030976     0.032582


 HOMO      7.1    -0.409089 =     -11.1319eV
 LUMO      8.1     0.030976 =       0.8429eV
 LUMO-HOMO         0.440065 =      11.9748eV

 Orbitals saved in record  2100.2


 **********************************************************************************************************************************
 DATASETS  * FILE   NREC   LENGTH (MB)   RECORD NAMES
              1      19       88.09       500      610      700      900      950      970     1000      129      960     1100   
                                          VAR    BASINP    GEOM    SYMINP    ZMAT    AOBASIS   BASIS     P2S    ABASIS      S 
                                         1400     1410     1200     1210     1080     1600     1650     1300     1700   
                                           T        V       H0       H01     AOSYM     SMH    MOLCAS    ERIS     OPER   

              2       4        0.74       700     1000      520     2100   
                                         GEOM     BASIS   MCVARS     RHF  

 PROGRAMS   *        TOTAL    HF-SCF       INT
 CPU TIMES  *         3.84      2.17      1.58
 REAL TIME  *        12.69 SEC
 DISK USED  *       223.79 MB
 **********************************************************************************************************************************


 PROGRAM * CCSD (Closed-shell coupled cluster)     Authors: C. Hampel, H.-J. Werner, 1991, M. Deegan, P.J. Knowles, 1992


 Convergence thresholds:  THRVAR = 1.00D-08  THRDEN = 1.00D-06

 CCSD(T)     terms to be evaluated (factor= 1.000)


 Number of core orbitals:           2 (   2 )
 Number of closed-shell orbitals:   5 (   5 )
 Number of external orbitals:     131 ( 131 )

 Molecular orbitals read from record     2100.2  Type=RHF/CANONICAL  

 Number of N-1 electron functions:               5
 Number of N-2 electron functions:              15
 Number of singly external CSFs:               655
 Number of doubly external CSFs:            214840
 Total number of CSFs:                      215496

 Length of J-op  integral file:               0.00 MB
 Length of K-op  integral file:               1.37 MB
 Length of 3-ext integral record:             0.00 MB

 Memory could be reduced to 17.65 Mwords without degradation in triples

 Integral transformation finished. Total CPU:   0.66 sec, npass=  1  Memory used:   8.82 MW

 Reference energy:                    -76.84908951

 MP2 singlet pair energy:              -0.20610651
 MP2 triplet pair energy:              -0.10885802
 MP2 correlation energy:               -0.31496453
 MP2 total energy:                    -77.16405405

 SCS-MP2 correlation energy:           -0.31506169   (PS=  1.200000  PT=  0.333333)
 SCS-MP2 total energy:                -77.16415121

 ITER.      SQ.NORM     CORR.ENERGY   TOTAL ENERGY   ENERGY CHANGE        DEN1      VAR(S)    VAR(P)  DIIS     TIME  TIME/IT
   1      1.12069486    -0.32428693   -77.17337645    -0.00932240     0.00086111  0.20D-02  0.24D-02  1  1     5.14     0.76
   2      1.13008628    -0.32560282   -77.17469234    -0.00131589    -0.00855805  0.38D-04  0.40D-03  2  2     5.61     0.65
   3      1.13521708    -0.32588128   -77.17497080    -0.00027846    -0.00246544  0.12D-04  0.47D-04  3  3     6.11     0.65
   4      1.13752227    -0.32599363   -77.17508314    -0.00011235    -0.00072923  0.39D-06  0.49D-05  4  4     6.60     0.66
   5      1.13806879    -0.32599907   -77.17508858    -0.00000544    -0.00012506  0.61D-07  0.35D-06  5  5     7.07     0.71
   6      1.13815367    -0.32599937   -77.17508888    -0.00000030    -0.00001906  0.50D-08  0.25D-07  6  6     7.60     0.71
   7      1.13816182    -0.32600054   -77.17509005    -0.00000117    -0.00000140  0.91D-09  0.27D-08  6  1     8.10     0.72
   8      1.13816191    -0.32600097   -77.17509048    -0.00000043     0.00000089  0.64D-10  0.18D-09  6  2     8.63     0.72
   9      1.13816262    -0.32600100   -77.17509052    -0.00000004    -0.00000037  0.14D-10  0.12D-10  6  3     9.16     0.73

 Norm of t1 vector:      0.05907986      S-energy:     0.00000012      T1 diagnostic:  0.01321066
                                                                       D1 diagnostic:  0.02827541
                                                                       D2 diagnostic:  0.18363218 (internal)

 Doubles amplitudes (print threshold =  0.500E-01):

         I         J         SYM. A    SYM. B    A         B      T(IJ, AB)

         4         4         1         1        11        11     -0.05137142
         5         5         1         1        10        10     -0.05137142


 Total CPU time for triples:      3.93 sec


 RESULTS
 =======

  Reference energy                    -76.849089514118
  CCSD singlet pair energy             -0.232471860418
  CCSD triplet pair energy             -0.093529260088
  CCSD correlation energy              -0.326001004763

  Triples (T) contribution             -0.017095648545
  Total correlation energy             -0.343096653308

  CCSD total energy                   -77.175090518881
  CCSD[T] energy                      -77.192800170223
  CCSD-T energy                       -77.191881542514
 !CCSD(T) total energy                -77.192186167426

 Timing summary (sec):

 STEP                 CPU(USER)    SYS     CPU(TOT)    WALL
 Transformation          0.68      0.09      0.77      1.35
 CCSD iterations         8.49      0.25      8.74      7.69
 Triples                 3.93      0.16      4.09      4.31

 Program statistics:

 Available memory in ccsd:               805306261
 Min. memory needed in ccsd:                843555
 Max. memory used in ccsd:                 1006405
 Max. memory used in cckext:                718074 ( 9 integral passes)



 **********************************************************************************************************************************
 DATASETS  * FILE   NREC   LENGTH (MB)   RECORD NAMES
              1      20      134.87       500      610      700      900      950      970     1000      129      960     1100   
                                          VAR    BASINP    GEOM    SYMINP    ZMAT    AOBASIS   BASIS     P2S    ABASIS      S 
                                         1400     1410     1200     1210     1080     1600     1650     1300     1700     1380   
                                           T        V       H0       H01     AOSYM     SMH    MOLCAS    ERIS     OPER     JKOP   

              2       4        0.74       700     1000      520     2100   
                                         GEOM     BASIS   MCVARS     RHF  

 PROGRAMS   *        TOTAL   CCSD(T)    HF-SCF       INT
 CPU TIMES  *        12.99      9.14      2.17      1.58
 REAL TIME  *        26.62 SEC
 DISK USED  *       223.79 MB
 **********************************************************************************************************************************

 Dump information in style XML to xml output                                                                      

 Orbitals will not be exported.

 **********************************************************************************************************************************

 CCSD(T)/aug-cc-pVTZ energy=    -77.192186167426

         CCSD(T)          HF-SCF
    -77.19218617    -76.84908951
 **********************************************************************************************************************************
 Molpro calculation terminated
