
 Working directory              : /var/folders/2v/xbgp75_9785319ghcgb4zr4r0000gp/T//molpro.2wFXLFFjke/
 Global scratch directory       : /var/folders/2v/xbgp75_9785319ghcgb4zr4r0000gp/T//molpro.2wFXLFFjke/
 Wavefunction directory         : /Users/sacpjk/wfu/
 Main file repository           : /var/folders/2v/xbgp75_9785319ghcgb4zr4r0000gp/T//molpro.2wFXLFFjke/

 id        : peterk

 Nodes                        nprocs
 Cardiff-University-G34YLXT77Y    1
 GA implementation: MPI file
 GA implementation (serial work in mppx): MPI file

 Using customized tuning parameters: mindgm=1; mindgv=20; mindgc=4; mindgr=1; noblas=0; minvec=7
 default implementation of scratch files=df  


 Variables initialized (1032), CPU time= 0.00 sec
 
 core,small
 angstrom
 
 geometry={
 C;O,C,1.12887680
 }
 basis=cc-pCVDZ
 
 
 
 hf; hf; papt; mp4
 
 
 
 {put,xml;noorbitals,nobasis}
 Commands initialized (841), CPU time= 0.01 sec, 704 directives.
 Default parameters read. Elapsed time= 0.98 sec

 Checking input...
 Passed
1


                                         ***  PROGRAM SYSTEM MOLPRO  ***
                                       Copyright, TTI GmbH Stuttgart, 2015
                                    Version 2023.1 linked Tue Jun  6 09:54:11 2023


 **********************************************************************************************************************************
 LABEL *                                                                                                                                                                 
  64 bit serial version                                                                  DATE: 12-Jun-23          TIME: 09:39:55  
 **********************************************************************************************************************************

 SHA1:             8ebb0dd001088a5c915591db1a321413035db0b1
 **********************************************************************************************************************************

 Memory per process:       393 MW
 Total memory per node:    524 MW
 Total GA space:           131 MW

 GA preallocation disabled
 GA check enabled

 Variable memory set to 393.2 MW

 ZUNIT=ANG

 SETTING BASIS          =    CC-PCVDZ


 Recomputing integrals since basis changed


 Using spherical harmonics

 Library entry C      S cc-pCVDZ             selected for orbital group  1
 Library entry C      P cc-pCVDZ             selected for orbital group  1
 Library entry C      D cc-pCVDZ             selected for orbital group  1
 Library entry O      S cc-pCVDZ             selected for orbital group  2
 Library entry O      P cc-pCVDZ             selected for orbital group  2
 Library entry O      D cc-pCVDZ             selected for orbital group  2


 PROGRAM * SEWARD (Integral evaluation for generally contracted gaussian basis sets)     Author: Roland Lindh, 1990

 Geometry written to block  1 of record 700

 Orientation using atomic masses  
 Molecule type: Linear
 Symmetry elements: X,Y
 Rotational constants:      57.8043525     57.8043525      0.0000000 GHz  (calculated with average atomic masses)

 Point group  C2v 



 ATOMIC COORDINATES

 NR  ATOM    CHARGE       X              Y              Z

   1  C       6.00    0.000000000    0.000000000   -1.218511971
   2  O       8.00    0.000000000    0.000000000    0.914756009

 Bond lengths in Bohr (Angstrom)

 1-2  2.133267980
     ( 1.128876800)

 NUCLEAR CHARGE:                   14
 NUMBER OF PRIMITIVE AOS:          62
 NUMBER OF SYMMETRY AOS:           60
 NUMBER OF CONTRACTIONS:           36   (   18A1  +    8B1  +    8B2  +    2A2  )
 NUMBER OF INNER CORE ORBITALS:     0   (    0A1  +    0B1  +    0B2  +    0A2  )
 NUMBER OF OUTER CORE ORBITALS:     2   (    2A1  +    0B1  +    0B2  +    0A2  )
 NUMBER OF VALENCE ORBITALS:        8   (    4A1  +    2B1  +    2B2  +    0A2  )


 NUCLEAR REPULSION ENERGY   22.50068929

 EXTRA SYMMETRY OF AOS IN SYMMETRY 1:   1 1 1 1 1 1 1 1 2 1   1 1 1 1 1 1 1 2

 Eigenvalues of metric

         1 0.130E-01 0.271E-01 0.589E-01 0.742E-01 0.956E-01 0.137E+00 0.159E+00 0.859E+00
         2 0.131E+00 0.174E+00 0.378E+00 0.953E+00 0.100E+01 0.116E+01 0.138E+01 0.282E+01
         3 0.131E+00 0.174E+00 0.378E+00 0.953E+00 0.100E+01 0.116E+01 0.138E+01 0.282E+01
         4 0.859E+00 0.114E+01


 Contracted 2-electron integrals neglected if value below      1.0D-11
 AO integral compression algorithm  1   Integral accuracy      1.0D-11

     0.524 MB (compressed) written to integral file ( 77.4%)


 NUMBER OF SORTED TWO-ELECTRON INTEGRALS:      65967.     BUFFER LENGTH:  32768
 NUMBER OF SEGMENTS:   1  SEGMENT LENGTH:      65967      RECORD LENGTH: 524288

 Memory used in sort:       0.62 MW

 SORT1 READ       90380. AND WROTE       54703. INTEGRALS IN      1 RECORDS. CPU TIME:     0.00 SEC, REAL TIME:     0.01 SEC
 SORT2 READ       54703. AND WROTE       65967. INTEGRALS IN      2 RECORDS. CPU TIME:     0.01 SEC, REAL TIME:     0.01 SEC

 FILE SIZES:   FILE 1:    30.5 MBYTE,  FILE 4:     4.3 MBYTE,   TOTAL:     34.8 MBYTE

 OPERATOR DM      FOR CENTER  0  COORDINATES:    0.000000    0.000000    0.000000


 **********************************************************************************************************************************
 DATASETS  * FILE   NREC   LENGTH (MB)   RECORD NAMES
              1      19       28.90       500      610      700      900      950      970     1000      129      960     1100   
                                          VAR    BASINP    GEOM    SYMINP    ZMAT    AOBASIS   BASIS     P2S    ABASIS      S 
                                         1400     1410     1200     1210     1080     1600     1650     1300     1700   
                                           T        V       H0       H01     AOSYM     SMH    MOLCAS    ERIS     OPER   

 PROGRAMS   *        TOTAL       INT
 CPU TIMES  *         0.18      0.08
 REAL TIME  *         2.17 SEC
 DISK USED  *        33.51 MB
 **********************************************************************************************************************************


 Program * Restricted Hartree-Fock

 Orbital guess generated from atomic densities. Full valence occupancy:    6   2   2   0

 Initial occupancy:   5   1   1   0

 NELEC=   14   SYM=1   MS2= 0   THRE=1.0D-08   THRD=3.2D-06   THRG=3.2D-06  HFMA2=F  DIIS_START=2   DIIS_MAX=10   DIIS_INCORE=F

 Level shifts:    0.00 (CLOSED)    0.00 (OPEN)    0.30 (GAP_MIN)

 ITER           ETOT              DE          GRAD        DDIFF     DIIS  NEXP   TIME(IT)  TIME(TOT)  DIAG
   1     -112.73114308    -112.73114308     0.00D+00     0.31D+00     0     0       0.00      0.00    start
   2     -112.74315625      -0.01201317     0.17D-01     0.45D-01     1     0       0.00      0.00    diag
   3     -112.74965447      -0.00649822     0.11D-01     0.15D-01     2     0       0.00      0.00    diag
   4     -112.74994691      -0.00029244     0.23D-02     0.32D-02     3     0       0.00      0.00    diag
   5     -112.74995712      -0.00001021     0.29D-03     0.98D-03     4     0       0.01      0.01    diag
   6     -112.74995742      -0.00000030     0.47D-04     0.16D-03     5     0       0.00      0.01    diag
   7     -112.74995742      -0.00000000     0.66D-05     0.19D-04     6     0       0.00      0.01    diag
   8     -112.74995743      -0.00000000     0.15D-05     0.41D-05     7     0       0.00      0.01    fixocc
   9     -112.74995743      -0.00000000     0.41D-06     0.11D-05     8     0       0.00      0.01    diag
  10     -112.74995743      -0.00000000     0.24D-07     0.63D-07     0     0       0.00      0.01    diag/orth

 Final occupancy:   5   1   1   0

 !RHF STATE 1.1 Energy               -112.749957425033
  RHF One-electron energy            -198.144333029120
  RHF Two-electron energy              62.893686314216
  RHF Kinetic energy                  112.596460359099
  RHF Nuclear energy                   22.500689289871
  RHF Virial quotient                  -1.001363249479

 !RHF STATE 1.1 Dipole moment           0.00000000     0.00000000    -0.09288264
 Dipole moment /Debye                   0.00000000     0.00000000    -0.23608413

 Orbital energies:

           1.1          2.1          3.1          4.1          5.1          6.1          7.1
    -20.668906   -11.366315    -1.522527    -0.802470    -0.549280     0.380788     0.701108

           1.2          2.2          3.2
     -0.634491     0.154039     0.670582

           1.3          2.3          3.3
     -0.634491     0.154039     0.670582

           1.4          2.4
      1.343957     2.936636


 HOMO      5.1    -0.549280 =     -14.9467eV
 LUMO      2.2     0.154039 =       4.1916eV
 LUMO-HOMO         0.703319 =      19.1383eV

 Orbitals saved in record  2100.2


 **********************************************************************************************************************************
 DATASETS  * FILE   NREC   LENGTH (MB)   RECORD NAMES
              1      19       28.90       500      610      700      900      950      970     1000      129      960     1100   
                                          VAR    BASINP    GEOM    SYMINP    ZMAT    AOBASIS   BASIS     P2S    ABASIS      S 
                                         1400     1410     1200     1210     1080     1600     1650     1300     1700   
                                           T        V       H0       H01     AOSYM     SMH    MOLCAS    ERIS     OPER   

              2       4        0.39       700     1000      520     2100   
                                         GEOM     BASIS   MCVARS     RHF  

 PROGRAMS   *        TOTAL    HF-SCF       INT
 CPU TIMES  *         0.19      0.00      0.08
 REAL TIME  *         2.43 SEC
 DISK USED  *        33.51 MB
 **********************************************************************************************************************************


 Program * Restricted Hartree-Fock

 Molecular orbitals read from record     2100.2  Type=RHF/CANONICAL  

 Initial occupancy:   5   1   1   0

 NELEC=   14   SYM=1   MS2= 0   THRE=1.0D-08   THRD=3.2D-06   THRG=3.2D-06  HFMA2=F  DIIS_START=2   DIIS_MAX=10   DIIS_INCORE=F

 Level shifts:    0.00 (CLOSED)    0.00 (OPEN)    0.30 (GAP_MIN)

 ITER           ETOT              DE          GRAD        DDIFF     DIIS  NEXP   TIME(IT)  TIME(TOT)  DIAG
   1     -112.74995743    -112.74995743     0.00D+00     0.32D+00     0     0       0.01      0.01    start
   2     -112.74995743       0.00000000     0.94D-08     0.21D-07     1     0       0.00      0.01    diag

 Final occupancy:   5   1   1   0

 !RHF STATE 1.1 Energy               -112.749957425033
  RHF One-electron energy            -198.144332902912
  RHF Two-electron energy              62.893686188008
  RHF Kinetic energy                  112.596460199215
  RHF Nuclear energy                   22.500689289871
  RHF Virial quotient                  -1.001363250901

 !RHF STATE 1.1 Dipole moment           0.00000000     0.00000000    -0.09288254
 Dipole moment /Debye                   0.00000000     0.00000000    -0.23608387

 Orbital energies:

           1.1          2.1          3.1          4.1          5.1          6.1          7.1
    -20.668906   -11.366315    -1.522527    -0.802470    -0.549280     0.380788     0.701108

           1.2          2.2          3.2
     -0.634491     0.154039     0.670582

           1.3          2.3          3.3
     -0.634491     0.154039     0.670582

           1.4          2.4
      1.343957     2.936636


 HOMO      5.1    -0.549280 =     -14.9467eV
 LUMO      2.2     0.154039 =       4.1916eV
 LUMO-HOMO         0.703319 =      19.1383eV

 Orbitals saved in record  2101.2


 **********************************************************************************************************************************
 DATASETS  * FILE   NREC   LENGTH (MB)   RECORD NAMES
              1      19       28.90       500      610      700      900      950      970     1000      129      960     1100   
                                          VAR    BASINP    GEOM    SYMINP    ZMAT    AOBASIS   BASIS     P2S    ABASIS      S 
                                         1400     1410     1200     1210     1080     1600     1650     1300     1700   
                                           T        V       H0       H01     AOSYM     SMH    MOLCAS    ERIS     OPER   

              2       5        0.50       700     1000      520     2100     2101   
                                         GEOM     BASIS   MCVARS     RHF      RHF  

 PROGRAMS   *        TOTAL    HF-SCF    HF-SCF       INT
 CPU TIMES  *         0.20      0.02      0.00      0.08
 REAL TIME  *         2.63 SEC
 DISK USED  *        33.51 MB
 **********************************************************************************************************************************


 PROGRAM * PAPT (Closed-shell)     Authors: C. Hampel, H.-J. Werner, 1991, P.J. Knowles, 2021


 CORETYPE=SMALL

 Convergence thresholds:  THRVAR = 1.00D-08  THRDEN = 1.00D-06

 Number of closed-shell orbitals:   7 (   5   1   1   0 )
 Number of external orbitals:      29 (  13   7   7   2 )

 Molecular orbitals read from record     2101.2  Type=RHF/CANONICAL  

 Number of N-1 electron functions:               7
 Number of N-2 electron functions:              28
 Number of singly external CSFs:                79
 Number of doubly external CSFs:              6010
 Total number of CSFs:                        6090

 Length of J-op  integral file:               0.00 MB
 Length of K-op  integral file:               0.09 MB

 Integral transformation finished. Total CPU:   0.01 sec, npass=  1  Memory used:   0.08 MW

 Reference energy:                   -112.74995743

                        CORR.ENERGY   TOTAL ENERGY   ENERGY CHANGE
 MP2:                   -0.36297606  -113.11293348    -0.36297606

 SCS-MP2 correlation energy:           -0.36417317   (PS=  1.200000  PT=  0.333333)
 SCS-MP2 total energy:               -113.11413059
 Iteration:   1     0.4063D+00
 Iteration:   2     0.6627D+01
 Iteration:   3     0.5335D+00
 Iteration:   4     0.1552D+00
 Iteration:   5     0.2514D+00
 Iteration:   6     0.6901D-01
 Iteration:   7     0.1381D+01
 Iteration:   8     0.2236D-01
 Iteration:   9     0.2691D-01
 Iteration:  10     0.8573D-02
 Iteration:  11     0.5002D-02
 Iteration:  12     0.6851D-02
 Iteration:  13     0.1355D-02
 Iteration:  14     0.3071D-02
 Iteration:  15     0.5207D-03
 Iteration:  16     0.3214D-03
 Iteration:  17     0.2843D-02
 Iteration:  18     0.9659D-04
 PAPT operator written to  7000.1
 PAPT orbitals and eigenvalues written to  7000.2

 MP3(D):                -0.36437230  -113.11432973    -0.00139624



 RESULTS
 =======

  Reference energy                   -112.749957425033

  Correlated core orbitals:             1.1       2.1
  Orbital energies:                   -20.6689  -11.3663

  MP3 core-core energy                 -0.061720113508
  MP3 core-valence energy              -0.013335690112
  MP3 valence correlation energy       -0.289316497785

  MP3 singlet pair energy              -0.256562194007
  MP3 triplet pair energy              -0.107810107399
  MP3 correlation energy               -0.364372301406

 !MP3 total energy                   -113.114329726439

 Timing summary (sec):

 STEP                 CPU(USER)    SYS     CPU(TOT)    WALL
 Transformation          0.01      0.00      0.01      0.17
 CCSD iterations         0.33      0.02      0.35      1.89

 Program statistics:

 Available memory in ccsd:               393215799
 Min. memory needed in ccsd:                 24733
 Max. memory used in ccsd:                   28749
 Max. memory used in cckext:                 61033 ( 1 integral passes)



 **********************************************************************************************************************************
 DATASETS  * FILE   NREC   LENGTH (MB)   RECORD NAMES
              1      21       29.04       500      610      700      900      950      970     1000      129      960     1100   
                                          VAR    BASINP    GEOM    SYMINP    ZMAT    AOBASIS   BASIS     P2S    ABASIS      S 
                                         1400     1410     1200     1210     1080     1600     1650     1300     1700     1380   
                                           T        V       H0       H01     AOSYM     SMH    MOLCAS    ERIS     OPER     JKOP   
                                         7000   
                                        PAPT AO    

              2       6        0.60       700     1000      520     2100     2101     7000   
                                         GEOM     BASIS   MCVARS     RHF      RHF     PAPT   

 PROGRAMS   *        TOTAL      PAPT    HF-SCF    HF-SCF       INT
 CPU TIMES  *         0.26      0.05      0.02      0.00      0.08
 REAL TIME  *         5.07 SEC
 DISK USED  *        33.51 MB
 **********************************************************************************************************************************


 PROGRAM * MP4 (Closed-shell)     Authors: C. Hampel, H.-J. Werner, 1991, M. Deegan, P.J. Knowles, 1992


 CORETYPE=SMALL

 Convergence thresholds:  THRVAR = 1.00D-08  THRDEN = 1.00D-06

 MP4(T)     terms to be evaluated (factor= 0.000)


 Number of closed-shell orbitals:   7 (   5   1   1   0 )
 Number of external orbitals:      29 (  13   7   7   2 )

 Molecular orbitals read from record     7000.2  Type=PAPT/CANONICAL (state 1.1)

 Number of N-1 electron functions:               7
 Number of N-2 electron functions:              28
 Number of singly external CSFs:                79
 Number of doubly external CSFs:              6010
 Total number of CSFs:                        6090

 Length of J-op  integral file:               0.00 MB
 Length of K-op  integral file:               0.09 MB

 Memory could be reduced to 0.13 Mwords without degradation in triples

 Integral transformation finished. Total CPU:   0.00 sec, npass=  1  Memory used:   0.10 MW
 Orbital energies read from record       7000.2  Type=PAPT/CANONICAL (state 1.1)

 Reference energy:                   -112.74995743

                        CORR.ENERGY   TOTAL ENERGY   ENERGY CHANGE
 MP2:                   -0.37017352  -113.12013095    -0.37017352

 SCS-MP2 correlation energy:           -0.37466271   (PS=  1.200000  PT=  0.333333)
 SCS-MP2 total energy:               -113.12462013

 MP3(D):                -0.37008004  -113.12003746     0.00009348
 MP4(DQ):               -0.36849949  -113.11845692     0.00158055
 MP4(SDQ):              -0.37302052  -113.12297795    -0.00452103

 Norm of t1 vector:      0.06320544      S-energy:    -0.00452103      T1 diagnostic:  0.01194471

 Largest off-diagonal element in interal  block of Fock matrix:  0.16D+00
 Largest off-diagonal element in external block of Fock matrix:  0.23D+00


 Total CPU time for triples:      0.01 sec


 RESULTS
 =======

  Reference energy                   -112.749957425033

  Correlated core orbitals:             1.1       2.1
  Orbital energies:                   -19.2845  -10.5792

  MP4(SDQ) core-core energy            -0.062111667721
  MP4(SDQ) core-valence energy         -0.013229512727
  MP4(SDQ) valence correlation ener    -0.297679339533

  MP4(SDQ) singlet pair energy         -0.258242000046
  MP4(SDQ) triplet pair energy         -0.110257491003
  MP4(SDQ) correlation energy          -0.373020519981

  Triples contribution                 -0.012450131085
  Total correlation energy             -0.385470651066

  MP4(SDQ) total energy              -113.122977945014
 !MP4(SDTQ) total energy             -113.135428076099

 Timing summary (sec):

 STEP                 CPU(USER)    SYS     CPU(TOT)    WALL
 Transformation          0.01      0.00      0.01      0.09
 CCSD iterations         0.37      0.01      0.38      0.51
 Triples                 0.01      0.00      0.01      0.01

 Program statistics:

 Available memory in ccsd:               393215799
 Min. memory needed in ccsd:                 24733
 Max. memory used in ccsd:                   28749
 Max. memory used in cckext:                 61033 ( 1 integral passes)



 **********************************************************************************************************************************
 DATASETS  * FILE   NREC   LENGTH (MB)   RECORD NAMES
              1      22       29.22       500      610      700      900      950      970     1000      129      960     1100   
                                          VAR    BASINP    GEOM    SYMINP    ZMAT    AOBASIS   BASIS     P2S    ABASIS      S 
                                         1400     1410     1200     1210     1080     1600     1650     1300     1700     1380   
                                           T        V       H0       H01     AOSYM     SMH    MOLCAS    ERIS     OPER     JKOP   
                                         7000     1380(1)
                                        PAPT AO   JKOP   

              2       6        0.60       700     1000      520     2100     2101     7000   
                                         GEOM     BASIS   MCVARS     RHF      RHF     PAPT   

 PROGRAMS   *        TOTAL       MP4      PAPT    HF-SCF    HF-SCF       INT
 CPU TIMES  *         0.30      0.04      0.05      0.02      0.00      0.08
 REAL TIME  *         6.01 SEC
 DISK USED  *        33.51 MB
 **********************************************************************************************************************************

 Dump information in style XML to xml output                                                                      

 Orbitals will not be exported.

 **********************************************************************************************************************************

 MP4/cc-pCVDZ energy=   -113.135428076099

             MP4            PAPT          HF-SCF          HF-SCF
   -113.13542808   -113.11432973   -112.74995743   -112.74995743
 **********************************************************************************************************************************
 Molpro calculation terminated
