
 Working directory              : /var/folders/2v/xbgp75_9785319ghcgb4zr4r0000gp/T//molpro.7CV7Ha5HQF/
 Global scratch directory       : /var/folders/2v/xbgp75_9785319ghcgb4zr4r0000gp/T//molpro.7CV7Ha5HQF/
 Wavefunction directory         : /Users/sacpjk/wfu/
 Main file repository           : /var/folders/2v/xbgp75_9785319ghcgb4zr4r0000gp/T//molpro.7CV7Ha5HQF/

 id        : peterk

 Nodes                        nprocs
 Cardiff-University-G34YLXT77Y    1
 GA implementation: MPI file
 GA implementation (serial work in mppx): MPI file

 Using customized tuning parameters: mindgm=1; mindgv=20; mindgc=4; mindgr=1; noblas=0; minvec=7
 default implementation of scratch files=df  


 Variables initialized (1032), CPU time= 0.00 sec
 
 symmetry,nosym
 
 
 geometry={
            3
     C          0.37482171      0.51783010      0.00000000
     N          0.37482171     -0.67052208      0.00000000
     H         -0.74964343      0.15269198      0.00000000
 }
 basis=cc-pVTZ
 
 
 
 hf; ccsd
 
 
 
 {put,xml;noorbitals,nobasis}
 Commands initialized (841), CPU time= 0.01 sec, 704 directives.
 Default parameters read. Elapsed time= 0.07 sec

 Checking input...
 Passed
1


                                         ***  PROGRAM SYSTEM MOLPRO  ***
                                       Copyright, TTI GmbH Stuttgart, 2015
                                    Version 2023.1 linked Tue Jun  6 09:54:11 2023


 **********************************************************************************************************************************
 LABEL *                                                                                                                                                                 
  64 bit serial version                                                                  DATE: 09-Jun-23          TIME: 09:30:26  
 **********************************************************************************************************************************

 SHA1:             8ebb0dd001088a5c915591db1a321413035db0b1
 **********************************************************************************************************************************

 Memory per process:       805 MW
 Total memory per node:   1074 MW
 Total GA space:           268 MW

 GA preallocation disabled
 GA check enabled

 Variable memory set to 805.3 MW

 ZSYMEL=NOSYM


 Geometry recognized as XYZ

 SETTING BASIS          =    CC-PVTZ


 Recomputing integrals since basis changed


 Using spherical harmonics

 Library entry C      S cc-pVTZ              selected for orbital group  1
 Library entry C      P cc-pVTZ              selected for orbital group  1
 Library entry C      D cc-pVTZ              selected for orbital group  1
 Library entry C      F cc-pVTZ              selected for orbital group  1
 Library entry N      S cc-pVTZ              selected for orbital group  2
 Library entry N      P cc-pVTZ              selected for orbital group  2
 Library entry N      D cc-pVTZ              selected for orbital group  2
 Library entry N      F cc-pVTZ              selected for orbital group  2
 Library entry H      S cc-pVTZ              selected for orbital group  3
 Library entry H      P cc-pVTZ              selected for orbital group  3
 Library entry H      D cc-pVTZ              selected for orbital group  3


 PROGRAM * SEWARD (Integral evaluation for generally contracted gaussian basis sets)     Author: Roland Lindh, 1990

 Geometry written to block  1 of record 700


 Point group  C1  



 ATOMIC COORDINATES

 NR  ATOM    CHARGE       X              Y              Z

   1  C       6.00    0.708310377    0.978557068    0.000000000
   2  N       7.00    0.708310377   -1.267103092    0.000000000
   3  H       1.00   -1.416620774    0.288546024    0.000000000

 Bond lengths in Bohr (Angstrom)

 1-2  2.245660160  1-3  2.234154793  2-3  2.633510313
     ( 1.188352180)     ( 1.182263802)     ( 1.393593642)

 Bond angles

  1-2-3   53.79236971   1-3-2   54.19736348   2-1-3   72.01026681

 NUCLEAR CHARGE:                   14
 NUMBER OF PRIMITIVE AOS:         111
 NUMBER OF SYMMETRY AOS:          100
 NUMBER OF CONTRACTIONS:           74   (   74A   )
 NUMBER OF INNER CORE ORBITALS:     0   (    0A   )
 NUMBER OF OUTER CORE ORBITALS:     2   (    2A   )
 NUMBER OF VALENCE ORBITALS:        9   (    9A   )


 NUCLEAR REPULSION ENERGY   24.04636942

 EXTRA SYMMETRY OF AOS IN SYMMETRY 1:   1 1 1 1 1 1 2 1 1 2   1 1 2 1 1 2 1 2 1 1   2 1 2 1 1 2 1 2 1 2   1 1 1 1 1 1 2 1 1 2
                                        1 1 2 1 1 2 1 2 1 1   2 1 2 1 1 2 1 2 1 2   1 1 1 1 1 2 1 1 2 1   1 2 1 2

 Eigenvalues of metric

         1 0.147E-02 0.224E-02 0.298E-02 0.709E-02 0.107E-01 0.202E-01 0.206E-01 0.267E-01


 Contracted 2-electron integrals neglected if value below      1.0D-11
 AO integral compression algorithm  1   Integral accuracy      1.0D-11

     9.961 MB (compressed) written to integral file ( 25.6%)


 NUMBER OF SORTED TWO-ELECTRON INTEGRALS:    3851700.     BUFFER LENGTH:  32768
 NUMBER OF SEGMENTS:   1  SEGMENT LENGTH:    3851700      RECORD LENGTH: 524288

 Memory used in sort:       4.41 MW

 SORT1 READ     4876733. AND WROTE     1507901. INTEGRALS IN      5 RECORDS. CPU TIME:     0.02 SEC, REAL TIME:     0.02 SEC
 SORT2 READ     1507901. AND WROTE     3851700. INTEGRALS IN     38 RECORDS. CPU TIME:     0.05 SEC, REAL TIME:     0.06 SEC

 FILE SIZES:   FILE 1:    40.2 MBYTE,  FILE 4:    21.0 MBYTE,   TOTAL:     61.2 MBYTE

 OPERATOR DM      FOR CENTER  0  COORDINATES:    0.000000    0.000000    0.000000


 **********************************************************************************************************************************
 DATASETS  * FILE   NREC   LENGTH (MB)   RECORD NAMES
              1      19       36.19       500      610      700      900      950      970     1000      129      960     1100   
                                          VAR    BASINP    GEOM    SYMINP    ZMAT    AOBASIS   BASIS     P2S    ABASIS      S 
                                         1400     1410     1200     1210     1080     1600     1650     1300     1700   
                                           T        V       H0       H01     AOSYM     SMH    MOLCAS    ERIS     OPER   

 PROGRAMS   *        TOTAL       INT
 CPU TIMES  *         0.34      0.25
 REAL TIME  *         0.69 SEC
 DISK USED  *        58.75 MB
 **********************************************************************************************************************************


 Program * Restricted Hartree-Fock

 Orbital guess generated from atomic densities. Full valence occupancy:   11

 Initial occupancy:   7

 NELEC=   14   SYM=1   MS2= 0   THRE=1.0D-08   THRD=3.2D-06   THRG=3.2D-06  HFMA2=F  DIIS_START=2   DIIS_MAX=10   DIIS_INCORE=F

 Level shifts:    0.00 (CLOSED)    0.00 (OPEN)    0.30 (GAP_MIN)

 ITER           ETOT              DE          GRAD        DDIFF     DIIS  NEXP   TIME(IT)  TIME(TOT)  DIAG
   1      -92.81352547     -92.81352547     0.00D+00     0.91D-01     0     0       0.01      0.03    start
   2      -92.82917919      -0.01565372     0.48D-02     0.69D-02     1     0       0.02      0.05    diag
   3      -92.83121527      -0.00203608     0.15D-02     0.18D-02     2     0       0.01      0.06    diag
   4      -92.83193313      -0.00071785     0.71D-03     0.12D-02     3     0       0.02      0.08    diag
   5      -92.83218807      -0.00025494     0.43D-03     0.65D-03     4     0       0.01      0.09    diag
   6      -92.83230473      -0.00011666     0.21D-03     0.63D-03     5     0       0.02      0.11    diag
   7      -92.83231261      -0.00000788     0.57D-04     0.18D-03     6     0       0.01      0.12    diag
   8      -92.83231297      -0.00000036     0.15D-04     0.38D-04     7     0       0.02      0.14    fixocc
   9      -92.83231299      -0.00000002     0.39D-05     0.81D-05     8     0       0.02      0.16    diag
  10      -92.83231300      -0.00000000     0.11D-05     0.19D-05     9     0       0.01      0.17    diag/orth
  11      -92.83231300      -0.00000000     0.29D-06     0.40D-06     0     0       0.02      0.19    diag

 Final occupancy:   7

 !RHF STATE 1.1 Energy                -92.832312995683
  RHF One-electron energy            -172.519818974337
  RHF Two-electron energy              55.641136563426
  RHF Kinetic energy                   92.694308174513
  RHF Nuclear energy                   24.046369415229
  RHF Virial quotient                  -1.001488816562

 !RHF STATE 1.1 Dipole moment          -0.51792383     0.01769536     0.00000000
 Dipole moment /Debye                  -1.31643107     0.04497712     0.00000000

 Orbital energies:

           1.1          2.1          3.1          4.1          5.1          6.1          7.1          8.1          9.1
    -15.654249   -11.295860    -1.306868    -0.706348    -0.626001    -0.532542    -0.496906     0.101866     0.159572


 HOMO      7.1    -0.496906 =     -13.5215eV
 LUMO      8.1     0.101866 =       2.7719eV
 LUMO-HOMO         0.598772 =      16.2934eV

 Orbitals saved in record  2100.2


 **********************************************************************************************************************************
 DATASETS  * FILE   NREC   LENGTH (MB)   RECORD NAMES
              1      19       36.19       500      610      700      900      950      970     1000      129      960     1100   
                                          VAR    BASINP    GEOM    SYMINP    ZMAT    AOBASIS   BASIS     P2S    ABASIS      S 
                                         1400     1410     1200     1210     1080     1600     1650     1300     1700   
                                           T        V       H0       H01     AOSYM     SMH    MOLCAS    ERIS     OPER   

              2       4        0.50       700     1000      520     2100   
                                         GEOM     BASIS   MCVARS     RHF  

 PROGRAMS   *        TOTAL    HF-SCF       INT
 CPU TIMES  *         0.53      0.19      0.25
 REAL TIME  *         1.01 SEC
 DISK USED  *        58.75 MB
 **********************************************************************************************************************************


 PROGRAM * CCSD (Closed-shell coupled cluster)     Authors: C. Hampel, H.-J. Werner, 1991, M. Deegan, P.J. Knowles, 1992


 Convergence thresholds:  THRVAR = 1.00D-08  THRDEN = 1.00D-06

 Number of core orbitals:           2 (   2 )
 Number of closed-shell orbitals:   5 (   5 )
 Number of external orbitals:      67 (  67 )

 Molecular orbitals read from record     2100.2  Type=RHF/CANONICAL  

 Number of N-1 electron functions:               5
 Number of N-2 electron functions:              15
 Number of singly external CSFs:               335
 Number of doubly external CSFs:             56280
 Total number of CSFs:                       56616

 Length of J-op  integral file:               0.00 MB
 Length of K-op  integral file:               0.44 MB
 Length of 3-ext integral record:             0.00 MB

 Integral transformation finished. Total CPU:   0.04 sec, npass=  1  Memory used:   1.52 MW

 Reference energy:                    -92.83231300

 MP2 singlet pair energy:              -0.21272355
 MP2 triplet pair energy:              -0.12504531
 MP2 correlation energy:               -0.33776886
 MP2 total energy:                    -93.17008186

 SCS-MP2 correlation energy:           -0.33307423   (PS=  1.200000  PT=  0.333333)
 SCS-MP2 total energy:                -93.16538722

 ITER.      SQ.NORM     CORR.ENERGY   TOTAL ENERGY   ENERGY CHANGE        DEN1      VAR(S)    VAR(P)  DIIS     TIME  TIME/IT
   1      1.11802182    -0.34622305   -93.17853605    -0.00845419     0.00452787  0.38D-02  0.27D-02  1  1     0.72     0.07
   2      1.12946621    -0.34731191   -93.17962490    -0.00108886    -0.01010938  0.28D-03  0.47D-03  2  2     0.76     0.06
   3      1.13797009    -0.34794530   -93.18025830    -0.00063340    -0.00321052  0.14D-03  0.44D-04  3  3     0.80     0.06
   4      1.14290088    -0.34816140   -93.18047440    -0.00021610    -0.00108473  0.31D-04  0.10D-04  4  4     0.85     0.06
   5      1.14576737    -0.34820268   -93.18051567    -0.00004127    -0.00040306  0.73D-05  0.14D-05  5  5     0.89     0.07
   6      1.14692294    -0.34818716   -93.18050016     0.00001551    -0.00011007  0.77D-06  0.31D-06  6  6     0.94     0.06
   7      1.14721983    -0.34818581   -93.18049880     0.00000136    -0.00002450  0.23D-06  0.45D-07  6  1     0.98     0.06
   8      1.14730296    -0.34818515   -93.18049815     0.00000065     0.00000233  0.28D-07  0.77D-08  6  2     1.02     0.06
   9      1.14733586    -0.34818457   -93.18049757     0.00000058    -0.00000439  0.47D-08  0.14D-08  6  6     1.06     0.06

 Norm of t1 vector:      0.11994375      S-energy:     0.00000200      T1 diagnostic:  0.02682024
                                                                       D1 diagnostic:  0.06682404
                                                                       D2 diagnostic:  0.17764186 (internal)

 Singles amplitudes (print threshold =  0.500E-01):

         I         SYM. A    A   T(IA)

         5         1         1      0.05689532

 Doubles amplitudes (print threshold =  0.500E-01):

         I         J         SYM. A    SYM. B    A         B      T(IJ, AB)

         3         3         1         1         1         1     -0.05029830
         4         4         1         1         3         3     -0.08175160


 RESULTS
 =======

  Reference energy                    -92.832312995683
  CCSD singlet pair energy             -0.238358633987
  CCSD triplet pair energy             -0.109827944005
  CCSD correlation energy              -0.348184573851

 !CCSD total energy                   -93.180497569533

 Timing summary (sec):

 STEP                 CPU(USER)    SYS     CPU(TOT)    WALL
 Transformation          0.04      0.01      0.05      0.07
 CCSD iterations         1.03      0.04      1.07      0.60

 Program statistics:

 Available memory in ccsd:               805306261
 Min. memory needed in ccsd:                230499
 Max. memory used in ccsd:                  270789
 Max. memory used in cckext:                225293 ( 9 integral passes)



 **********************************************************************************************************************************
 DATASETS  * FILE   NREC   LENGTH (MB)   RECORD NAMES
              1      20       43.05       500      610      700      900      950      970     1000      129      960     1100   
                                          VAR    BASINP    GEOM    SYMINP    ZMAT    AOBASIS   BASIS     P2S    ABASIS      S 
                                         1400     1410     1200     1210     1080     1600     1650     1300     1700     1380   
                                           T        V       H0       H01     AOSYM     SMH    MOLCAS    ERIS     OPER     JKOP   

              2       4        0.50       700     1000      520     2100   
                                         GEOM     BASIS   MCVARS     RHF  

 PROGRAMS   *        TOTAL      CCSD    HF-SCF       INT
 CPU TIMES  *         0.99      0.46      0.19      0.25
 REAL TIME  *         1.72 SEC
 DISK USED  *        58.75 MB
 **********************************************************************************************************************************

 Dump information in style XML to xml output                                                                      

 Orbitals will not be exported.

 **********************************************************************************************************************************

 CCSD/cc-pVTZ energy=    -93.180497569533

            CCSD          HF-SCF
    -93.18049757    -92.83231300
 **********************************************************************************************************************************
 Molpro calculation terminated
