
 Working directory              : /var/folders/2v/xbgp75_9785319ghcgb4zr4r0000gp/T//molpro.USll4jJx1i/
 Global scratch directory       : /var/folders/2v/xbgp75_9785319ghcgb4zr4r0000gp/T//molpro.USll4jJx1i/
 Wavefunction directory         : /Users/sacpjk/wfu/
 Main file repository           : /var/folders/2v/xbgp75_9785319ghcgb4zr4r0000gp/T//molpro.USll4jJx1i/

 id        : peterk

 Nodes                        nprocs
 Cardiff-University-G34YLXT77Y    1
 GA implementation: MPI file
 GA implementation (serial work in mppx): MPI file

 Using customized tuning parameters: mindgm=1; mindgv=20; mindgc=4; mindgr=1; noblas=0; minvec=7
 default implementation of scratch files=df  


 Variables initialized (1032), CPU time= 0.01 sec
 
 symmetry,nosym
 
 
 geometry={
           14
     C         -0.12282076     -1.09054053      1.14065341
     C          0.17199635      0.23301894      1.48248953
     C         -0.12282076      1.35549534      0.70296425
     C         -0.12282076      1.35549534     -0.70296425
     C          0.17199635      0.23301894     -1.48248953
     C         -0.12282076     -1.09054053     -1.14065341
     H          0.82454258      0.40945200      2.34048883
     H         -0.03331673      2.33317669      1.17510642
     H         -0.03331673      2.33317669     -1.17510642
     H          0.82454258      0.40945200     -2.34048883
     H          0.43031244     -1.88602881     -1.64114758
     H         -1.14789312     -1.35457363     -0.93625533
     H          0.43031244     -1.88602881      1.64114758
     H         -1.14789312     -1.35457363      0.93625533
 }
 basis=cc-pVDZ
 
 
 
 hf; ccsd(t)
 
 
 
 {put,xml;noorbitals,nobasis}
 Commands initialized (841), CPU time= 0.00 sec, 704 directives.
 Default parameters read. Elapsed time= 1.21 sec

 Checking input...
 Passed
1


                                         ***  PROGRAM SYSTEM MOLPRO  ***
                                       Copyright, TTI GmbH Stuttgart, 2015
                                    Version 2023.1 linked Tue Jun  6 09:54:11 2023


 **********************************************************************************************************************************
 LABEL *                                                                                                                                                                 
  64 bit serial version                                                                  DATE: 11-Jun-23          TIME: 23:14:48  
 **********************************************************************************************************************************

 SHA1:             8ebb0dd001088a5c915591db1a321413035db0b1
 **********************************************************************************************************************************

 Memory per process:       393 MW
 Total memory per node:    524 MW
 Total GA space:           131 MW

 GA preallocation disabled
 GA check enabled

 Variable memory set to 393.2 MW

 ZSYMEL=NOSYM


 Geometry recognized as XYZ

 SETTING BASIS          =    CC-PVDZ


 Recomputing integrals since basis changed


 Using spherical harmonics

 Library entry C      S cc-pVDZ              selected for orbital group  1
 Library entry C      P cc-pVDZ              selected for orbital group  1
 Library entry C      D cc-pVDZ              selected for orbital group  1
 Library entry H      S cc-pVDZ              selected for orbital group  2
 Library entry H      P cc-pVDZ              selected for orbital group  2


 PROGRAM * SEWARD (Integral evaluation for generally contracted gaussian basis sets)     Author: Roland Lindh, 1990

 Geometry written to block  1 of record 700


 Point group  C1  



 ATOMIC COORDINATES

 NR  ATOM    CHARGE       X              Y              Z

   1  C       6.00   -0.232097599   -2.060822930    2.155522548
   2  C       6.00    0.325025996    0.440341978    2.801499194
   3  C       6.00   -0.232097599    2.561514956    1.328409908
   4  C       6.00   -0.232097599    2.561514956   -1.328409908
   5  C       6.00    0.325025996    0.440341978   -2.801499194
   6  C       6.00   -0.232097599   -2.060822930   -2.155522548
   7  H       1.00    1.558159654    0.773752141    4.422882886
   8  H       1.00   -0.062959495    4.409064944    2.220629301
   9  H       1.00   -0.062959495    4.409064944   -2.220629301
  10  H       1.00    1.558159654    0.773752141   -4.422882886
  11  H       1.00    0.813172660   -3.564077914   -3.101319456
  12  H       1.00   -2.169203617   -2.559773176   -1.769266156
  13  H       1.00    0.813172660   -3.564077914    3.101319456
  14  H       1.00   -2.169203617   -2.559773176    1.769266156

 Bond lengths in Bohr (Angstrom)

  1- 2  2.642630966   1-13  2.060800149   1-14  2.037283749   2- 3  2.641922320   2- 7  2.064138085
       ( 1.398420084)       ( 1.090528475)       ( 1.078084132)       ( 1.398045085)       ( 1.092294835)

 3-4  2.656819816  3-8  2.058665613  4-5  2.641922320  4-9  2.058665613  5-6  2.642630966
     ( 1.405928500)     ( 1.089398927)     ( 1.398045085)     ( 1.089398927)     ( 1.398420084)

  5-10  2.064138085   6-11  2.060800149   6-12  2.037283749
       ( 1.092294835)       ( 1.090528475)       ( 1.078084132)

 Bond angles

  1- 2- 3  125.39105109   1- 2- 7  118.08860687   2- 1-13  118.11766989   2- 1-14  118.59395053

  2-3-4  123.88876628   2-3-8  117.48870728   3-2-7  115.73918845   3-4-5  123.88876628

  3- 4- 9  115.68333297   4- 3- 8  115.68333297   4- 5- 6  125.39105109   4- 5-10  115.73918845

  5- 4- 9  117.48870728   5- 6-11  118.11766989   5- 6-12  118.59395053   6- 5-10  118.08860687

 11- 6-12  112.99423084  13- 1-14  112.99423084

 NUCLEAR CHARGE:                   44
 NUMBER OF PRIMITIVE AOS:         218
 NUMBER OF SYMMETRY AOS:          212
 NUMBER OF CONTRACTIONS:          124   (  124A   )
 NUMBER OF INNER CORE ORBITALS:     0   (    0A   )
 NUMBER OF OUTER CORE ORBITALS:     6   (    6A   )
 NUMBER OF VALENCE ORBITALS:       32   (   32A   )


 NUCLEAR REPULSION ENERGY  211.29230562


 Eigenvalues of metric

         1 0.949E-03 0.223E-02 0.301E-02 0.339E-02 0.409E-02 0.100E-01 0.131E-01 0.173E-01


 Contracted 2-electron integrals neglected if value below      1.0D-11
 AO integral compression algorithm  1   Integral accuracy      1.0D-11

     126.091 MB (compressed) written to integral file ( 49.0%)


 NUMBER OF SORTED TWO-ELECTRON INTEGRALS:   30035125.     BUFFER LENGTH:  32768
 NUMBER OF SEGMENTS:   2  SEGMENT LENGTH:   15997996      RECORD LENGTH: 524288

 Memory used in sort:      16.56 MW

 SORT1 READ    32192102. AND WROTE    28323311. INTEGRALS IN     82 RECORDS. CPU TIME:     0.24 SEC, REAL TIME:     0.33 SEC
 SORT2 READ    28323311. AND WROTE    30035125. INTEGRALS IN    481 RECORDS. CPU TIME:     0.25 SEC, REAL TIME:     0.30 SEC

 FILE SIZES:   FILE 1:   156.9 MBYTE,  FILE 4:   344.0 MBYTE,   TOTAL:    500.9 MBYTE

 OPERATOR DM      FOR CENTER  0  COORDINATES:    0.000000    0.000000    0.000000


 **********************************************************************************************************************************
 DATASETS  * FILE   NREC   LENGTH (MB)   RECORD NAMES
              1      19      138.74       500      610      700      900      950      970     1000      129      960     1100   
                                          VAR    BASINP    GEOM    SYMINP    ZMAT    AOBASIS   BASIS     P2S    ABASIS      S 
                                         1400     1410     1200     1210     1080     1600     1650     1300     1700   
                                           T        V       H0       H01     AOSYM     SMH    MOLCAS    ERIS     OPER   

 PROGRAMS   *        TOTAL       INT
 CPU TIMES  *         1.91      1.81
 REAL TIME  *        11.18 SEC
 DISK USED  *       478.25 MB
 **********************************************************************************************************************************


 Program * Restricted Hartree-Fock

 Orbital guess generated from atomic densities. Full valence occupancy:   38

 Initial occupancy:  22

 NELEC=   44   SYM=1   MS2= 0   THRE=1.0D-08   THRD=3.2D-06   THRG=3.2D-06  HFMA2=F  DIIS_START=2   DIIS_MAX=10   DIIS_INCORE=F

 Level shifts:    0.00 (CLOSED)    0.00 (OPEN)    0.30 (GAP_MIN)

 ITER           ETOT              DE          GRAD        DDIFF     DIIS  NEXP   TIME(IT)  TIME(TOT)  DIAG
   1     -231.68861126    -231.68861126     0.00D+00     0.95D-01     0     0       0.13      0.25    start
   2     -231.74493249      -0.05632123     0.39D-02     0.88D-02     1     0       0.13      0.38    diag
   3     -231.75131131      -0.00637881     0.15D-02     0.31D-02     2     0       0.12      0.50    diag
   4     -231.75248251      -0.00117120     0.56D-03     0.12D-02     3     0       0.13      0.63    diag
   5     -231.75254297      -0.00006047     0.13D-03     0.24D-03     4     0       0.13      0.76    diag
   6     -231.75255927      -0.00001630     0.49D-04     0.13D-03     5     0       0.13      0.89    diag
   7     -231.75256345      -0.00000418     0.17D-04     0.55D-04     6     0       0.13      1.02    diag
   8     -231.75256475      -0.00000130     0.81D-05     0.34D-04     7     0       0.12      1.14    fixocc
   9     -231.75256501      -0.00000026     0.36D-05     0.16D-04     8     0       0.13      1.27    diag
  10     -231.75256505      -0.00000004     0.15D-05     0.67D-05     9     0       0.13      1.40    diag/orth
  11     -231.75256505      -0.00000000     0.40D-06     0.17D-05     9     0       0.13      1.53    diag
  12     -231.75256505      -0.00000000     0.10D-06     0.21D-06     0     0       0.12      1.65    diag

 Final occupancy:  22

 !RHF STATE 1.1 Energy               -231.752565051674
  RHF One-electron energy            -730.175675478016
  RHF Two-electron energy             287.130804808999
  RHF Kinetic energy                  231.393043383545
  RHF Nuclear energy                  211.292305617343
  RHF Virial quotient                  -1.001553727212

 !RHF STATE 1.1 Dipole moment           0.08162289    -0.13562676    -0.00000000
 Dipole moment /Debye                   0.20746468    -0.34472884    -0.00000000

 Orbital energies:

           1.1          2.1          3.1          4.1          5.1          6.1          7.1          8.1          9.1         10.1
    -11.247444   -11.247393   -11.239108   -11.238047   -11.235097   -11.235082    -1.111172    -1.029594    -0.975898    -0.860471

          11.1         12.1         13.1         14.1         15.1         16.1         17.1         18.1         19.1         20.1
     -0.794598    -0.677020    -0.674331    -0.621604    -0.604866    -0.570222    -0.520515    -0.507533    -0.500675    -0.456139

          21.1         22.1         23.1         24.1
     -0.311161    -0.299064     0.116325     0.122713


 HOMO     22.1    -0.299064 =      -8.1380eV
 LUMO     23.1     0.116325 =       3.1654eV
 LUMO-HOMO         0.415389 =      11.3033eV

 Orbitals saved in record  2100.2


 **********************************************************************************************************************************
 DATASETS  * FILE   NREC   LENGTH (MB)   RECORD NAMES
              1      19      138.74       500      610      700      900      950      970     1000      129      960     1100   
                                          VAR    BASINP    GEOM    SYMINP    ZMAT    AOBASIS   BASIS     P2S    ABASIS      S 
                                         1400     1410     1200     1210     1080     1600     1650     1300     1700   
                                           T        V       H0       H01     AOSYM     SMH    MOLCAS    ERIS     OPER   

              2       4        0.84       700     1000      520     2100   
                                         GEOM     BASIS   MCVARS     RHF  

 PROGRAMS   *        TOTAL    HF-SCF       INT
 CPU TIMES  *         3.56      1.66      1.81
 REAL TIME  *        13.65 SEC
 DISK USED  *       478.25 MB
 **********************************************************************************************************************************


 PROGRAM * CCSD (Closed-shell coupled cluster)     Authors: C. Hampel, H.-J. Werner, 1991, M. Deegan, P.J. Knowles, 1992


 Convergence thresholds:  THRVAR = 1.00D-08  THRDEN = 1.00D-06

 CCSD(T)     terms to be evaluated (factor= 1.000)


 Number of core orbitals:           6 (   6 )
 Number of closed-shell orbitals:  16 (  16 )
 Number of external orbitals:     102 ( 102 )

 Molecular orbitals read from record     2100.2  Type=RHF/CANONICAL  

 Number of N-1 electron functions:              16
 Number of N-2 electron functions:             136
 Number of singly external CSFs:              1632
 Number of doubly external CSFs:           1332528
 Total number of CSFs:                     1334161

 Length of J-op  integral file:               0.00 MB
 Length of K-op  integral file:               1.12 MB
 Length of 3-ext integral record:             0.00 MB

 Memory could be reduced to 23.10 Mwords without degradation in triples

 Integral transformation finished. Total CPU:   0.81 sec, npass=  1  Memory used:  20.10 MW

 Reference energy:                   -231.75256505

 MP2 singlet pair energy:              -0.51231028
 MP2 triplet pair energy:              -0.31690731
 MP2 correlation energy:               -0.82921759
 MP2 total energy:                   -232.58178264

 SCS-MP2 correlation energy:           -0.81195911   (PS=  1.200000  PT=  0.333333)
 SCS-MP2 total energy:               -232.56452416

 ITER.      SQ.NORM     CORR.ENERGY   TOTAL ENERGY   ENERGY CHANGE        DEN1      VAR(S)    VAR(P)  DIIS     TIME  TIME/IT
   1      1.33563528    -0.86962032  -232.62218537    -0.04040273    -0.01486699  0.38D-02  0.80D-02  1  1     6.76     2.49
   2      1.36589676    -0.87563159  -232.62819664    -0.00601127    -0.02516850  0.80D-04  0.12D-02  2  2     9.76     2.99
   3      1.37724115    -0.87596994  -232.62853499    -0.00033835    -0.00503335  0.25D-04  0.14D-03  3  3    12.39     2.97
   4      1.38319110    -0.87623358  -232.62879863    -0.00026364    -0.00152855  0.16D-05  0.21D-04  4  4    15.01     2.96
   5      1.38530917    -0.87628965  -232.62885470    -0.00005607    -0.00040134  0.25D-06  0.24D-05  5  5    17.53     2.91
   6      1.38583996    -0.87627829  -232.62884334     0.00001137    -0.00006587  0.39D-07  0.16D-06  6  6    20.07     2.92
   7      1.38590484    -0.87628119  -232.62884624    -0.00000291     0.00000005  0.12D-07  0.17D-07  6  2    22.64     2.91
   8      1.38591686    -0.87628123  -232.62884628    -0.00000004    -0.00000152  0.22D-08  0.20D-08  6  1    25.07     2.88
   9      1.38591480    -0.87628153  -232.62884658    -0.00000030     0.00000208  0.74D-09  0.28D-09  6  4    27.48     2.86

 Norm of t1 vector:      0.08604844      S-energy:     0.00000015      T1 diagnostic:  0.01075605
                                                                       D1 diagnostic:  0.03063078
                                                                       D2 diagnostic:  0.20253002 (internal)

 Doubles amplitudes (print threshold =  0.500E-01):

         I         J         SYM. A    SYM. B    A         B      T(IJ, AB)

        15        15         1         1         2         2     -0.10181227
        16        15         1         1         2         1      0.05586525
        16        16         1         1         1         1     -0.08472990


 Total CPU time for triples:     28.55 sec


 RESULTS
 =======

  Reference energy                   -231.752565051675
  CCSD singlet pair energy             -0.593527337966
  CCSD triplet pair energy             -0.282754341110
  CCSD correlation energy              -0.876281531235

  Triples (T) contribution             -0.039788933524
  Total correlation energy             -0.916070464759

  CCSD total energy                  -232.628846582909
  CCSD[T] energy                     -232.669491728456
  CCSD-T energy                      -232.668326473151
 !CCSD(T) total energy               -232.668635516434

 Timing summary (sec):

 STEP                 CPU(USER)    SYS     CPU(TOT)    WALL
 Transformation          0.84      0.09      0.93      1.28
 CCSD iterations        26.70      1.00     27.70     26.32
 Triples                28.55      1.56     30.11     31.86

 Program statistics:

 Available memory in ccsd:               393214954
 Min. memory needed in ccsd:               3503679
 Max. memory used in ccsd:                 4674239
 Max. memory used in cckext:               4391325 ( 9 integral passes)



 **********************************************************************************************************************************
 DATASETS  * FILE   NREC   LENGTH (MB)   RECORD NAMES
              1      20      228.38       500      610      700      900      950      970     1000      129      960     1100   
                                          VAR    BASINP    GEOM    SYMINP    ZMAT    AOBASIS   BASIS     P2S    ABASIS      S 
                                         1400     1410     1200     1210     1080     1600     1650     1300     1700     1380   
                                           T        V       H0       H01     AOSYM     SMH    MOLCAS    ERIS     OPER     JKOP   

              2       4        0.84       700     1000      520     2100   
                                         GEOM     BASIS   MCVARS     RHF  

 PROGRAMS   *        TOTAL   CCSD(T)    HF-SCF       INT
 CPU TIMES  *        56.01     52.44      1.66      1.81
 REAL TIME  *        73.52 SEC
 DISK USED  *       478.25 MB
 **********************************************************************************************************************************

 Dump information in style XML to xml output                                                                      

 Orbitals will not be exported.

 **********************************************************************************************************************************

 CCSD(T)/cc-pVDZ energy=   -232.668635516434

         CCSD(T)          HF-SCF
   -232.66863552   -231.75256505
 **********************************************************************************************************************************
 Molpro calculation terminated
