
 Working directory              : /var/folders/2v/xbgp75_9785319ghcgb4zr4r0000gp/T//molpro.kktVlJuzuQ/
 Global scratch directory       : /var/folders/2v/xbgp75_9785319ghcgb4zr4r0000gp/T//molpro.kktVlJuzuQ/
 Wavefunction directory         : /Users/sacpjk/wfu/
 Main file repository           : /var/folders/2v/xbgp75_9785319ghcgb4zr4r0000gp/T//molpro.kktVlJuzuQ/

 id        : peterk

 Nodes                        nprocs
 Cardiff-University-G34YLXT77Y    1
 GA implementation: MPI file
 GA implementation (serial work in mppx): MPI file

 Using customized tuning parameters: mindgm=1; mindgv=20; mindgc=4; mindgr=1; noblas=0; minvec=7
 default implementation of scratch files=df  


 Variables initialized (1032), CPU time= 0.00 sec
 
 symmetry,nosym
 
 
 geometry={
 6
  o         -0.425801180525    0.462763335384    0.899602451042
  h         -0.057818356287   -0.109314067566    1.577130778151
  c          0.039203890762   -0.008866580491   -0.362556658777
  h         -0.391613204424    0.642227110405   -1.115670690757
  h          1.125167577762    0.041926280159   -0.436868586914
  h         -0.289138727182   -1.028736077840   -0.561637292638
 }
 basis=aug-cc-pVDZ
 
 
 
 hf; ccsd(t)
 
 
 
 {put,xml;noorbitals,nobasis}
 Commands initialized (841), CPU time= 0.01 sec, 704 directives.
 Default parameters read. Elapsed time= 0.09 sec

 Checking input...
 Passed
1


                                         ***  PROGRAM SYSTEM MOLPRO  ***
                                       Copyright, TTI GmbH Stuttgart, 2015
                                    Version 2023.1 linked Tue Jun  6 09:54:11 2023


 **********************************************************************************************************************************
 LABEL *                                                                                                                                                                 
  64 bit serial version                                                                  DATE: 08-Jun-23          TIME: 21:58:10  
 **********************************************************************************************************************************

 SHA1:             8ebb0dd001088a5c915591db1a321413035db0b1
 **********************************************************************************************************************************

 Memory per process:       805 MW
 Total memory per node:   1074 MW
 Total GA space:           268 MW

 GA preallocation disabled
 GA check enabled

 Variable memory set to 805.3 MW

 ZSYMEL=NOSYM


 Geometry recognized as XYZ

 SETTING BASIS          =    AUG-CC-PVDZ


 Recomputing integrals since basis changed


 Using spherical harmonics

 Library entry O      S aug-cc-pVDZ          selected for orbital group  1
 Library entry O      P aug-cc-pVDZ          selected for orbital group  1
 Library entry O      D aug-cc-pVDZ          selected for orbital group  1
 Library entry H      S aug-cc-pVDZ          selected for orbital group  2
 Library entry H      P aug-cc-pVDZ          selected for orbital group  2
 Library entry C      S aug-cc-pVDZ          selected for orbital group  3
 Library entry C      P aug-cc-pVDZ          selected for orbital group  3
 Library entry C      D aug-cc-pVDZ          selected for orbital group  3


 PROGRAM * SEWARD (Integral evaluation for generally contracted gaussian basis sets)     Author: Roland Lindh, 1990

 Geometry written to block  1 of record 700


 Point group  C1  



 ATOMIC COORDINATES

 NR  ATOM    CHARGE       X              Y              Z

   1  O       8.00   -0.804647615    0.874495964    1.700002254
   2  H       1.00   -0.109260858   -0.206573649    2.980345233
   3  C       6.00    0.074084617   -0.016755409   -0.685132790
   4  H       1.00   -0.740041703    1.213633348   -2.108312051
   5  H       1.00    2.126258566    0.079229187   -0.825561982
   6  H       1.00   -0.546393006   -1.944029442   -1.061340664

 Bond lengths in Bohr (Angstrom)

 1-2  1.814263596  1-3  2.693579128  3-4  2.049901795  3-5  2.059211335  3-6  2.059346994
     ( 0.960066950)     ( 1.425380690)     ( 1.084761314)     ( 1.089687711)     ( 1.089759499)

 Bond angles

  1-3-4  106.65459098   1-3-5  111.72059385   1-3-6  111.90879544   2-1-3  107.61952492

  4-3-5  108.69153235   4-3-6  108.37480423   5-3-6  109.35579188

 NUCLEAR CHARGE:                   18
 NUMBER OF PRIMITIVE AOS:         118
 NUMBER OF SYMMETRY AOS:          114
 NUMBER OF CONTRACTIONS:           82   (   82A   )
 NUMBER OF INNER CORE ORBITALS:     0   (    0A   )
 NUMBER OF OUTER CORE ORBITALS:     2   (    2A   )
 NUMBER OF VALENCE ORBITALS:       12   (   12A   )


 NUCLEAR REPULSION ENERGY   40.29463209

 Eigenvalues of metric

         1 0.648E-03 0.790E-03 0.806E-03 0.110E-02 0.249E-02 0.437E-02 0.492E-02 0.520E-02


 Contracted 2-electron integrals neglected if value below      1.0D-11
 AO integral compression algorithm  1   Integral accuracy      1.0D-11

     32.506 MB (compressed) written to integral file ( 56.3%)


 NUMBER OF SORTED TWO-ELECTRON INTEGRALS:    5791906.     BUFFER LENGTH:  32768
 NUMBER OF SEGMENTS:   1  SEGMENT LENGTH:    5791906      RECORD LENGTH: 524288

 Memory used in sort:       6.35 MW

 SORT1 READ     7210272. AND WROTE     5721432. INTEGRALS IN     17 RECORDS. CPU TIME:     0.04 SEC, REAL TIME:     0.06 SEC
 SORT2 READ     5721432. AND WROTE     5791906. INTEGRALS IN    124 RECORDS. CPU TIME:     0.08 SEC, REAL TIME:     0.10 SEC

 FILE SIZES:   FILE 1:    62.8 MBYTE,  FILE 4:    71.4 MBYTE,   TOTAL:    134.2 MBYTE

 OPERATOR DM      FOR CENTER  0  COORDINATES:    0.000000    0.000000    0.000000


 **********************************************************************************************************************************
 DATASETS  * FILE   NREC   LENGTH (MB)   RECORD NAMES
              1      19       54.31       500      610      700      900      950      970     1000      129      960     1100   
                                          VAR    BASINP    GEOM    SYMINP    ZMAT    AOBASIS   BASIS     P2S    ABASIS      S 
                                         1400     1410     1200     1210     1080     1600     1650     1300     1700   
                                           T        V       H0       H01     AOSYM     SMH    MOLCAS    ERIS     OPER   

 PROGRAMS   *        TOTAL       INT
 CPU TIMES  *         0.48      0.38
 REAL TIME  *         1.02 SEC
 DISK USED  *       128.40 MB
 **********************************************************************************************************************************


 Program * Restricted Hartree-Fock

 Orbital guess generated from atomic densities. Full valence occupancy:   14

 Initial occupancy:   9

 NELEC=   18   SYM=1   MS2= 0   THRE=1.0D-08   THRD=3.2D-06   THRG=3.2D-06  HFMA2=F  DIIS_START=2   DIIS_MAX=10   DIIS_INCORE=F

 Level shifts:    0.00 (CLOSED)    0.00 (OPEN)    0.30 (GAP_MIN)

 ITER           ETOT              DE          GRAD        DDIFF     DIIS  NEXP   TIME(IT)  TIME(TOT)  DIAG
   1     -115.02697408    -115.02697408     0.00D+00     0.97D-01     0     0       0.02      0.05    start
   2     -115.05422175      -0.02724767     0.72D-02     0.12D-01     1     0       0.02      0.07    diag
   3     -115.06088758      -0.00666583     0.37D-02     0.38D-02     2     0       0.03      0.10    diag
   4     -115.06141161      -0.00052403     0.79D-03     0.12D-02     3     0       0.02      0.12    diag
   5     -115.06143959      -0.00002798     0.15D-03     0.28D-03     4     0       0.03      0.15    diag
   6     -115.06144081      -0.00000122     0.26D-04     0.59D-04     5     0       0.02      0.17    diag
   7     -115.06144086      -0.00000005     0.52D-05     0.12D-04     6     0       0.02      0.19    diag
   8     -115.06144086      -0.00000000     0.12D-05     0.26D-05     7     0       0.03      0.22    fixocc
   9     -115.06144086      -0.00000000     0.29D-06     0.45D-06     0     0       0.02      0.24    diag

 Final occupancy:   9

 !RHF STATE 1.1 Energy               -115.061440862011
  RHF One-electron energy            -236.720582068124
  RHF Two-electron energy              81.364509113967
  RHF Kinetic energy                  114.890554628032
  RHF Nuclear energy                   40.294632092146
  RHF Virial quotient                  -1.001487382793

 !RHF STATE 1.1 Dipole moment           0.43106366    -0.56170951    -0.12905565
 Dipole moment /Debye                   1.09565454    -1.42772317    -0.32802674

 Orbital energies:

           1.1          2.1          3.1          4.1          5.1          6.1          7.1          8.1          9.1         10.1
    -20.568401   -11.278608    -1.359721    -0.928292    -0.691082    -0.620524    -0.592510    -0.505254    -0.451404     0.034502

          11.1
      0.051737


 HOMO      9.1    -0.451404 =     -12.2833eV
 LUMO     10.1     0.034502 =       0.9388eV
 LUMO-HOMO         0.485906 =      13.2222eV

 Orbitals saved in record  2100.2


 **********************************************************************************************************************************
 DATASETS  * FILE   NREC   LENGTH (MB)   RECORD NAMES
              1      19       54.31       500      610      700      900      950      970     1000      129      960     1100   
                                          VAR    BASINP    GEOM    SYMINP    ZMAT    AOBASIS   BASIS     P2S    ABASIS      S 
                                         1400     1410     1200     1210     1080     1600     1650     1300     1700   
                                           T        V       H0       H01     AOSYM     SMH    MOLCAS    ERIS     OPER   

              2       4        0.57       700     1000      520     2100   
                                         GEOM     BASIS   MCVARS     RHF  

 PROGRAMS   *        TOTAL    HF-SCF       INT
 CPU TIMES  *         0.72      0.24      0.38
 REAL TIME  *         1.42 SEC
 DISK USED  *       128.40 MB
 **********************************************************************************************************************************


 PROGRAM * CCSD (Closed-shell coupled cluster)     Authors: C. Hampel, H.-J. Werner, 1991, M. Deegan, P.J. Knowles, 1992


 Convergence thresholds:  THRVAR = 1.00D-08  THRDEN = 1.00D-06

 CCSD(T)     terms to be evaluated (factor= 1.000)


 Number of core orbitals:           2 (   2 )
 Number of closed-shell orbitals:   7 (   7 )
 Number of external orbitals:      73 (  73 )

 Molecular orbitals read from record     2100.2  Type=RHF/CANONICAL  

 Number of N-1 electron functions:               7
 Number of N-2 electron functions:              28
 Number of singly external CSFs:               511
 Number of doubly external CSFs:            130816
 Total number of CSFs:                      131328

 Length of J-op  integral file:               0.00 MB
 Length of K-op  integral file:               0.52 MB
 Length of 3-ext integral record:             0.00 MB

 Memory could be reduced to 4.15 Mwords without degradation in triples

 Integral transformation finished. Total CPU:   0.13 sec, npass=  1  Memory used:   2.72 MW

 Reference energy:                   -115.06144086

 MP2 singlet pair energy:              -0.23107536
 MP2 triplet pair energy:              -0.12897615
 MP2 correlation energy:               -0.36005151
 MP2 total energy:                   -115.42149238

 SCS-MP2 correlation energy:           -0.35754226   (PS=  1.200000  PT=  0.333333)
 SCS-MP2 total energy:               -115.41898313

 ITER.      SQ.NORM     CORR.ENERGY   TOTAL ENERGY   ENERGY CHANGE        DEN1      VAR(S)    VAR(P)  DIIS     TIME  TIME/IT
   1      1.11575566    -0.38158692  -115.44302778    -0.02153541    -0.01160597  0.18D-02  0.19D-02  1  1     1.15     0.22
   2      1.12513122    -0.38317329  -115.44461415    -0.00158637    -0.00972898  0.29D-04  0.25D-03  2  2     1.34     0.22
   3      1.12775552    -0.38335591  -115.44479677    -0.00018262    -0.00151681  0.22D-04  0.12D-04  3  3     1.49     0.21
   4      1.12852195    -0.38331605  -115.44475691     0.00003986    -0.00034205  0.11D-05  0.11D-05  4  4     1.67     0.21
   5      1.12869490    -0.38331319  -115.44475405     0.00000286    -0.00005680  0.16D-06  0.94D-07  5  5     1.82     0.21
   6      1.12873011    -0.38331108  -115.44475194     0.00000211    -0.00000686  0.30D-07  0.87D-08  6  6     1.95     0.20
   7      1.12873794    -0.38330973  -115.44475059     0.00000135    -0.00000082  0.40D-08  0.14D-08  6  1     2.08     0.19
   8      1.12874091    -0.38330969  -115.44475055     0.00000004    -0.00000029  0.53D-09  0.20D-09  6  2     2.25     0.20
   9      1.12874127    -0.38330967  -115.44475053     0.00000003     0.00000041  0.65D-10  0.26D-10  6  4     2.37     0.19

 Norm of t1 vector:      0.05810143      S-energy:     0.00000004      T1 diagnostic:  0.01098014
                                                                       D1 diagnostic:  0.02781810
                                                                       D2 diagnostic:  0.13711399 (internal)


 Total CPU time for triples:      0.89 sec


 RESULTS
 =======

  Reference energy                   -115.061440862011
  CCSD singlet pair energy             -0.266476177203
  CCSD triplet pair energy             -0.116833533292
  CCSD correlation energy              -0.383309666211

  Triples (T) contribution             -0.010440826240
  Total correlation energy             -0.393750492450

  CCSD total energy                  -115.444750528221
  CCSD[T] energy                     -115.455785816613
  CCSD-T energy                      -115.454923990515
 !CCSD(T) total energy               -115.455191354461

 Timing summary (sec):

 STEP                 CPU(USER)    SYS     CPU(TOT)    WALL
 Transformation          0.13      0.02      0.15      0.23
 CCSD iterations         2.26      0.11      2.37      1.74
 Triples                 0.89      0.05      0.94      1.02

 Program statistics:

 Available memory in ccsd:               805306163
 Min. memory needed in ccsd:                438437
 Max. memory used in ccsd:                  541092
 Max. memory used in cckext:                449501 ( 9 integral passes)



 **********************************************************************************************************************************
 DATASETS  * FILE   NREC   LENGTH (MB)   RECORD NAMES
              1      20       67.11       500      610      700      900      950      970     1000      129      960     1100   
                                          VAR    BASINP    GEOM    SYMINP    ZMAT    AOBASIS   BASIS     P2S    ABASIS      S 
                                         1400     1410     1200     1210     1080     1600     1650     1300     1700     1380   
                                           T        V       H0       H01     AOSYM     SMH    MOLCAS    ERIS     OPER     JKOP   

              2       4        0.57       700     1000      520     2100   
                                         GEOM     BASIS   MCVARS     RHF  

 PROGRAMS   *        TOTAL   CCSD(T)    HF-SCF       INT
 CPU TIMES  *         3.18      2.46      0.24      0.38
 REAL TIME  *         4.46 SEC
 DISK USED  *       128.40 MB
 **********************************************************************************************************************************

 Dump information in style XML to xml output                                                                      

 Orbitals will not be exported.

 **********************************************************************************************************************************

 CCSD(T)/aug-cc-pVDZ energy=   -115.455191354461

         CCSD(T)          HF-SCF
   -115.45519135   -115.06144086
 **********************************************************************************************************************************
 Molpro calculation terminated
