
 Working directory              : /var/folders/2v/xbgp75_9785319ghcgb4zr4r0000gp/T//molpro.jbLfF5TqE1/
 Global scratch directory       : /var/folders/2v/xbgp75_9785319ghcgb4zr4r0000gp/T//molpro.jbLfF5TqE1/
 Wavefunction directory         : /Users/sacpjk/wfu/
 Main file repository           : /var/folders/2v/xbgp75_9785319ghcgb4zr4r0000gp/T//molpro.jbLfF5TqE1/

 id        : peterk

 Nodes                        nprocs
 Cardiff-University-G34YLXT77Y    1
 GA implementation: MPI file
 GA implementation (serial work in mppx): MPI file

 Using customized tuning parameters: mindgm=1; mindgv=20; mindgc=4; mindgr=1; noblas=0; minvec=7
 default implementation of scratch files=df  


 Variables initialized (1032), CPU time= 0.01 sec
 
 symmetry,nosym
 
 
 geometry={
 9
  o         -0.922075427238    0.661035175532   -0.004511951808
  h          0.042193368987    0.628562630671   -0.004158221689
  c         -1.383504346250   -0.674416801454    0.003760788250
  h         -2.469790848305   -0.643030365379    0.002898366921
  h         -1.061479151022   -1.233901361304   -0.877768215069
  h         -1.062541236219   -1.222596147687    0.892753686953
  o          1.993369735639    0.564530130397   -0.002063767774
  h          2.432573874862    0.952682329557   -0.761936449984
  h          2.431254029544    0.967134409455    0.751025764305
 }
 basis=aug-cc-pVTZ
 
 
 
 hf; ccsd; counterpoise
 
 
 
 {put,xml;noorbitals,nobasis}
 Commands initialized (841), CPU time= 0.00 sec, 704 directives.
 Default parameters read. Elapsed time= 0.99 sec

 Checking input...
 Passed
1


                                         ***  PROGRAM SYSTEM MOLPRO  ***
                                       Copyright, TTI GmbH Stuttgart, 2015
                                    Version 2023.1 linked Tue Jun  6 09:54:11 2023


 **********************************************************************************************************************************
 LABEL *                                                                                                                                                                 
  64 bit serial version                                                                  DATE: 08-Jun-23          TIME: 14:54:55  
 **********************************************************************************************************************************

 SHA1:             8ebb0dd001088a5c915591db1a321413035db0b1
 **********************************************************************************************************************************

 Memory per process:       805 MW
 Total memory per node:   1074 MW
 Total GA space:           268 MW

 GA preallocation disabled
 GA check enabled

 Variable memory set to 805.3 MW

 ZSYMEL=NOSYM


 Geometry recognized as XYZ

 SETTING BASIS          =    AUG-CC-PVTZ


 Recomputing integrals since basis changed


 Using spherical harmonics

 Library entry O      S aug-cc-pVTZ          selected for orbital group  1
 Library entry O      P aug-cc-pVTZ          selected for orbital group  1
 Library entry O      D aug-cc-pVTZ          selected for orbital group  1
 Library entry O      F aug-cc-pVTZ          selected for orbital group  1
 Library entry H      S aug-cc-pVTZ          selected for orbital group  2
 Library entry H      P aug-cc-pVTZ          selected for orbital group  2
 Library entry H      D aug-cc-pVTZ          selected for orbital group  2
 Library entry C      S aug-cc-pVTZ          selected for orbital group  3
 Library entry C      P aug-cc-pVTZ          selected for orbital group  3
 Library entry C      D aug-cc-pVTZ          selected for orbital group  3
 Library entry C      F aug-cc-pVTZ          selected for orbital group  3


 PROGRAM * SEWARD (Integral evaluation for generally contracted gaussian basis sets)     Author: Roland Lindh, 1990

 Geometry written to block  1 of record 700


 Point group  C1  



 ATOMIC COORDINATES

 NR  ATOM    CHARGE       X              Y              Z

   1  O       8.00   -1.742470024    1.249175440   -0.008526353
   2  H       1.00    0.079733912    1.187811224   -0.007857900
   3  C       6.00   -2.614444307   -1.274463049    0.007106860
   4  H       1.00   -4.667228288   -1.215151280    0.005477120
   5  H       1.00   -2.005904882   -2.331735638   -1.658741527
   6  H       1.00   -2.007911933   -2.310371880    1.687059965
   7  O       8.00    3.766922865    1.066807336   -0.003899956
   8  H       1.00    4.596898401    1.800308687   -1.439851215
   9  H       1.00    4.594404255    1.827619160    1.419233007

 Bond lengths in Bohr (Angstrom)

 1-2  1.823237010  1-3  2.670081417  3-4  2.053641307  3-5  2.064750931  3-6  2.064759324
     ( 0.964815476)     ( 1.412946237)     ( 1.086740179)     ( 1.092619139)     ( 1.092623580)

 7-8  1.813515823  7-9  1.813523507
     ( 0.959671245)     ( 0.959675312)

 Bond angles

  1-3-4  107.40559297   1-3-5  112.51964703   1-3-6  112.52114044   2-1-3  107.13200477

  4-3-5  107.98411746   4-3-6  107.98497415   5-3-6  108.23763290   8-7-9  104.05491273

 NUCLEAR CHARGE:                   28
 NUMBER OF PRIMITIVE AOS:         363
 NUMBER OF SYMMETRY AOS:          324
 NUMBER OF CONTRACTIONS:          276   (  276A   )
 NUMBER OF INNER CORE ORBITALS:     0   (    0A   )
 NUMBER OF OUTER CORE ORBITALS:     3   (    3A   )
 NUMBER OF VALENCE ORBITALS:       18   (   18A   )


 NUCLEAR REPULSION ENERGY   78.74537443


 Eigenvalues of metric

         1 0.515E-04 0.522E-04 0.835E-04 0.923E-04 0.234E-03 0.299E-03 0.311E-03 0.324E-03


 Contracted 2-electron integrals neglected if value below      1.0D-11
 AO integral compression algorithm  1   Integral accuracy      1.0D-11

     2758.279 MB (compressed) written to integral file ( 42.1%)


 NUMBER OF SORTED TWO-ELECTRON INTEGRALS:  730632651.     BUFFER LENGTH:  32768
 NUMBER OF SEGMENTS:  46  SEGMENT LENGTH:   15999984      RECORD LENGTH: 262144

 Memory used in sort:      16.29 MW

 SORT1 READ   818610096. AND WROTE   652617786. INTEGRALS IN   3759 RECORDS. CPU TIME:     6.23 SEC, REAL TIME:    10.68 SEC
 SORT2 READ   652617786. AND WROTE   730632651. INTEGRALS IN  10522 RECORDS. CPU TIME:     4.43 SEC, REAL TIME:    21.58 SEC

 FILE SIZES:   FILE 1:  2791.2 MBYTE,  FILE 4:  7883.3 MBYTE,   TOTAL:  10674.5 MBYTE

 OPERATOR DM      FOR CENTER  0  COORDINATES:    0.000000    0.000000    0.000000


 **********************************************************************************************************************************
 DATASETS  * FILE   NREC   LENGTH (MB)   RECORD NAMES
              1      19     2394.36       500      610      700      900      950      970     1000      129      960     1100   
                                          VAR    BASINP    GEOM    SYMINP    ZMAT    AOBASIS   BASIS     P2S    ABASIS      S 
                                         1400     1410     1200     1210     1080     1600     1650     1300     1700   
                                           T        V       H0       H01     AOSYM     SMH    MOLCAS    ERIS     OPER   

 PROGRAMS   *        TOTAL       INT
 CPU TIMES  *        24.91     24.82
 REAL TIME  *        55.33 SEC
 DISK USED  *         9.94 GB
 **********************************************************************************************************************************


 Program * Restricted Hartree-Fock

 Orbital guess generated from atomic densities. Full valence occupancy:   21

 Initial occupancy:  14

 NELEC=   28   SYM=1   MS2= 0   THRE=1.0D-08   THRD=3.2D-06   THRG=3.2D-06  HFMA2=F  DIIS_START=2   DIIS_MAX=10   DIIS_INCORE=F

 Level shifts:    0.00 (CLOSED)    0.00 (OPEN)    0.30 (GAP_MIN)

 ITER           ETOT              DE          GRAD        DDIFF     DIIS  NEXP   TIME(IT)  TIME(TOT)  DIAG
   1     -191.09170581    -191.09170581     0.00D+00     0.38D-01     0     0       3.55      6.67    start
   2     -191.14264504      -0.05093922     0.45D-02     0.49D-02     1     0       3.47     10.14    diag
   3     -191.15720111      -0.01455607     0.25D-02     0.16D-02     2     0       3.47     13.61    diag
   4     -191.15790946      -0.00070835     0.39D-03     0.36D-03     3     0       3.46     17.07    diag
   5     -191.15795634      -0.00004688     0.83D-04     0.85D-04     4     0       3.49     20.56    diag
   6     -191.15795884      -0.00000250     0.20D-04     0.23D-04     5     0       3.48     24.04    diag
   7     -191.15795917      -0.00000033     0.95D-05     0.76D-05     6     0       3.48     27.52    diag
   8     -191.15795919      -0.00000003     0.18D-05     0.27D-05     7     0       3.34     30.86    fixocc
   9     -191.15795920      -0.00000000     0.43D-06     0.57D-06     8     0       3.51     34.37    diag
  10     -191.15795920      -0.00000000     0.14D-06     0.15D-06     0     0       3.46     37.83    diag/orth

 Final occupancy:  14

 !RHF STATE 1.1 Energy               -191.157959196004
  RHF One-electron energy            -418.524686232732
  RHF Two-electron energy             148.621352602577
  RHF Kinetic energy                  190.899271510581
  RHF Nuclear energy                   78.745374434150
  RHF Virial quotient                  -1.001355100433

 !RHF STATE 1.1 Dipole moment           1.24248402    -0.00337251    -0.00094642
 Dipole moment /Debye                   3.15807938    -0.00857207    -0.00240555

 Orbital energies:

           1.1          2.1          3.1          4.1          5.1          6.1          7.1          8.1          9.1         10.1
    -20.593318   -20.529528   -11.251290    -1.381049    -1.332712    -0.905021    -0.741990    -0.678216    -0.611342    -0.599249

          11.1         12.1         13.1         14.1         15.1         16.1
     -0.572886    -0.539037    -0.478847    -0.426479     0.022045     0.041616


 HOMO     14.1    -0.426479 =     -11.6051eV
 LUMO     15.1     0.022045 =       0.5999eV
 LUMO-HOMO         0.448524 =      12.2050eV

 Orbitals saved in record  2100.2


 **********************************************************************************************************************************
 DATASETS  * FILE   NREC   LENGTH (MB)   RECORD NAMES
              1      19     2394.36       500      610      700      900      950      970     1000      129      960     1100   
                                          VAR    BASINP    GEOM    SYMINP    ZMAT    AOBASIS   BASIS     P2S    ABASIS      S 
                                         1400     1410     1200     1210     1080     1600     1650     1300     1700   
                                           T        V       H0       H01     AOSYM     SMH    MOLCAS    ERIS     OPER   

              2       4        1.71       700     1000      520     2100   
                                         GEOM     BASIS   MCVARS     RHF  

 PROGRAMS   *        TOTAL    HF-SCF       INT
 CPU TIMES  *        62.74     37.83     24.82
 REAL TIME  *       109.28 SEC
 DISK USED  *         9.94 GB
 **********************************************************************************************************************************


 PROGRAM * CCSD (Closed-shell coupled cluster)     Authors: C. Hampel, H.-J. Werner, 1991, M. Deegan, P.J. Knowles, 1992


 Convergence thresholds:  THRVAR = 1.00D-08  THRDEN = 1.00D-06

 Number of core orbitals:           3 (   3 )
 Number of closed-shell orbitals:  11 (  11 )
 Number of external orbitals:     262 ( 262 )

 Molecular orbitals read from record     2100.2  Type=RHF/CANONICAL  

 Number of N-1 electron functions:              11
 Number of N-2 electron functions:              66
 Number of singly external CSFs:              2882
 Number of doubly external CSFs:           4154403
 Total number of CSFs:                     4157286

 Length of J-op  integral file:               0.00 MB
 Length of K-op  integral file:               5.29 MB
 Length of 3-ext integral record:             0.00 MB

 Integral transformation finished. Total CPU:  17.18 sec, npass=  1  Memory used: 136.64 MW

 Reference energy:                   -191.15795920

 MP2 singlet pair energy:              -0.45813261
 MP2 triplet pair energy:              -0.25017875
 MP2 correlation energy:               -0.70831137
 MP2 total energy:                   -191.86627056

 SCS-MP2 correlation energy:           -0.70542592   (PS=  1.200000  PT=  0.333333)
 SCS-MP2 total energy:               -191.86338511

 ITER.      SQ.NORM     CORR.ENERGY   TOTAL ENERGY   ENERGY CHANGE        DEN1      VAR(S)    VAR(P)  DIIS     TIME  TIME/IT
   1      1.18326648    -0.72857403  -191.88653323    -0.02026266    -0.00397556  0.25D-02  0.29D-02  1  1    97.33    21.54
   2      1.19510684    -0.72994533  -191.88790452    -0.00137130    -0.01437598  0.30D-04  0.37D-03  2  2   115.49    22.67
   3      1.19929943    -0.73009244  -191.88805163    -0.00014711    -0.00271360  0.28D-04  0.16D-04  3  3   133.61    23.16
   4      1.20051288    -0.73006766  -191.88802685     0.00002478    -0.00057684  0.16D-05  0.19D-05  4  4   151.48    23.24
   5      1.20078821    -0.73006606  -191.88802525     0.00000160    -0.00008562  0.41D-06  0.15D-06  5  5   169.85    23.33
   6      1.20086925    -0.73005924  -191.88801844     0.00000682    -0.00001653  0.56D-07  0.15D-07  6  6   189.01    23.65
   7      1.20088771    -0.73005790  -191.88801709     0.00000134    -0.00000261  0.73D-08  0.33D-08  6  2   208.14    23.84
   8      1.20089234    -0.73005771  -191.88801690     0.00000019    -0.00000003  0.13D-08  0.42D-09  6  1   226.04    23.71
   9      1.20089404    -0.73005760  -191.88801679     0.00000011     0.00000035  0.14D-09  0.48D-10  6  3   244.09    23.57

 Norm of t1 vector:      0.06684110      S-energy:    -0.00000005      T1 diagnostic:  0.01007668
                                                                       D1 diagnostic:  0.02406423
                                                                       D2 diagnostic:  0.13770443 (internal)


 RESULTS
 =======

  Reference energy                   -191.157959196005
  CCSD singlet pair energy             -0.504514460387
  CCSD triplet pair energy             -0.225543089868
  CCSD correlation energy              -0.730057598025

 !CCSD total energy                  -191.888016794029

 Timing summary (sec):

 STEP                 CPU(USER)    SYS     CPU(TOT)    WALL
 Transformation         17.44      2.05     19.49     23.26
 CCSD iterations       226.77     11.23    238.00    212.58

 Program statistics:

 Available memory in ccsd:               805305870
 Min. memory needed in ccsd:              10991486
 Max. memory used in ccsd:                14686936
 Max. memory used in cckext:              10699979 ( 9 integral passes)



 **********************************************************************************************************************************
 DATASETS  * FILE   NREC   LENGTH (MB)   RECORD NAMES
              1      20     3210.68       500      610      700      900      950      970     1000      129      960     1100   
                                          VAR    BASINP    GEOM    SYMINP    ZMAT    AOBASIS   BASIS     P2S    ABASIS      S 
                                         1400     1410     1200     1210     1080     1600     1650     1300     1700     1380   
                                           T        V       H0       H01     AOSYM     SMH    MOLCAS    ERIS     OPER     JKOP   

              2       4        1.71       700     1000      520     2100   
                                         GEOM     BASIS   MCVARS     RHF  

 PROGRAMS   *        TOTAL      CCSD    HF-SCF       INT
 CPU TIMES  *       244.09    181.35     37.83     24.82
 REAL TIME  *       345.65 SEC
 DISK USED  *         9.94 GB
 **********************************************************************************************************************************

 Counterpoise: absolute minimum monomer separation=    -1.000 Bragg radius scale factor=     1.400 Number of monomers= 2

 Counterpoise  CCSD  energy

 Running default procedure: HF-SCF000  CCSD

 Assignment of unique atoms to monomers:
1-9     1     1     1     1     1     1     2     2     2

 *** Long output written to logfile /Users/sacpjk/current/PAPT/S66/9d185d99/08.molpro/run/1.molpro/1.log ***


 Description                       ENERGY          ENERGR          ENERGC
 Raw                        -191.88801679   -191.15795920   -191.88801679
 Dimer basis, monomer 1     -115.54667121   -115.09195916   -115.54667121
 Dimer basis, monomer 2      -76.33409765    -76.06048696    -76.33409765
 Monomer basis, monomer 1   -115.54635174   -115.09190072   -115.54635174
 Monomer basis, monomer 2    -76.33366600    -76.06040794    -76.33366600
 Counterpoise correction       0.00075112      0.00013746      0.00075112
 Counterpoise corrected     -191.88726568   -191.15782174   -191.88726568


 **********************************************************************************************************************************
 DATASETS  * FILE   NREC   LENGTH (MB)   RECORD NAMES
              1      18       31.42       500      610      700      900      950      970     1000      129      960     1100   
                                          VAR    BASINP    GEOM    SYMINP    ZMAT    AOBASIS   BASIS     P2S    ABASIS      S 
                                         1400     1410     1200     1210     1080     1600     1650     1700   
                                           T        V       H0       H01     AOSYM     SMH    MOLCAS    OPER   

              2      12        8.77       700     1000      520     2100     2101     2102      701     1001     2103      702   
                                         GEOM     BASIS   MCVARS     RHF      RHF      RHF     GEOM     BASIS     RHF     GEOM   
                                         1002     2104   
                                         BASIS     RHF  

 PROGRAMS   *        TOTALCOUNTERPOI    HF-SCF       INT      CCSD    HF-SCF       INT      CCSD    HF-SCF       INT      CCSD
 CPU TIMES  *       470.13      0.91      0.40      0.38     17.93      5.97      4.89     45.77     34.17      0.04     81.33
 REAL TIME  *       624.81 SEC
 DISK USED  *         9.94 GB
 **********************************************************************************************************************************

 Dump information in style XML to xml output                                                                      

 Orbitals will not be exported.

 **********************************************************************************************************************************

 CCSD/aug-cc-pVTZ energy=   -191.887265677638

            CCSD          HF-SCF            CCSD          HF-SCF            CCSD          HF-SCF            CCSD          HF-SCF
    -76.33366600    -76.06040794   -115.54635174   -115.09190072    -76.33409765    -76.06048696   -115.54667121   -115.09195916
 **********************************************************************************************************************************
 Molpro calculation terminated
