
 Working directory              : /var/folders/2v/xbgp75_9785319ghcgb4zr4r0000gp/T//molpro.8PACiZOwX8/
 Global scratch directory       : /var/folders/2v/xbgp75_9785319ghcgb4zr4r0000gp/T//molpro.8PACiZOwX8/
 Wavefunction directory         : /Users/sacpjk/wfu/
 Main file repository           : /var/folders/2v/xbgp75_9785319ghcgb4zr4r0000gp/T//molpro.8PACiZOwX8/

 id        : peterk

 Nodes                        nprocs
 Cardiff-University-G34YLXT77Y    1
 GA implementation: MPI file
 GA implementation (serial work in mppx): MPI file

 Using customized tuning parameters: mindgm=1; mindgv=20; mindgc=4; mindgr=1; noblas=0; minvec=7
 default implementation of scratch files=df  


 Variables initialized (1032), CPU time= 0.00 sec
 
 symmetry,nosym
 
 
 geometry={
            9
     C          0.64643893      0.66204762      0.00000000
     C          0.62059167     -0.72735291      0.00000000
     O         -1.43762017     -1.04803439      0.00000000
     N         -1.81431293      0.12667382      0.00000000
     N         -1.28271604      1.17289417      0.00000000
     H          0.87969100      1.19136240      0.91554310
     H          0.87969100      1.19136240     -0.91554310
     H          0.75411826     -1.28447655      0.91762992
     H          0.75411826     -1.28447655     -0.91762992
 }
 basis=cc-pVTZ
 
 
 
 hf; hf; papt; mp4
 
 
 
 {put,xml;noorbitals,nobasis}
 Commands initialized (841), CPU time= 0.01 sec, 704 directives.
 Default parameters read. Elapsed time= 0.99 sec

 Checking input...
 Passed
1


                                         ***  PROGRAM SYSTEM MOLPRO  ***
                                       Copyright, TTI GmbH Stuttgart, 2015
                                    Version 2023.1 linked Tue Jun  6 09:54:11 2023


 **********************************************************************************************************************************
 LABEL *                                                                                                                                                                 
  64 bit serial version                                                                  DATE: 11-Jun-23          TIME: 14:14:16  
 **********************************************************************************************************************************

 SHA1:             8ebb0dd001088a5c915591db1a321413035db0b1
 **********************************************************************************************************************************

 Memory per process:       393 MW
 Total memory per node:    524 MW
 Total GA space:           131 MW

 GA preallocation disabled
 GA check enabled

 Variable memory set to 393.2 MW

 ZSYMEL=NOSYM


 Geometry recognized as XYZ

 SETTING BASIS          =    CC-PVTZ


 Recomputing integrals since basis changed


 Using spherical harmonics

 Library entry C      S cc-pVTZ              selected for orbital group  1
 Library entry C      P cc-pVTZ              selected for orbital group  1
 Library entry C      D cc-pVTZ              selected for orbital group  1
 Library entry C      F cc-pVTZ              selected for orbital group  1
 Library entry O      S cc-pVTZ              selected for orbital group  2
 Library entry O      P cc-pVTZ              selected for orbital group  2
 Library entry O      D cc-pVTZ              selected for orbital group  2
 Library entry O      F cc-pVTZ              selected for orbital group  2
 Library entry N      S cc-pVTZ              selected for orbital group  3
 Library entry N      P cc-pVTZ              selected for orbital group  3
 Library entry N      D cc-pVTZ              selected for orbital group  3
 Library entry N      F cc-pVTZ              selected for orbital group  3
 Library entry H      S cc-pVTZ              selected for orbital group  4
 Library entry H      P cc-pVTZ              selected for orbital group  4
 Library entry H      D cc-pVTZ              selected for orbital group  4


 PROGRAM * SEWARD (Integral evaluation for generally contracted gaussian basis sets)     Author: Roland Lindh, 1990

 Geometry written to block  1 of record 700


 Point group  C1  



 ATOMIC COORDINATES

 NR  ATOM    CHARGE       X              Y              Z

   1  C       6.00    1.221592534    1.251088683    0.000000000
   2  C       6.00    1.172748292   -1.374497796    0.000000000
   3  O       8.00   -2.716708393   -1.980497966    0.000000000
   4  N       7.00   -3.428554542    0.239378827    0.000000000
   5  N       7.00   -2.423982011    2.216448754    0.000000000
   6  H       1.00    1.662375064    2.251348651    1.730125714
   7  H       1.00    1.662375064    2.251348651   -1.730125714
   8  H       1.00    1.425076977   -2.427308893    1.734069233
   9  H       1.00    1.425076977   -2.427308893   -1.734069233

 Bond lengths in Bohr (Angstrom)

 1-2  2.626040769  1-5  3.771224447  1-6  2.046495597  1-7  2.046495597  2-8  2.044279109
     ( 1.389640930)     ( 1.995646035)     ( 1.082958832)     ( 1.082958832)     ( 1.081785917)

 2-9  2.044279109  3-4  2.331218119  4-5  2.217649988
     ( 1.081785917)     ( 1.233627502)     ( 1.173529835)

 Bond angles

  1-2-8  120.83841687   1-2-9  120.83841687   1-5-4  102.10396580   2-1-5  103.76593409

  2-1-6  119.51746247   2-1-7  119.51746247   3-4-5  135.28489323   5-1-6   94.76637282

  5-1-7   94.76637282   6-1-7  115.43155810   8-2-9  116.04467695

 NUCLEAR CHARGE:                   38
 NUMBER OF PRIMITIVE AOS:         303
 NUMBER OF SYMMETRY AOS:          274
 NUMBER OF CONTRACTIONS:          206   (  206A   )
 NUMBER OF INNER CORE ORBITALS:     0   (    0A   )
 NUMBER OF OUTER CORE ORBITALS:     5   (    5A   )
 NUMBER OF VALENCE ORBITALS:       24   (   24A   )


 NUCLEAR REPULSION ENERGY  166.89563664


 Eigenvalues of metric

         1 0.436E-03 0.898E-03 0.102E-02 0.137E-02 0.146E-02 0.176E-02 0.179E-02 0.216E-02


 Contracted 2-electron integrals neglected if value below      1.0D-11
 AO integral compression algorithm  1   Integral accuracy      1.0D-11

     764.412 MB (compressed) written to integral file ( 38.2%)


 NUMBER OF SORTED TWO-ELECTRON INTEGRALS:  227303181.     BUFFER LENGTH:  32768
 NUMBER OF SEGMENTS:  15  SEGMENT LENGTH:   15999503      RECORD LENGTH: 524288

 Memory used in sort:      16.56 MW

 SORT1 READ   250416863. AND WROTE   184170290. INTEGRALS IN    535 RECORDS. CPU TIME:     1.73 SEC, REAL TIME:     2.28 SEC
 SORT2 READ   184170290. AND WROTE   227303181. INTEGRALS IN   2916 RECORDS. CPU TIME:     1.33 SEC, REAL TIME:     1.75 SEC

 FILE SIZES:   FILE 1:   796.1 MBYTE,  FILE 4:  2244.0 MBYTE,   TOTAL:   3040.1 MBYTE

 OPERATOR DM      FOR CENTER  0  COORDINATES:    0.000000    0.000000    0.000000


 **********************************************************************************************************************************
 DATASETS  * FILE   NREC   LENGTH (MB)   RECORD NAMES
              1      19      695.06       500      610      700      900      950      970     1000      129      960     1100   
                                          VAR    BASINP    GEOM    SYMINP    ZMAT    AOBASIS   BASIS     P2S    ABASIS      S 
                                         1400     1410     1200     1210     1080     1600     1650     1300     1700   
                                           T        V       H0       H01     AOSYM     SMH    MOLCAS    ERIS     OPER   

 PROGRAMS   *        TOTAL       INT
 CPU TIMES  *         8.47      8.36
 REAL TIME  *        13.29 SEC
 DISK USED  *         2.83 GB
 **********************************************************************************************************************************


 Program * Restricted Hartree-Fock

 Orbital guess generated from atomic densities. Full valence occupancy:   29

 Initial occupancy:  19

 NELEC=   38   SYM=1   MS2= 0   THRE=1.0D-08   THRD=3.2D-06   THRG=3.2D-06  HFMA2=F  DIIS_START=2   DIIS_MAX=10   DIIS_INCORE=F

 Level shifts:    0.00 (CLOSED)    0.00 (OPEN)    0.30 (GAP_MIN)

 ITER           ETOT              DE          GRAD        DDIFF     DIIS  NEXP   TIME(IT)  TIME(TOT)  DIAG
   1     -261.61445329    -261.61445329     0.00D+00     0.55D-01     0     0       0.95      1.86    start
   2     -261.66620448      -0.05175119     0.56D-02     0.78D-02     1     0       0.96      2.82    diag
   3     -261.72566099      -0.05945651     0.47D-02     0.37D-02     2     0       0.97      3.79    diag
   4     -261.72798606      -0.00232506     0.55D-03     0.83D-03     3     0       0.97      4.76    diag
   5     -261.72845913      -0.00047308     0.24D-03     0.36D-03     4     0       1.01      5.77    diag
   6     -261.72863228      -0.00017315     0.12D-03     0.22D-03     5     0       0.98      6.75    diag
   7     -261.72872561      -0.00009333     0.90D-04     0.17D-03     6     0       1.09      7.84    diag
   8     -261.72876550      -0.00003989     0.41D-04     0.13D-03     7     0       0.98      8.82    fixocc
   9     -261.72877927      -0.00001376     0.23D-04     0.88D-04     8     0       1.02      9.84    diag
  10     -261.72878285      -0.00000358     0.12D-04     0.48D-04     9     0       0.99     10.83    diag/orth
  11     -261.72878341      -0.00000056     0.46D-05     0.20D-04     9     0       1.06     11.89    diag
  12     -261.72878347      -0.00000006     0.17D-05     0.56D-05     9     0       1.14     13.03    diag
  13     -261.72878347      -0.00000001     0.61D-06     0.17D-05     9     0       1.23     14.26    diag
  14     -261.72878347      -0.00000000     0.24D-06     0.33D-06     0     0       1.12     15.38    diag

 Final occupancy:  19

 !RHF STATE 1.1 Energy               -261.728783473396
  RHF One-electron energy            -686.720235527916
  RHF Two-electron energy             258.095815419003
  RHF Kinetic energy                  261.263580421184
  RHF Nuclear energy                  166.895636635517
  RHF Virial quotient                  -1.001780588980

 !RHF STATE 1.1 Dipole moment           0.89200093    -0.02454497    -0.00000000
 Dipole moment /Debye                   2.26724022    -0.06238708    -0.00000000

 Orbital energies:

           1.1          2.1          3.1          4.1          5.1          6.1          7.1          8.1          9.1         10.1
    -20.620971   -15.742717   -15.669992   -11.289132   -11.254353    -1.541276    -1.320052    -1.060615    -0.839273    -0.809727

          11.1         12.1         13.1         14.1         15.1         16.1         17.1         18.1         19.1         20.1
     -0.707867    -0.697412    -0.654952    -0.649019    -0.601271    -0.542440    -0.448753    -0.448148    -0.366335     0.076765

          21.1
      0.144064


 HOMO     19.1    -0.366335 =      -9.9685eV
 LUMO     20.1     0.076765 =       2.0889eV
 LUMO-HOMO         0.443100 =      12.0574eV

 Orbitals saved in record  2100.2


 **********************************************************************************************************************************
 DATASETS  * FILE   NREC   LENGTH (MB)   RECORD NAMES
              1      19      695.06       500      610      700      900      950      970     1000      129      960     1100   
                                          VAR    BASINP    GEOM    SYMINP    ZMAT    AOBASIS   BASIS     P2S    ABASIS      S 
                                         1400     1410     1200     1210     1080     1600     1650     1300     1700   
                                           T        V       H0       H01     AOSYM     SMH    MOLCAS    ERIS     OPER   

              2       4        1.19       700     1000      520     2100   
                                         GEOM     BASIS   MCVARS     RHF  

 PROGRAMS   *        TOTAL    HF-SCF       INT
 CPU TIMES  *        23.85     15.38      8.36
 REAL TIME  *        31.60 SEC
 DISK USED  *         2.83 GB
 **********************************************************************************************************************************


 Program * Restricted Hartree-Fock

 Molecular orbitals read from record     2100.2  Type=RHF/CANONICAL  

 Initial occupancy:  19

 NELEC=   38   SYM=1   MS2= 0   THRE=1.0D-08   THRD=3.2D-06   THRG=3.2D-06  HFMA2=F  DIIS_START=2   DIIS_MAX=10   DIIS_INCORE=F

 Level shifts:    0.00 (CLOSED)    0.00 (OPEN)    0.30 (GAP_MIN)

 ITER           ETOT              DE          GRAD        DDIFF     DIIS  NEXP   TIME(IT)  TIME(TOT)  DIAG
   1     -261.72878347    -261.72878347     0.00D+00     0.57D-01     0     0       1.14      1.14    start
   2     -261.72878347      -0.00000000     0.14D-06     0.23D-06     1     0       1.16      2.30    diag

 Final occupancy:  19

 !RHF STATE 1.1 Energy               -261.728783473621
  RHF One-electron energy            -686.720237052168
  RHF Two-electron energy             258.095816943029
  RHF Kinetic energy                  261.263588258439
  RHF Nuclear energy                  166.895636635517
  RHF Virial quotient                  -1.001780558930

 !RHF STATE 1.1 Dipole moment           0.89195626    -0.02450127     0.00000000
 Dipole moment /Debye                   2.26712668    -0.06227601     0.00000000

 Orbital energies:

           1.1          2.1          3.1          4.1          5.1          6.1          7.1          8.1          9.1         10.1
    -20.620977   -15.742710   -15.669985   -11.289137   -11.254354    -1.541275    -1.320050    -1.060616    -0.839274    -0.809728

          11.1         12.1         13.1         14.1         15.1         16.1         17.1         18.1         19.1         20.1
     -0.707866    -0.697412    -0.654951    -0.649020    -0.601271    -0.542440    -0.448753    -0.448149    -0.366335     0.076765

          21.1
      0.144064


 HOMO     19.1    -0.366335 =      -9.9685eV
 LUMO     20.1     0.076765 =       2.0889eV
 LUMO-HOMO         0.443100 =      12.0574eV

 Orbitals saved in record  2101.2


 **********************************************************************************************************************************
 DATASETS  * FILE   NREC   LENGTH (MB)   RECORD NAMES
              1      19      695.06       500      610      700      900      950      970     1000      129      960     1100   
                                          VAR    BASINP    GEOM    SYMINP    ZMAT    AOBASIS   BASIS     P2S    ABASIS      S 
                                         1400     1410     1200     1210     1080     1600     1650     1300     1700   
                                           T        V       H0       H01     AOSYM     SMH    MOLCAS    ERIS     OPER   

              2       5        2.43       700     1000      520     2100     2101   
                                         GEOM     BASIS   MCVARS     RHF      RHF  

 PROGRAMS   *        TOTAL    HF-SCF    HF-SCF       INT
 CPU TIMES  *        26.18      2.32     15.38      8.36
 REAL TIME  *        34.72 SEC
 DISK USED  *         2.83 GB
 **********************************************************************************************************************************


 PROGRAM * PAPT (Closed-shell)     Authors: C. Hampel, H.-J. Werner, 1991, P.J. Knowles, 2021


 Convergence thresholds:  THRVAR = 1.00D-08  THRDEN = 1.00D-06

 Number of core orbitals:           5 (   5 )
 Number of closed-shell orbitals:  14 (  14 )
 Number of external orbitals:     187 ( 187 )

 Molecular orbitals read from record     2101.2  Type=RHF/CANONICAL  

 Number of N-1 electron functions:              14
 Number of N-2 electron functions:             105
 Number of singly external CSFs:              2618
 Number of doubly external CSFs:           3428271
 Total number of CSFs:                     3430890

 Length of J-op  integral file:               0.00 MB
 Length of K-op  integral file:               2.98 MB

 Integral transformation finished. Total CPU:   2.44 sec, npass=  1  Memory used:   8.27 MW

 Reference energy:                   -261.72878347

                        CORR.ENERGY   TOTAL ENERGY   ENERGY CHANGE
 MP2:                   -1.02208614  -262.75086961    -1.02208614

 SCS-MP2 correlation energy:           -0.99593007   (PS=  1.200000  PT=  0.333333)
 SCS-MP2 total energy:               -262.72471354
 Iteration:   1     0.3936D+00
 Iteration:   2     0.6958D+00
 Iteration:   3     0.1162D+00
 Iteration:   4     0.9836D-01
 Iteration:   5     0.7488D-01
 Iteration:   6     0.3799D-01
 Iteration:   7     0.3026D+00
 Iteration:   8     0.1867D-01
 Iteration:   9     0.2795D-01
 Iteration:  10     0.1040D-01
 Iteration:  11     0.6564D-02
 Iteration:  12     0.8644D-02
 Iteration:  13     0.2399D-02
 Iteration:  14     0.2294D+00
 Iteration:  15     0.9892D-03
 Iteration:  16     0.1181D-02
 Iteration:  17     0.6222D-03
 Iteration:  18     0.4967D-03
 Iteration:  19     0.3349D-03
 Iteration:  20     0.1890D-03
 Iteration:  21     0.3667D-03
 Iteration:  22     0.6294D-04
 PAPT operator written to  7000.1
 PAPT orbitals and eigenvalues written to  7000.2

 MP3(D):                -0.99847750  -262.72726097     0.02360864



 RESULTS
 =======

  Reference energy                   -261.728783473622
  MP3 singlet pair energy              -0.655246195068
  MP3 triplet pair energy              -0.343231303347
  MP3 correlation energy               -0.998477498414

 !MP3 total energy                   -262.727260972036

 Timing summary (sec):

 STEP                 CPU(USER)    SYS     CPU(TOT)    WALL
 Transformation          2.61      0.24      2.85      3.15
 CCSD iterations        44.81      0.52     45.33     21.44

 Program statistics:

 Available memory in ccsd:               393215197
 Min. memory needed in ccsd:               8721282
 Max. memory used in ccsd:                11801541
 Max. memory used in cckext:               9335839 ( 1 integral passes)



 **********************************************************************************************************************************
 DATASETS  * FILE   NREC   LENGTH (MB)   RECORD NAMES
              1      21      746.95       500      610      700      900      950      970     1000      129      960     1100   
                                          VAR    BASINP    GEOM    SYMINP    ZMAT    AOBASIS   BASIS     P2S    ABASIS      S 
                                         1400     1410     1200     1210     1080     1600     1650     1300     1700     1380   
                                           T        V       H0       H01     AOSYM     SMH    MOLCAS    ERIS     OPER     JKOP   
                                         7000   
                                        PAPT AO    

              2       6        3.50       700     1000      520     2100     2101     7000   
                                         GEOM     BASIS   MCVARS     RHF      RHF     PAPT   

 PROGRAMS   *        TOTAL      PAPT    HF-SCF    HF-SCF       INT
 CPU TIMES  *        47.34     21.16      2.32     15.38      8.36
 REAL TIME  *        59.72 SEC
 DISK USED  *         2.83 GB
 **********************************************************************************************************************************


 PROGRAM * MP4 (Closed-shell)     Authors: C. Hampel, H.-J. Werner, 1991, M. Deegan, P.J. Knowles, 1992


 Convergence thresholds:  THRVAR = 1.00D-08  THRDEN = 1.00D-06

 MP4(T)     terms to be evaluated (factor= 0.000)


 Number of core orbitals:           5 (   5 )
 Number of closed-shell orbitals:  14 (  14 )
 Number of external orbitals:     187 ( 187 )

 Molecular orbitals read from record     7000.2  Type=PAPT/CANONICAL (state 1.1)

 Number of N-1 electron functions:              14
 Number of N-2 electron functions:             105
 Number of singly external CSFs:              2618
 Number of doubly external CSFs:           3428271
 Total number of CSFs:                     3430890

 Length of J-op  integral file:               0.00 MB
 Length of K-op  integral file:               2.98 MB

 Memory could be reduced to 116.68 Mwords without degradation in triples

 Integral transformation finished. Total CPU:   6.35 sec, npass=  1  Memory used:  74.15 MW
 Orbital energies read from record       7000.2  Type=PAPT/CANONICAL (state 1.1)

 Reference energy:                   -261.72878347

                        CORR.ENERGY   TOTAL ENERGY   ENERGY CHANGE
 MP2:                   -1.01298399  -262.74176746    -1.01298399

 SCS-MP2 correlation energy:           -0.99374433   (PS=  1.200000  PT=  0.333333)
 SCS-MP2 total energy:               -262.72252780

 MP3(D):                -1.01313635  -262.74191982    -0.00015236
 MP4(DQ):               -0.99712991  -262.72591339     0.01600644
 MP4(SDQ):              -1.01035072  -262.73913419    -0.01322080

 Norm of t1 vector:      0.10508700      S-energy:    -0.01322080      T1 diagnostic:  0.01404284

 Largest off-diagonal element in interal  block of Fock matrix:  0.16D+00
 Largest off-diagonal element in external block of Fock matrix:  0.41D+00


 Total CPU time for triples:    182.40 sec


 RESULTS
 =======

  Reference energy                   -261.728783473622
  MP4(SDQ) singlet pair energy         -0.650125895023
  MP4(SDQ) triplet pair energy         -0.347004019269
  MP4(SDQ) correlation energy          -1.010350715169

  Triples contribution                 -0.063813458792
  Total correlation energy             -1.074164173961

  MP4(SDQ) total energy              -262.739134188791
 !MP4(SDTQ) total energy             -262.802947647582

 Timing summary (sec):

 STEP                 CPU(USER)    SYS     CPU(TOT)    WALL
 Transformation          7.61      0.64      8.25      8.64
 CCSD iterations        59.39      0.40     59.79     13.22
 Triples               182.40      8.58    190.98    203.08

 Program statistics:

 Available memory in ccsd:               393215197
 Min. memory needed in ccsd:               8721282
 Max. memory used in ccsd:                11801541
 Max. memory used in cckext:               9335839 ( 1 integral passes)



 **********************************************************************************************************************************
 DATASETS  * FILE   NREC   LENGTH (MB)   RECORD NAMES
              1      22     1098.05       500      610      700      900      950      970     1000      129      960     1100   
                                          VAR    BASINP    GEOM    SYMINP    ZMAT    AOBASIS   BASIS     P2S    ABASIS      S 
                                         1400     1410     1200     1210     1080     1600     1650     1300     1700     1380   
                                           T        V       H0       H01     AOSYM     SMH    MOLCAS    ERIS     OPER     JKOP   
                                         7000     1380(1)
                                        PAPT AO   JKOP   

              2       6        3.50       700     1000      520     2100     2101     7000   
                                         GEOM     BASIS   MCVARS     RHF      RHF     PAPT   

 PROGRAMS   *        TOTAL       MP4      PAPT    HF-SCF    HF-SCF       INT
 CPU TIMES  *       249.32    201.98     21.16      2.32     15.38      8.36
 REAL TIME  *       284.94 SEC
 DISK USED  *         2.83 GB
 **********************************************************************************************************************************

 Dump information in style XML to xml output                                                                      

 Orbitals will not be exported.

 **********************************************************************************************************************************

 MP4/cc-pVTZ energy=   -262.802947647582

             MP4            PAPT          HF-SCF          HF-SCF
   -262.80294765   -262.72726097   -261.72878347   -261.72878347
 **********************************************************************************************************************************
 Molpro calculation terminated
