
 Working directory              : /var/folders/2v/xbgp75_9785319ghcgb4zr4r0000gp/T//molpro.dnZtikIcBd/
 Global scratch directory       : /var/folders/2v/xbgp75_9785319ghcgb4zr4r0000gp/T//molpro.dnZtikIcBd/
 Wavefunction directory         : /Users/sacpjk/wfu/
 Main file repository           : /var/folders/2v/xbgp75_9785319ghcgb4zr4r0000gp/T//molpro.dnZtikIcBd/

 id        : peterk

 Nodes                        nprocs
 Cardiff-University-G34YLXT77Y    1
 GA implementation: MPI file
 GA implementation (serial work in mppx): MPI file

 Using customized tuning parameters: mindgm=1; mindgv=20; mindgc=4; mindgr=1; noblas=0; minvec=7
 default implementation of scratch files=df  


 Variables initialized (1032), CPU time= 0.00 sec
 
 symmetry,nosym
 
 
 geometry={
            9
     C         -0.71355475      0.00000000     -0.69976629
     C         -1.24098505      0.00000000      0.55889447
     S          0.00000000      0.00000000      1.76913511
     C          1.24098505      0.00000000      0.55889447
     C          0.71355475      0.00000000     -0.69976629
     H         -1.31813560      0.00000000     -1.59705982
     H         -2.27881957      0.00000000      0.85336408
     H          2.27881957      0.00000000      0.85336408
     H          1.31813560      0.00000000     -1.59705982
 }
 basis=cc-pVTZ
 
 
 
 hf; mp2
 
 
 
 {put,xml;noorbitals,nobasis}
 Commands initialized (841), CPU time= 0.01 sec, 704 directives.
 Default parameters read. Elapsed time= 0.60 sec

 Checking input...
 Passed
1


                                         ***  PROGRAM SYSTEM MOLPRO  ***
                                       Copyright, TTI GmbH Stuttgart, 2015
                                    Version 2023.1 linked Tue Jun  6 09:54:11 2023


 **********************************************************************************************************************************
 LABEL *                                                                                                                                                                 
  64 bit serial version                                                                  DATE: 10-Jun-23          TIME: 15:08:12  
 **********************************************************************************************************************************

 SHA1:             8ebb0dd001088a5c915591db1a321413035db0b1
 **********************************************************************************************************************************

 Memory per process:       805 MW
 Total memory per node:   1074 MW
 Total GA space:           268 MW

 GA preallocation disabled
 GA check enabled

 Variable memory set to 805.3 MW

 ZSYMEL=NOSYM


 Geometry recognized as XYZ

 SETTING BASIS          =    CC-PVTZ


 Recomputing integrals since basis changed


 Using spherical harmonics

 Library entry C      S cc-pVTZ              selected for orbital group  1
 Library entry C      P cc-pVTZ              selected for orbital group  1
 Library entry C      D cc-pVTZ              selected for orbital group  1
 Library entry C      F cc-pVTZ              selected for orbital group  1
 Library entry S      S cc-pVTZ              selected for orbital group  2
 Library entry S      P cc-pVTZ              selected for orbital group  2
 Library entry S      D cc-pVTZ              selected for orbital group  2
 Library entry S      F cc-pVTZ              selected for orbital group  2
 Library entry H      S cc-pVTZ              selected for orbital group  4
 Library entry H      P cc-pVTZ              selected for orbital group  4
 Library entry H      D cc-pVTZ              selected for orbital group  4


 PROGRAM * SEWARD (Integral evaluation for generally contracted gaussian basis sets)     Author: Roland Lindh, 1990

 Geometry written to block  1 of record 700


 Point group  C1  



 ATOMIC COORDINATES

 NR  ATOM    CHARGE       X              Y              Z

   1  C       6.00   -1.348423052    0.000000000   -1.322366639
   2  C       6.00   -2.345121869    0.000000000    1.056157481
   3  S      16.00    0.000000000    0.000000000    3.343180835
   4  C       6.00    2.345121869    0.000000000    1.056157481
   5  C       6.00    1.348423052    0.000000000   -1.322366639
   6  H       1.00   -2.490915279    0.000000000   -3.018005664
   7  H       1.00   -4.306344875    0.000000000    1.612624396
   8  H       1.00    4.306344875    0.000000000    1.612624396
   9  H       1.00    2.490915279    0.000000000   -3.018005664

 Bond lengths in Bohr (Angstrom)

 1-2  2.578911693  1-5  2.696846105  1-6  2.044622261  2-3  3.275678923  2-7  2.038639523
     ( 1.364701297)     ( 1.427109500)     ( 1.081967506)     ( 1.733414636)     ( 1.078801577)

 3-4  3.275678923  4-5  2.578911693  4-8  2.038639523  5-9  2.044622261
     ( 1.733414636)     ( 1.364701297)     ( 1.078801577)     ( 1.081967506)

 Bond angles

  1-2-3  111.54573147   1-2-7  128.57615248   1-5-4  112.73567595   1-5-9  123.97140770

  2-1-5  112.73567595   2-1-6  123.29291635   2-3-4   91.43718515   3-2-7  119.87811605

  3-4-5  111.54573147   3-4-8  119.87811605   4-5-9  123.29291635   5-1-6  123.97140770

  5-4-8  128.57615248

 NUCLEAR CHARGE:                   44
 NUMBER OF PRIMITIVE AOS:         320
 NUMBER OF SYMMETRY AOS:          291
 NUMBER OF CONTRACTIONS:          210   (  210A   )
 NUMBER OF INNER CORE ORBITALS:     1   (    1A   )
 NUMBER OF OUTER CORE ORBITALS:     8   (    8A   )
 NUMBER OF VALENCE ORBITALS:       24   (   24A   )


 NUCLEAR REPULSION ENERGY  202.03892472

 EXTRA SYMMETRY OF AOS IN SYMMETRY 1:   1 1 1 1 1 2 1 1 2 1   1 2 1 1 2 1 1 2 1 2   1 1 2 1 2 1 1 2 2 1   1 1 1 1 1 2 1 1 2 1
                                        1 2 1 1 2 1 1 2 1 2   1 1 2 1 2 1 1 2 2 1   1 1 1 1 1 1 2 1 1 2   1 1 2 1 1 2 1 1 2 1
                                        1 2 1 2 1 1 2 1 2 1   1 2 2 1 1 1 1 1 1 2   1 1 2 1 1 2 1 1 2 1   1 2 1 2 1 1 2 1 2 1
                                        1 2 2 1 1 1 1 1 1 2   1 1 2 1 1 2 1 1 2 1   1 2 1 2 1 1 2 1 2 1   1 2 2 1 1 1 1 1 2 1
                                        1 2 1 1 2 1 1 2 1 1   1 1 2 1 1 2 1 1 2 1   1 2 1 1 1 1 2 1 1 2   1 1 2 1 1 2 1 1 1 1
                                        2 1 1 2 1 1 2 1 1 2

 Eigenvalues of metric

         1 0.169E-03 0.556E-03 0.885E-03 0.969E-03 0.114E-02 0.126E-02 0.137E-02 0.138E-02


 Contracted 2-electron integrals neglected if value below      1.0D-11
 AO integral compression algorithm  1   Integral accuracy      1.0D-11

     538.182 MB (compressed) written to integral file ( 25.0%)


 NUMBER OF SORTED TWO-ELECTRON INTEGRALS:  245433090.     BUFFER LENGTH:  32768
 NUMBER OF SEGMENTS:  16  SEGMENT LENGTH:   15999762      RECORD LENGTH: 524288

 Memory used in sort:      16.56 MW

 SORT1 READ   268749321. AND WROTE   116712568. INTEGRALS IN    342 RECORDS. CPU TIME:     1.63 SEC, REAL TIME:     2.10 SEC
 SORT2 READ   116712568. AND WROTE   245433090. INTEGRALS IN   2053 RECORDS. CPU TIME:     1.19 SEC, REAL TIME:     1.55 SEC

 FILE SIZES:   FILE 1:   570.0 MBYTE,  FILE 4:  1434.5 MBYTE,   TOTAL:   2004.5 MBYTE

 OPERATOR DM      FOR CENTER  0  COORDINATES:    0.000000    0.000000    0.000000


 **********************************************************************************************************************************
 DATASETS  * FILE   NREC   LENGTH (MB)   RECORD NAMES
              1      19      483.90       500      610      700      900      950      970     1000      129      960     1100   
                                          VAR    BASINP    GEOM    SYMINP    ZMAT    AOBASIS   BASIS     P2S    ABASIS      S 
                                         1400     1410     1200     1210     1080     1600     1650     1300     1700   
                                           T        V       H0       H01     AOSYM     SMH    MOLCAS    ERIS     OPER   

 PROGRAMS   *        TOTAL       INT
 CPU TIMES  *         9.48      9.37
 REAL TIME  *        13.37 SEC
 DISK USED  *         1.87 GB
 **********************************************************************************************************************************


 Program * Restricted Hartree-Fock

 Orbital guess generated from atomic densities. Full valence occupancy:   33

 Initial occupancy:  22

 NELEC=   44   SYM=1   MS2= 0   THRE=1.0D-08   THRD=3.2D-06   THRG=3.2D-06  HFMA2=F  DIIS_START=2   DIIS_MAX=10   DIIS_INCORE=F

 Level shifts:    0.00 (CLOSED)    0.00 (OPEN)    0.30 (GAP_MIN)

 ITER           ETOT              DE          GRAD        DDIFF     DIIS  NEXP   TIME(IT)  TIME(TOT)  DIAG
   1     -551.31663044    -551.31663044     0.00D+00     0.60D-01     0     0       0.96      1.86    start
   2     -551.36252737      -0.04589693     0.31D-02     0.51D-02     1     0       0.97      2.83    diag
   3     -551.37672890      -0.01420153     0.18D-02     0.20D-02     2     0       0.98      3.81    diag
   4     -551.37872954      -0.00200064     0.46D-03     0.88D-03     3     0       0.96      4.77    diag
   5     -551.37890657      -0.00017704     0.11D-03     0.22D-03     4     0       0.98      5.75    diag
   6     -551.37895782      -0.00005124     0.53D-04     0.12D-03     5     0       0.95      6.70    diag
   7     -551.37897058      -0.00001276     0.24D-04     0.72D-04     6     0       0.96      7.66    diag
   8     -551.37897142      -0.00000084     0.62D-05     0.23D-04     7     0       0.96      8.62    fixocc
   9     -551.37897145      -0.00000003     0.16D-05     0.35D-05     8     0       0.98      9.60    diag
  10     -551.37897145      -0.00000000     0.55D-06     0.13D-05     9     0       1.02     10.62    diag/orth
  11     -551.37897145      -0.00000000     0.14D-06     0.24D-06     0     0       0.97     11.59    diag

 Final occupancy:  22

 !RHF STATE 1.1 Energy               -551.378971453702
  RHF One-electron energy           -1157.631175371128
  RHF Two-electron energy             404.213279197291
  RHF Kinetic energy                  551.074999754286
  RHF Nuclear energy                  202.038924720135
  RHF Virial quotient                  -1.000551597695

 !RHF STATE 1.1 Dipole moment          -0.00000000     0.00000000    -0.31097260
 Dipole moment /Debye                  -0.00000000     0.00000000    -0.79041351

 Orbital energies:

           1.1          2.1          3.1          4.1          5.1          6.1          7.1          8.1          9.1         10.1
    -91.981275   -11.261960   -11.261930   -11.238270   -11.237263    -8.981897    -6.662879    -6.662322    -6.661667    -1.166144

          11.1         12.1         13.1         14.1         15.1         16.1         17.1         18.1         19.1         20.1
     -0.982523    -0.980687    -0.766600    -0.748183    -0.695668    -0.575893    -0.550654    -0.522950    -0.519667    -0.471519

          21.1         22.1         23.1         24.1
     -0.344931    -0.327414     0.117014     0.151808


 HOMO     22.1    -0.327414 =      -8.9094eV
 LUMO     23.1     0.117014 =       3.1841eV
 LUMO-HOMO         0.444428 =      12.0935eV

 Orbitals saved in record  2100.2


 **********************************************************************************************************************************
 DATASETS  * FILE   NREC   LENGTH (MB)   RECORD NAMES
              1      19      483.90       500      610      700      900      950      970     1000      129      960     1100   
                                          VAR    BASINP    GEOM    SYMINP    ZMAT    AOBASIS   BASIS     P2S    ABASIS      S 
                                         1400     1410     1200     1210     1080     1600     1650     1300     1700   
                                           T        V       H0       H01     AOSYM     SMH    MOLCAS    ERIS     OPER   

              2       4        1.22       700     1000      520     2100   
                                         GEOM     BASIS   MCVARS     RHF  

 PROGRAMS   *        TOTAL    HF-SCF       INT
 CPU TIMES  *        21.08     11.60      9.37
 REAL TIME  *        28.02 SEC
 DISK USED  *         1.87 GB
 **********************************************************************************************************************************


 PROGRAM * MP2 (Closed-shell)     Authors: C. Hampel, H.-J. Werner, 1991, M. Deegan, P.J. Knowles, 1992


 Convergence thresholds:  THRVAR = 1.00D-08  THRDEN = 1.00D-06

 Number of core orbitals:           9 (   9 )
 Number of closed-shell orbitals:  13 (  13 )
 Number of external orbitals:     188 ( 188 )

 Molecular orbitals read from record     2100.2  Type=RHF/CANONICAL  

 Number of N-1 electron functions:              13
 Number of N-2 electron functions:              91
 Number of singly external CSFs:              2444
 Number of doubly external CSFs:           2987790
 Total number of CSFs:                     2990235

 Length of J-op  integral file:               0.00 MB
 Length of K-op  integral file:               3.09 MB

 Integral transformation finished. Total CPU:   2.40 sec, npass=  1  Memory used:   7.60 MW

 Memory needed for MP2:                      0.21 MW

 SCS-MP2 correlation energy:           -0.797698286192   (PS=  1.200000  PT=  0.333333)
 SCS-MP2 total energy:               -552.176669739896


  Reference energy                   -551.378971453704
  MP2 singlet pair energy              -0.505001471009
  MP2 triplet pair energy              -0.308083694434
  MP2 correlation energy               -0.813085165443

 !MP2 total energy                   -552.192056619147


 **********************************************************************************************************************************
 DATASETS  * FILE   NREC   LENGTH (MB)   RECORD NAMES
              1      20      530.58       500      610      700      900      950      970     1000      129      960     1100   
                                          VAR    BASINP    GEOM    SYMINP    ZMAT    AOBASIS   BASIS     P2S    ABASIS      S 
                                         1400     1410     1200     1210     1080     1600     1650     1300     1700     1380   
                                           T        V       H0       H01     AOSYM     SMH    MOLCAS    ERIS     OPER     JKOP   

              2       4        1.22       700     1000      520     2100   
                                         GEOM     BASIS   MCVARS     RHF  

 PROGRAMS   *        TOTAL       MP2    HF-SCF       INT
 CPU TIMES  *        23.74      2.66     11.60      9.37
 REAL TIME  *        33.25 SEC
 DISK USED  *         1.87 GB
 **********************************************************************************************************************************

 Dump information in style XML to xml output                                                                      

 Orbitals will not be exported.

 **********************************************************************************************************************************

 MP2/cc-pVTZ energy=   -552.192056619147

             MP2          HF-SCF
   -552.19205662   -551.37897145
 **********************************************************************************************************************************
 Molpro calculation terminated
