
 Working directory              : /var/folders/2v/xbgp75_9785319ghcgb4zr4r0000gp/T//molpro.fyyHV6s3KP/
 Global scratch directory       : /var/folders/2v/xbgp75_9785319ghcgb4zr4r0000gp/T//molpro.fyyHV6s3KP/
 Wavefunction directory         : /Users/sacpjk/wfu/
 Main file repository           : /var/folders/2v/xbgp75_9785319ghcgb4zr4r0000gp/T//molpro.fyyHV6s3KP/

 id        : peterk

 Nodes                        nprocs
 Cardiff-University-G34YLXT77Y    1
 GA implementation: MPI file
 GA implementation (serial work in mppx): MPI file

 Using customized tuning parameters: mindgm=1; mindgv=20; mindgc=4; mindgr=1; noblas=0; minvec=7
 default implementation of scratch files=df  


 Variables initialized (1032), CPU time= 0.01 sec
 
 symmetry,nosym
 
 
 geometry={
            5
     C         -1.13177830      0.15744932     -0.20511892
     H         -1.92265645      0.16979282      0.52564966
     N          0.05350137      0.12204224     -0.08218368
     N          1.28661152      0.24030428     -0.11445996
     H          1.71432186     -0.68958865     -0.12388711
 }
 basis=cc-pVDZ
 
 
 
 hf; hf; papt; mp2
 
 
 
 {put,xml;noorbitals,nobasis}
 Commands initialized (841), CPU time= 0.00 sec, 704 directives.
 Default parameters read. Elapsed time= 0.12 sec

 Checking input...
 Passed
1


                                         ***  PROGRAM SYSTEM MOLPRO  ***
                                       Copyright, TTI GmbH Stuttgart, 2015
                                    Version 2023.1 linked Tue Jun  6 09:54:11 2023


 **********************************************************************************************************************************
 LABEL *                                                                                                                                                                 
  64 bit serial version                                                                  DATE: 11-Jun-23          TIME: 09:05:09  
 **********************************************************************************************************************************

 SHA1:             8ebb0dd001088a5c915591db1a321413035db0b1
 **********************************************************************************************************************************

 Memory per process:       393 MW
 Total memory per node:    524 MW
 Total GA space:           131 MW

 GA preallocation disabled
 GA check enabled

 Variable memory set to 393.2 MW

 ZSYMEL=NOSYM


 Geometry recognized as XYZ

 SETTING BASIS          =    CC-PVDZ


 Recomputing integrals since basis changed


 Using spherical harmonics

 Library entry C      S cc-pVDZ              selected for orbital group  1
 Library entry C      P cc-pVDZ              selected for orbital group  1
 Library entry C      D cc-pVDZ              selected for orbital group  1
 Library entry H      S cc-pVDZ              selected for orbital group  2
 Library entry H      P cc-pVDZ              selected for orbital group  2
 Library entry N      S cc-pVDZ              selected for orbital group  3
 Library entry N      P cc-pVDZ              selected for orbital group  3
 Library entry N      D cc-pVDZ              selected for orbital group  3


 PROGRAM * SEWARD (Integral evaluation for generally contracted gaussian basis sets)     Author: Roland Lindh, 1990

 Geometry written to block  1 of record 700


 Point group  C1  



 ATOMIC COORDINATES

 NR  ATOM    CHARGE       X              Y              Z

   1  C       6.00   -2.138751021    0.297536093   -0.387618582
   2  H       1.00   -3.633294122    0.320861928    0.993333895
   3  N       7.00    0.101102937    0.230626409   -0.155304647
   4  N       7.00    2.431343402    0.454109276   -0.216297977
   5  H       1.00    3.239598805   -1.303133687   -0.234112708

 Bond lengths in Bohr (Angstrom)

 1-2  2.035001946  1-3  2.252863161  3-4  2.341727013  4-5  1.934294960
     ( 1.076876654)     ( 1.192163844)     ( 1.239188569)     ( 1.023584812)

 Bond angles

  1-3-4  169.68185321   2-1-3  131.34115954   3-4-5  109.22908161

 NUCLEAR CHARGE:                   22
 NUMBER OF PRIMITIVE AOS:          95
 NUMBER OF SYMMETRY AOS:           92
 NUMBER OF CONTRACTIONS:           52   (   52A   )
 NUMBER OF INNER CORE ORBITALS:     0   (    0A   )
 NUMBER OF OUTER CORE ORBITALS:     3   (    3A   )
 NUMBER OF VALENCE ORBITALS:       14   (   14A   )


 NUCLEAR REPULSION ENERGY   61.44785679

 Eigenvalues of metric

         1 0.388E-02 0.686E-02 0.175E-01 0.312E-01 0.377E-01 0.424E-01 0.502E-01 0.664E-01


 Contracted 2-electron integrals neglected if value below      1.0D-11
 AO integral compression algorithm  1   Integral accuracy      1.0D-11

     5.243 MB (compressed) written to integral file ( 55.3%)


 NUMBER OF SORTED TWO-ELECTRON INTEGRALS:     950131.     BUFFER LENGTH:  32768
 NUMBER OF SEGMENTS:   1  SEGMENT LENGTH:     950131      RECORD LENGTH: 524288

 Memory used in sort:       1.51 MW

 SORT1 READ     1179935. AND WROTE      933574. INTEGRALS IN      3 RECORDS. CPU TIME:     0.01 SEC, REAL TIME:     0.02 SEC
 SORT2 READ      933574. AND WROTE      950131. INTEGRALS IN     20 RECORDS. CPU TIME:     0.03 SEC, REAL TIME:     0.06 SEC

 FILE SIZES:   FILE 1:    35.4 MBYTE,  FILE 4:    12.6 MBYTE,   TOTAL:     48.0 MBYTE

 OPERATOR DM      FOR CENTER  0  COORDINATES:    0.000000    0.000000    0.000000


 **********************************************************************************************************************************
 DATASETS  * FILE   NREC   LENGTH (MB)   RECORD NAMES
              1      19       32.74       500      610      700      900      950      970     1000      129      960     1100   
                                          VAR    BASINP    GEOM    SYMINP    ZMAT    AOBASIS   BASIS     P2S    ABASIS      S 
                                         1400     1410     1200     1210     1080     1600     1650     1300     1700   
                                           T        V       H0       H01     AOSYM     SMH    MOLCAS    ERIS     OPER   

 PROGRAMS   *        TOTAL       INT
 CPU TIMES  *         0.29      0.19
 REAL TIME  *         0.81 SEC
 DISK USED  *        46.21 MB
 **********************************************************************************************************************************


 Program * Restricted Hartree-Fock

 Orbital guess generated from atomic densities. Full valence occupancy:   17

 Initial occupancy:  11

 NELEC=   22   SYM=1   MS2= 0   THRE=1.0D-08   THRD=3.2D-06   THRG=3.2D-06  HFMA2=F  DIIS_START=2   DIIS_MAX=10   DIIS_INCORE=F

 Level shifts:    0.00 (CLOSED)    0.00 (OPEN)    0.30 (GAP_MIN)

 ITER           ETOT              DE          GRAD        DDIFF     DIIS  NEXP   TIME(IT)  TIME(TOT)  DIAG
   1     -147.76044550    -147.76044550     0.00D+00     0.16D+00     0     0       0.00      0.01    start
   2     -147.78712745      -0.02668195     0.94D-02     0.19D-01     1     0       0.01      0.02    diag
   3     -147.80124966      -0.01412221     0.60D-02     0.86D-02     2     0       0.00      0.02    diag
   4     -147.80332620      -0.00207654     0.14D-02     0.30D-02     3     0       0.01      0.03    diag
   5     -147.80406950      -0.00074331     0.69D-03     0.17D-02     4     0       0.00      0.03    diag
   6     -147.80452344      -0.00045393     0.45D-03     0.15D-02     5     0       0.01      0.04    diag
   7     -147.80470595      -0.00018252     0.21D-03     0.14D-02     6     0       0.00      0.04    diag
   8     -147.80471828      -0.00001232     0.74D-04     0.40D-03     7     0       0.01      0.05    fixocc
   9     -147.80471866      -0.00000038     0.16D-04     0.61D-04     8     0       0.01      0.06    diag
  10     -147.80471869      -0.00000003     0.46D-05     0.14D-04     9     0       0.00      0.06    diag/orth
  11     -147.80471869      -0.00000000     0.11D-05     0.39D-05     9     0       0.01      0.07    diag
  12     -147.80471869      -0.00000000     0.35D-06     0.12D-05     9     0       0.00      0.07    diag
  13     -147.80471869      -0.00000000     0.86D-07     0.19D-06     0     0       0.01      0.08    diag

 Final occupancy:  11

 !RHF STATE 1.1 Energy               -147.804718689964
  RHF One-electron energy            -321.176394166180
  RHF Two-electron energy             111.923818684797
  RHF Kinetic energy                  147.584460366223
  RHF Nuclear energy                   61.447856791419
  RHF Virial quotient                  -1.001492422191

 !RHF STATE 1.1 Dipole moment          -0.46871541    -0.62418896     0.51326219
 Dipole moment /Debye                  -1.19135573    -1.58653008     1.30458236

 Orbital energies:

           1.1          2.1          3.1          4.1          5.1          6.1          7.1          8.1          9.1         10.1
    -15.719482   -15.598059   -11.292037    -1.393488    -1.146358    -0.792474    -0.727548    -0.633083    -0.607366    -0.411469

          11.1         12.1         13.1
     -0.343018     0.127447     0.155302


 HOMO     11.1    -0.343018 =      -9.3340eV
 LUMO     12.1     0.127447 =       3.4680eV
 LUMO-HOMO         0.470465 =      12.8020eV

 Orbitals saved in record  2100.2


 **********************************************************************************************************************************
 DATASETS  * FILE   NREC   LENGTH (MB)   RECORD NAMES
              1      19       32.74       500      610      700      900      950      970     1000      129      960     1100   
                                          VAR    BASINP    GEOM    SYMINP    ZMAT    AOBASIS   BASIS     P2S    ABASIS      S 
                                         1400     1410     1200     1210     1080     1600     1650     1300     1700   
                                           T        V       H0       H01     AOSYM     SMH    MOLCAS    ERIS     OPER   

              2       4        0.49       700     1000      520     2100   
                                         GEOM     BASIS   MCVARS     RHF  

 PROGRAMS   *        TOTAL    HF-SCF       INT
 CPU TIMES  *         0.37      0.08      0.19
 REAL TIME  *         1.03 SEC
 DISK USED  *        46.21 MB
 **********************************************************************************************************************************


 Program * Restricted Hartree-Fock

 Molecular orbitals read from record     2100.2  Type=RHF/CANONICAL  

 Initial occupancy:  11

 NELEC=   22   SYM=1   MS2= 0   THRE=1.0D-08   THRD=3.2D-06   THRG=3.2D-06  HFMA2=F  DIIS_START=2   DIIS_MAX=10   DIIS_INCORE=F

 Level shifts:    0.00 (CLOSED)    0.00 (OPEN)    0.30 (GAP_MIN)

 ITER           ETOT              DE          GRAD        DDIFF     DIIS  NEXP   TIME(IT)  TIME(TOT)  DIAG
   1     -147.80471869    -147.80471869     0.00D+00     0.16D+00     0     0       0.00      0.00    start
   2     -147.80471869      -0.00000000     0.43D-07     0.94D-07     1     0       0.01      0.01    diag

 Final occupancy:  11

 !RHF STATE 1.1 Energy               -147.804718689967
  RHF One-electron energy            -321.176389866037
  RHF Two-electron energy             111.923814384651
  RHF Kinetic energy                  147.584457964608
  RHF Nuclear energy                   61.447856791419
  RHF Virial quotient                  -1.001492438488

 !RHF STATE 1.1 Dipole moment          -0.46871338    -0.62418971     0.51326175
 Dipole moment /Debye                  -1.19135059    -1.58653198     1.30458124

 Orbital energies:

           1.1          2.1          3.1          4.1          5.1          6.1          7.1          8.1          9.1         10.1
    -15.719481   -15.598058   -11.292036    -1.393488    -1.146357    -0.792474    -0.727548    -0.633083    -0.607366    -0.411469

          11.1         12.1         13.1
     -0.343018     0.127447     0.155302


 HOMO     11.1    -0.343018 =      -9.3340eV
 LUMO     12.1     0.127447 =       3.4680eV
 LUMO-HOMO         0.470465 =      12.8020eV

 Orbitals saved in record  2101.2


 **********************************************************************************************************************************
 DATASETS  * FILE   NREC   LENGTH (MB)   RECORD NAMES
              1      19       32.74       500      610      700      900      950      970     1000      129      960     1100   
                                          VAR    BASINP    GEOM    SYMINP    ZMAT    AOBASIS   BASIS     P2S    ABASIS      S 
                                         1400     1410     1200     1210     1080     1600     1650     1300     1700   
                                           T        V       H0       H01     AOSYM     SMH    MOLCAS    ERIS     OPER   

              2       5        0.66       700     1000      520     2100     2101   
                                         GEOM     BASIS   MCVARS     RHF      RHF  

 PROGRAMS   *        TOTAL    HF-SCF    HF-SCF       INT
 CPU TIMES  *         0.39      0.02      0.08      0.19
 REAL TIME  *         1.06 SEC
 DISK USED  *        46.21 MB
 **********************************************************************************************************************************


 PROGRAM * PAPT (Closed-shell)     Authors: C. Hampel, H.-J. Werner, 1991, P.J. Knowles, 2021


 Convergence thresholds:  THRVAR = 1.00D-08  THRDEN = 1.00D-06

 Number of core orbitals:           3 (   3 )
 Number of closed-shell orbitals:   8 (   8 )
 Number of external orbitals:      41 (  41 )

 Molecular orbitals read from record     2101.2  Type=RHF/CANONICAL  

 Number of N-1 electron functions:               8
 Number of N-2 electron functions:              36
 Number of singly external CSFs:               328
 Number of doubly external CSFs:             53956
 Total number of CSFs:                       54285

 Length of J-op  integral file:               0.00 MB
 Length of K-op  integral file:               0.25 MB

 Integral transformation finished. Total CPU:   0.01 sec, npass=  1  Memory used:   0.27 MW

 Reference energy:                   -147.80471869

                        CORR.ENERGY   TOTAL ENERGY   ENERGY CHANGE
 MP2:                   -0.47373830  -148.27845699    -0.47373830

 SCS-MP2 correlation energy:           -0.45940212   (PS=  1.200000  PT=  0.333333)
 SCS-MP2 total energy:               -148.26412081
 Iteration:   1     0.4482D+00
 Iteration:   2     0.4404D+00
 Iteration:   3     0.1913D+00
 Iteration:   4     0.1556D+00
 Iteration:   5     0.1085D+00
 Iteration:   6     0.5638D-01
 Iteration:   7     0.8691D+00
 Iteration:   8     0.1784D-01
 Iteration:   9     0.2413D-01
 Iteration:  10     0.7445D-02
 Iteration:  11     0.7706D-02
 Iteration:  12     0.4078D-02
 Iteration:  13     0.2583D-02
 Iteration:  14     0.1642D-02
 Iteration:  15     0.7263D-03
 Iteration:  16     0.5624D-03
 Iteration:  17     0.1617D-03
 Iteration:  18     0.7472D-02
 Iteration:  19     0.4199D-04
 PAPT operator written to  7000.1
 PAPT orbitals and eigenvalues written to  7000.2

 MP3(D):                -0.47403950  -148.27875819    -0.00030120



 RESULTS
 =======

  Reference energy                   -147.804718689967
  MP3 singlet pair energy              -0.309321804132
  MP3 triplet pair energy              -0.164717694952
  MP3 correlation energy               -0.474039499083

 !MP3 total energy                   -148.278758189051

 Timing summary (sec):

 STEP                 CPU(USER)    SYS     CPU(TOT)    WALL
 Transformation          0.01      0.01      0.02      0.02
 CCSD iterations         0.71      0.02      0.73      0.41

 Program statistics:

 Available memory in ccsd:               393215733
 Min. memory needed in ccsd:                186609
 Max. memory used in ccsd:                  225821
 Max. memory used in cckext:                249002 ( 1 integral passes)



 **********************************************************************************************************************************
 DATASETS  * FILE   NREC   LENGTH (MB)   RECORD NAMES
              1      21       33.91       500      610      700      900      950      970     1000      129      960     1100   
                                          VAR    BASINP    GEOM    SYMINP    ZMAT    AOBASIS   BASIS     P2S    ABASIS      S 
                                         1400     1410     1200     1210     1080     1600     1650     1300     1700     1380   
                                           T        V       H0       H01     AOSYM     SMH    MOLCAS    ERIS     OPER     JKOP   
                                         7000   
                                        PAPT AO    

              2       6        0.82       700     1000      520     2100     2101     7000   
                                         GEOM     BASIS   MCVARS     RHF      RHF     PAPT   

 PROGRAMS   *        TOTAL      PAPT    HF-SCF    HF-SCF       INT
 CPU TIMES  *         0.61      0.22      0.02      0.08      0.19
 REAL TIME  *         1.59 SEC
 DISK USED  *        46.21 MB
 **********************************************************************************************************************************


 PROGRAM * MP2 (Closed-shell)     Authors: C. Hampel, H.-J. Werner, 1991, M. Deegan, P.J. Knowles, 1992


 Convergence thresholds:  THRVAR = 1.00D-08  THRDEN = 1.00D-06

 Number of core orbitals:           3 (   3 )
 Number of closed-shell orbitals:   8 (   8 )
 Number of external orbitals:      41 (  41 )

 Molecular orbitals read from record     7000.2  Type=PAPT/CANONICAL (state 1.1)

 Number of N-1 electron functions:               8
 Number of N-2 electron functions:              36
 Number of singly external CSFs:               328
 Number of doubly external CSFs:             53956
 Total number of CSFs:                       54285

 Length of J-op  integral file:               0.00 MB
 Length of K-op  integral file:               0.25 MB

 Integral transformation finished. Total CPU:   0.01 sec, npass=  1  Memory used:   0.27 MW
 Orbital energies read from record       7000.2  Type=PAPT/CANONICAL (state 1.1)

 Memory needed for MP2:                      0.01 MW

 SCS-MP2 correlation energy:           -0.466948632512   (PS=  1.200000  PT=  0.333333)
 SCS-MP2 total energy:               -148.271667322480


  Reference energy                   -147.804718689967
  MP2 singlet pair energy              -0.292686243844
  MP2 triplet pair energy              -0.185986831980
  MP2 correlation energy               -0.478673075825

 !MP2 total energy                   -148.283391765792


 **********************************************************************************************************************************
 DATASETS  * FILE   NREC   LENGTH (MB)   RECORD NAMES
              1      21       33.91       500      610      700      900      950      970     1000      129      960     1100   
                                          VAR    BASINP    GEOM    SYMINP    ZMAT    AOBASIS   BASIS     P2S    ABASIS      S 
                                         1400     1410     1200     1210     1080     1600     1650     1300     1700     1380   
                                           T        V       H0       H01     AOSYM     SMH    MOLCAS    ERIS     OPER     JKOP   
                                         7000   
                                        PAPT AO    

              2       6        0.82       700     1000      520     2100     2101     7000   
                                         GEOM     BASIS   MCVARS     RHF      RHF     PAPT   

 PROGRAMS   *        TOTAL       MP2      PAPT    HF-SCF    HF-SCF       INT
 CPU TIMES  *         0.66      0.05      0.22      0.02      0.08      0.19
 REAL TIME  *         1.74 SEC
 DISK USED  *        46.21 MB
 **********************************************************************************************************************************

 Dump information in style XML to xml output                                                                      

 Orbitals will not be exported.

 **********************************************************************************************************************************

 MP2/cc-pVDZ energy=   -148.283391765792

             MP2            PAPT          HF-SCF          HF-SCF
   -148.28339177   -148.27875819   -147.80471869   -147.80471869
 **********************************************************************************************************************************
 Molpro calculation terminated
