
 Working directory              : /tmp/peterk/molpro.YFRxSTOE4B/
 Global scratch directory       : /tmp/peterk/molpro.YFRxSTOE4B/
 Wavefunction directory         : /home/peterk/wfu/
 Main file repository           : /tmp/peterk/molpro.YFRxSTOE4B/

 id        : peterk

 Nodes     nprocs
 marat        1
 GA implementation: MPI file
 GA implementation (serial work in mppx): MPI file

 Using customized tuning parameters: mindgm=1; mindgv=20; mindgc=4; mindgr=1; noblas=0; minvec=7
 default implementation of scratch files=df  


 Variables initialized (1032), CPU time= 0.00 sec
 
 symmetry,nosym
 
 
 geometry={
            8
     S         -1.45620599      1.45620599     -0.36909390
     O         -1.87655153      0.00000000      0.36909390
     S         -1.45620599     -1.45620599     -0.36909390
     O          0.00000000     -1.87655153      0.36909390
     S          1.45620599     -1.45620599     -0.36909390
     O          1.87655153      0.00000000      0.36909390
     S          1.45620599      1.45620599     -0.36909390
     O          0.00000000      1.87655153      0.36909390
 }
 basis=cc-pVTZ
 
 
 
 hf; ccsd(t)
 
 
 
 {put,xml;noorbitals,nobasis}
 Commands initialized (841), CPU time= 0.03 sec, 708 directives.
 Default parameters read. Elapsed time= 0.06 sec

 Checking input...
 Passed
1


                                         ***  PROGRAM SYSTEM MOLPRO  ***
                                       Copyright, TTI GmbH Stuttgart, 2015
                                    Version 2023.1 linked Sat Jun 10 08:01:27 2023


 **********************************************************************************************************************************
 LABEL *                                                                                                                                                                 
  (16 PROC) 64 bit serial version                                                        DATE: 13-Jun-23          TIME: 12:04:59  
 **********************************************************************************************************************************

 SHA1:             8376d659ba1296ca7ee514c57770fe2c96af278c
 **********************************************************************************************************************************

 Memory per process:      1074 MW
 Total memory per node:   1074 MW

 GA preallocation disabled
 GA check disabled

 Variable memory set to 1073.7 MW

 ZSYMEL=NOSYM


 Geometry recognized as XYZ

 SETTING BASIS          =    CC-PVTZ


 Recomputing integrals since basis changed


 Using spherical harmonics

 Library entry S      S cc-pVTZ              selected for orbital group  1
 Library entry S      P cc-pVTZ              selected for orbital group  1
 Library entry S      D cc-pVTZ              selected for orbital group  1
 Library entry S      F cc-pVTZ              selected for orbital group  1
 Library entry O      S cc-pVTZ              selected for orbital group  2
 Library entry O      P cc-pVTZ              selected for orbital group  2
 Library entry O      D cc-pVTZ              selected for orbital group  2
 Library entry O      F cc-pVTZ              selected for orbital group  2


 PROGRAM * SEWARD (Integral evaluation for generally contracted gaussian basis sets)     Author: Roland Lindh, 1990

 Geometry written to block  1 of record 700


 Point group  C1  



 ATOMIC COORDINATES

 NR  ATOM    CHARGE       X              Y              Z

   1  S      16.00   -2.751830502    2.751830502   -0.697486385
   2  O       8.00   -3.546168450    0.000000000    0.697486385
   3  S      16.00   -2.751830502   -2.751830502   -0.697486385
   4  O       8.00    0.000000000   -3.546168450    0.697486385
   5  S      16.00    2.751830502   -2.751830502   -0.697486385
   6  O       8.00    3.546168450    0.000000000    0.697486385
   7  S      16.00    2.751830502    2.751830502   -0.697486385
   8  O       8.00    0.000000000    3.546168450    0.697486385

 Bond lengths in Bohr (Angstrom)

 1-2  3.185826882  1-3  5.503661004  1-7  5.503661004  1-8  3.185826882  2-3  3.185826882
     ( 1.685866984)     ( 2.912411980)     ( 2.912411980)     ( 1.685866984)     ( 1.685866984)

 3-4  3.185826882  3-5  5.503661004  4-5  3.185826882  5-6  3.185826882  5-7  5.503661004
     ( 1.685866984)     ( 2.912411980)     ( 1.685866984)     ( 1.685866984)     ( 2.912411980)

 6-7  3.185826882  7-8  3.185826882
     ( 1.685866984)     ( 1.685866984)

 Bond angles

  1-2-3  119.48573081   1-3-2   30.25713460   1-3-4  104.43816075   1-3-5   90.00000000

  1-7-5   90.00000000   1-7-6  104.43816075   1-7-8   30.25713460   1-8-7  119.48573081

  2-1-3   30.25713460   2-1-7  104.43816075   2-1-8  103.82804422   2-3-4  103.82804422

  2-3-5  104.43816075   3-1-7   90.00000000   3-1-8  104.43816075   3-4-5  119.48573081

  3-5-4   30.25713460   3-5-6  104.43816075   3-5-7   90.00000000   4-3-5   30.25713460

  4-5-6  103.82804422   4-5-7  104.43816075   5-6-7  119.48573081   5-7-6   30.25713460

  5-7-8  104.43816075   6-5-7   30.25713460   6-7-8  103.82804422   7-1-8   30.25713460

 NUCLEAR CHARGE:                   96
 NUMBER OF PRIMITIVE AOS:         444
 NUMBER OF SYMMETRY AOS:          404
 NUMBER OF CONTRACTIONS:          256   (  256A   )
 NUMBER OF INNER CORE ORBITALS:     4   (    4A   )
 NUMBER OF OUTER CORE ORBITALS:    20   (   20A   )
 NUMBER OF VALENCE ORBITALS:       32   (   32A   )


 NUCLEAR REPULSION ENERGY  788.36996931


 Eigenvalues of metric

         1 0.227E-02 0.294E-02 0.294E-02 0.315E-02 0.330E-02 0.386E-02 0.386E-02 0.608E-02


 Contracted 2-electron integrals neglected if value below      1.0D-11
 AO integral compression algorithm  1   Integral accuracy      1.0D-11

     1523.581 MB (compressed) written to integral file ( 32.0%)


 NUMBER OF SORTED TWO-ELECTRON INTEGRALS:  541089856.     BUFFER LENGTH:  32768
 NUMBER OF SEGMENTS:  34  SEGMENT LENGTH:   15999762      RECORD LENGTH: 262144

 Memory used in sort:      16.29 MW

 SORT1 READ   595013938. AND WROTE   408573221. INTEGRALS IN   2354 RECORDS. CPU TIME:    16.32 SEC, REAL TIME:   139.48 SEC
 SORT2 READ   408573221. AND WROTE   541089856. INTEGRALS IN   5812 RECORDS. CPU TIME:    11.92 SEC, REAL TIME:    55.22 SEC

 FILE SIZES:   FILE 1:  1556.2 MBYTE,  FILE 4:  4936.8 MBYTE,   TOTAL:   6492.9 MBYTE

 OPERATOR DM      FOR CENTER  0  COORDINATES:    0.000000    0.000000    0.000000


 **********************************************************************************************************************************
 DATASETS  * FILE   NREC   LENGTH (MB)   RECORD NAMES
              1      19     1298.48       500      610      700      900      950      970     1000      129      960     1100   
                                          VAR    BASINP    GEOM    SYMINP    ZMAT    AOBASIS   BASIS     P2S    ABASIS      S 
                                         1400     1410     1200     1210     1080     1600     1650     1300     1700   
                                           T        V       H0       H01     AOSYM     SMH    MOLCAS    ERIS     OPER   

 PROGRAMS   *        TOTAL       INT
 CPU TIMES  *        48.58     48.45
 REAL TIME  *       219.90 SEC
 DISK USED  *         6.05 GB
 **********************************************************************************************************************************


 Program * Restricted Hartree-Fock

 Orbital guess generated from atomic densities. Full valence occupancy:   56

 Initial occupancy:  48

 NELEC=   96   SYM=1   MS2= 0   THRE=1.0D-08   THRD=3.2D-06   THRG=3.2D-06  HFMA2=F  DIIS_START=2   DIIS_MAX=10   DIIS_INCORE=F

 Level shifts:    0.00 (CLOSED)    0.00 (OPEN)    0.30 (GAP_MIN)

 ITER           ETOT              DE          GRAD        DDIFF     DIIS  NEXP   TIME(IT)  TIME(TOT)  DIAG
   1    -1889.41162293   -1889.41162293     0.00D+00     0.72D-01     0     0       3.36      6.69    start
   2    -1889.52676731      -0.11514438     0.35D-02     0.50D-02     1     0       3.40     10.09    diag
   3    -1889.54099920      -0.01423189     0.12D-02     0.13D-02     2     0       3.37     13.46    diag
   4    -1889.54296264      -0.00196344     0.39D-03     0.63D-03     3     0       3.34     16.80    diag
   5    -1889.54321142      -0.00024878     0.14D-03     0.20D-03     4     0       3.36     20.16    diag
   6    -1889.54324363      -0.00003221     0.46D-04     0.75D-04     5     0       3.39     23.55    diag
   7    -1889.54324764      -0.00000400     0.99D-05     0.34D-04     6     0       3.40     26.95    diag
   8    -1889.54324809      -0.00000045     0.35D-05     0.12D-04     7     0       3.38     30.33    fixocc
   9    -1889.54324817      -0.00000009     0.13D-05     0.59D-05     8     0       3.39     33.72    diag
  10    -1889.54324818      -0.00000001     0.35D-06     0.16D-05     9     0       3.34     37.06    diag/orth
  11    -1889.54324818      -0.00000000     0.92D-07     0.16D-06     0     0       3.35     40.41    diag

 Final occupancy:  48

 !RHF STATE 1.1 Energy              -1889.543248180990
  RHF One-electron energy           -4182.612140193759
  RHF Two-electron energy            1504.698922704351
  RHF Kinetic energy                 1888.388063218590
  RHF Nuclear energy                  788.369969308418
  RHF Virial quotient                  -1.000611730706

 !RHF STATE 1.1 Dipole moment          -0.00000000    -0.00000000    -1.15307691
 Dipole moment /Debye                  -0.00000000    -0.00000000    -2.93082917

 Orbital energies:

           1.1          2.1          3.1          4.1          5.1          6.1          7.1          8.1          9.1         10.1
    -92.080903   -92.080903   -92.080903   -92.080903   -20.654332   -20.654322   -20.654322   -20.654310    -9.070736    -9.070726

          11.1         12.1         13.1         14.1         15.1         16.1         17.1         18.1         19.1         20.1
     -9.070726    -9.070718    -6.751263    -6.751260    -6.751260    -6.751256    -6.749875    -6.749875    -6.749875    -6.749875

          21.1         22.1         23.1         24.1         25.1         26.1         27.1         28.1         29.1         30.1
     -6.747844    -6.747842    -6.747842    -6.747841    -1.457785    -1.420444    -1.420444    -1.373675    -1.041885    -0.946108

          31.1         32.1         33.1         34.1         35.1         36.1         37.1         38.1         39.1         40.1
     -0.946108    -0.841529    -0.716589    -0.697052    -0.697052    -0.683334    -0.628371    -0.623827    -0.623827    -0.580919

          41.1         42.1         43.1         44.1         45.1         46.1         47.1         48.1         49.1         50.1
     -0.563979    -0.545130    -0.512820    -0.512820    -0.400418    -0.386775    -0.383269    -0.383269     0.082659     0.082659


 HOMO     48.1    -0.383269 =     -10.4293eV
 LUMO     49.1     0.082659 =       2.2493eV
 LUMO-HOMO         0.465927 =      12.6785eV

 Orbitals saved in record  2100.2


 **********************************************************************************************************************************
 DATASETS  * FILE   NREC   LENGTH (MB)   RECORD NAMES
              1      19     1298.48       500      610      700      900      950      970     1000      129      960     1100   
                                          VAR    BASINP    GEOM    SYMINP    ZMAT    AOBASIS   BASIS     P2S    ABASIS      S 
                                         1400     1410     1200     1210     1080     1600     1650     1300     1700   
                                           T        V       H0       H01     AOSYM     SMH    MOLCAS    ERIS     OPER   

              2       4        1.54       700     1000      520     2100   
                                         GEOM     BASIS   MCVARS     RHF  

 PROGRAMS   *        TOTAL    HF-SCF       INT
 CPU TIMES  *        88.99     40.41     48.45
 REAL TIME  *       262.70 SEC
 DISK USED  *         6.05 GB
 **********************************************************************************************************************************


 PROGRAM * CCSD (Closed-shell coupled cluster)     Authors: C. Hampel, H.-J. Werner, 1991, M. Deegan, P.J. Knowles, 1992


 Convergence thresholds:  THRVAR = 1.00D-08  THRDEN = 1.00D-06

 CCSD(T)     terms to be evaluated (factor= 1.000)


 Number of core orbitals:          24 (  24 )
 Number of closed-shell orbitals:  24 (  24 )
 Number of external orbitals:     208 ( 208 )

 Molecular orbitals read from record     2100.2  Type=RHF/CANONICAL  

 Number of N-1 electron functions:              24
 Number of N-2 electron functions:             300
 Number of singly external CSFs:              4992
 Number of doubly external CSFs:          12462528
 Total number of CSFs:                    12467521

 Length of J-op  integral file:               0.00 MB
 Length of K-op  integral file:               4.56 MB
 Length of 3-ext integral record:             0.00 MB

 Memory could be reduced to 268.31 Mwords without degradation in triples

 Integral transformation finished. Total CPU:  40.22 sec, npass=  1  Memory used: 243.47 MW

 Reference energy:                  -1889.54324818

 MP2 singlet pair energy:              -0.99382165
 MP2 triplet pair energy:              -0.64118433
 MP2 correlation energy:               -1.63500598
 MP2 total energy:                  -1891.17825416

 SCS-MP2 correlation energy:           -1.59154512   (PS=  1.200000  PT=  0.333333)
 SCS-MP2 total energy:              -1891.13479330

 ITER.      SQ.NORM     CORR.ENERGY   TOTAL ENERGY   ENERGY CHANGE        DEN1      VAR(S)    VAR(P)  DIIS     TIME  TIME/IT
   1      1.51649827    -1.66485768 -1891.20810586    -0.02985170     0.03272106  0.17D-01  0.14D-01  1  1   255.47   127.77
   2      1.56428009    -1.66545378 -1891.20870197    -0.00059610    -0.04870384  0.46D-03  0.22D-02  2  2   382.80   127.87
   3      1.58995740    -1.66626135 -1891.20950953    -0.00080757    -0.01023339  0.56D-03  0.12D-03  3  3   514.24   129.41
   4      1.60098821    -1.66608149 -1891.20932967     0.00017986    -0.00327648  0.92D-04  0.36D-04  4  4   642.99   129.49
   5      1.60817248    -1.66614481 -1891.20939299    -0.00006332    -0.00117899  0.30D-04  0.52D-05  5  5   770.90   129.38
   6      1.61130947    -1.66606958 -1891.20931776     0.00007523    -0.00025841  0.58D-05  0.16D-05  6  6   899.97   129.50
   7      1.61254700    -1.66604337 -1891.20929155     0.00002621    -0.00008125  0.17D-05  0.45D-06  6  2  1027.49   129.38
   8      1.61302227    -1.66603783 -1891.20928601     0.00000553    -0.00002211  0.41D-06  0.11D-06  6  1  1156.07   129.40
   9      1.61325352    -1.66603407 -1891.20928225     0.00000377    -0.00000369  0.87D-07  0.21D-07  6  3  1286.86   129.68
  10      1.61328258    -1.66603754 -1891.20928572    -0.00000347     0.00000047  0.10D-07  0.69D-08  6  5  1415.73   129.71
  11      1.61331388    -1.66603807 -1891.20928625    -0.00000053     0.00000165  0.19D-08  0.90D-09  6  4  1546.88   129.93
  12      1.61331518    -1.66603829 -1891.20928648    -0.00000022     0.00000049  0.42D-09  0.21D-09  6  6  1675.67   129.93

 Norm of t1 vector:      0.20708067      S-energy:     0.00000164      T1 diagnostic:  0.02113508
                                                                       D1 diagnostic:  0.06736040
                                                                       D2 diagnostic:  0.16951346 (internal)

   CPU time for triples:   1877.98 sec for i =  1 - 21 / 24 (~  67.9 % done)
   CPU time for triples:    854.96 sec for i = 22 - 24 / 24 (  100.0 % done)

 Total CPU time for triples:   2732.94 sec


 RESULTS
 =======

  Reference energy                  -1889.543248180986
  CCSD singlet pair energy             -1.100246190220
  CCSD triplet pair energy             -0.565793746150
  CCSD correlation energy              -1.666038294598

  Triples (T) contribution             -0.087226784820
  Total correlation energy             -1.753265079418

  CCSD total energy                 -1891.209286475584
  CCSD[T] energy                    -1891.301464795179
  CCSD-T energy                     -1891.294616192089
 !CCSD(T) total energy              -1891.296513260404

 Timing summary (sec):

 STEP                 CPU(USER)    SYS     CPU(TOT)    WALL
 Transformation         41.07      2.18     43.25     82.22
 CCSD iterations      1635.88     11.24   1647.12   1560.52
 Triples              2732.94     40.59   2773.53   2774.17

 Program statistics:

 Available memory in ccsd:              1073739472
 Min. memory needed in ccsd:              29901575
 Max. memory used in ccsd:                41312903
 Max. memory used in cckext:              40240429 (12 integral passes)



 **********************************************************************************************************************************
 DATASETS  * FILE   NREC   LENGTH (MB)   RECORD NAMES
              1      20     2352.62       500      610      700      900      950      970     1000      129      960     1100   
                                          VAR    BASINP    GEOM    SYMINP    ZMAT    AOBASIS   BASIS     P2S    ABASIS      S 
                                         1400     1410     1200     1210     1080     1600     1650     1300     1700     1380   
                                           T        V       H0       H01     AOSYM     SMH    MOLCAS    ERIS     OPER     JKOP   

              2       4        1.54       700     1000      520     2100   
                                         GEOM     BASIS   MCVARS     RHF  

 PROGRAMS   *        TOTAL   CCSD(T)    HF-SCF       INT
 CPU TIMES  *      4409.48   4320.48     40.41     48.45
 REAL TIME  *      4680.04 SEC
 DISK USED  *         6.05 GB
 **********************************************************************************************************************************

 Dump information in style XML to xml output                                                                      

 Orbitals will not be exported.

 **********************************************************************************************************************************

 CCSD(T)/cc-pVTZ energy=  -1891.296513260404

         CCSD(T)          HF-SCF
  -1891.29651326  -1889.54324818
 **********************************************************************************************************************************
 Molpro calculation terminated
