
 Working directory              : /var/folders/2v/xbgp75_9785319ghcgb4zr4r0000gp/T//molpro.XEtA7benqU/
 Global scratch directory       : /var/folders/2v/xbgp75_9785319ghcgb4zr4r0000gp/T//molpro.XEtA7benqU/
 Wavefunction directory         : /Users/sacpjk/wfu/
 Main file repository           : /var/folders/2v/xbgp75_9785319ghcgb4zr4r0000gp/T//molpro.XEtA7benqU/

 id        : peterk

 Nodes                        nprocs
 Cardiff-University-G34YLXT77Y    1
 GA implementation: MPI file
 GA implementation (serial work in mppx): MPI file

 Using customized tuning parameters: mindgm=1; mindgv=20; mindgc=4; mindgr=1; noblas=0; minvec=7
 default implementation of scratch files=df  


 Variables initialized (1032), CPU time= 0.00 sec
 
 symmetry,nosym
 
 
 geometry={
           11
     O         -1.72343769     -1.30912299      0.48350889
     S         -1.53520809      0.24396861      0.17220872
     O         -2.42759105      0.64613872     -0.87222356
     O         -1.41356005      0.89035686      1.43698347
     O         -0.06586720      0.24573953     -0.59351787
     S          1.36137596      0.12591622      0.27091158
     O          2.27548608     -0.13523733     -1.00931930
     O          1.65008964      1.41502733      0.82289528
     O          1.33946097     -1.08526604      1.02361624
     H         -1.98448233     -1.76592022     -0.34043223
     H          2.52373377      0.72839930     -1.39463122
 }
 basis=cc-pVTZ
 
 
 
 hf; mp4
 
 
 
 {put,xml;noorbitals,nobasis}
 Commands initialized (841), CPU time= 0.01 sec, 704 directives.
 Default parameters read. Elapsed time= 0.41 sec

 Checking input...
 Passed
1


                                         ***  PROGRAM SYSTEM MOLPRO  ***
                                       Copyright, TTI GmbH Stuttgart, 2015
                                    Version 2023.1 linked Tue Jun  6 09:54:11 2023


 **********************************************************************************************************************************
 LABEL *                                                                                                                                                                 
  64 bit serial version                                                                  DATE: 13-Jun-23          TIME: 00:17:41  
 **********************************************************************************************************************************

 SHA1:             8ebb0dd001088a5c915591db1a321413035db0b1
 **********************************************************************************************************************************

 Memory per process:       393 MW
 Total memory per node:    524 MW
 Total GA space:           131 MW

 GA preallocation disabled
 GA check enabled

 Variable memory set to 393.2 MW

 ZSYMEL=NOSYM


 Geometry recognized as XYZ

 SETTING BASIS          =    CC-PVTZ


 Recomputing integrals since basis changed


 Using spherical harmonics

 Library entry O      S cc-pVTZ              selected for orbital group  1
 Library entry O      P cc-pVTZ              selected for orbital group  1
 Library entry O      D cc-pVTZ              selected for orbital group  1
 Library entry O      F cc-pVTZ              selected for orbital group  1
 Library entry S      S cc-pVTZ              selected for orbital group  2
 Library entry S      P cc-pVTZ              selected for orbital group  2
 Library entry S      D cc-pVTZ              selected for orbital group  2
 Library entry S      F cc-pVTZ              selected for orbital group  2
 Library entry H      S cc-pVTZ              selected for orbital group  6
 Library entry H      P cc-pVTZ              selected for orbital group  6
 Library entry H      D cc-pVTZ              selected for orbital group  6


 PROGRAM * SEWARD (Integral evaluation for generally contracted gaussian basis sets)     Author: Roland Lindh, 1990

 Geometry written to block  1 of record 700


 Point group  C1  



 ATOMIC COORDINATES

 NR  ATOM    CHARGE       X              Y              Z

   1  O       8.00   -3.256825227   -2.473883915    0.913699381
   2  S      16.00   -2.901122834    0.461033856    0.325427317
   3  O       8.00   -4.587482227    1.221025219   -1.648263648
   4  O       8.00   -2.671241355    1.682530619    2.715505204
   5  O       8.00   -0.124470969    0.464380410   -1.121586224
   6  S      16.00    2.572627717    0.237947170    0.511948690
   7  O       8.00    4.300045492   -0.255561516   -1.907337049
   8  O       8.00    3.118217501    2.674014113    1.555046708
   9  O       8.00    2.531214388   -2.050855588    1.934354350
  10  H       1.00   -3.750128103   -3.337105574   -0.643323679
  11  H       1.00    4.769165637    1.376475186   -2.635471051

 Bond lengths in Bohr (Angstrom)

  1- 2  3.014354082   1-10  1.847381977   2- 3  2.704967818   2- 4  2.693951028   2- 5  3.131078883
       ( 1.595127486)       ( 0.977592442)       ( 1.431407326)       ( 1.425577491)       ( 1.656895590)

 2-6  5.481469054  5-6  3.161336687  6-7  3.013381237  6-8  2.705576433  6-9  2.695101295
     ( 2.900668506)     ( 1.672907331)     ( 1.594612678)     ( 1.431729391)     ( 1.426186187)

  7-11  1.847646241
       ( 0.977732284)

 Bond angles

  1-2-3  110.02241419   1-2-4  106.16467976   1-2-5  101.29595230   1-2-6   94.10417589

  2- 1-10  108.78273303   2- 5- 6  121.17810035   2- 6- 5   29.25563704   2- 6- 7  123.48976877

  2-6-8  100.24423133   2-6-9   92.13059237   3-2-4  124.97054042   3-2-5  102.43628489

  3-2-6  131.20961239   4-2-5  109.50313118   4-2-6   84.43654180   5-2-6   29.56626262

  5- 6- 7   94.93058748   5- 6- 8  107.86442379   5- 6- 9  108.68901387   6- 7-11  108.49849330

  7-6-8  109.96144082   7-6-9  107.06450119   8-6-9  124.35178048

 NUCLEAR CHARGE:                   90
 NUMBER OF PRIMITIVE AOS:         491
 NUMBER OF SYMMETRY AOS:          444
 NUMBER OF CONTRACTIONS:          306   (  306A   )
 NUMBER OF INNER CORE ORBITALS:     2   (    2A   )
 NUMBER OF OUTER CORE ORBITALS:    15   (   15A   )
 NUMBER OF VALENCE ORBITALS:       38   (   38A   )


 NUCLEAR REPULSION ENERGY  794.22121979


 Eigenvalues of metric

         1 0.132E-02 0.194E-02 0.199E-02 0.204E-02 0.235E-02 0.243E-02 0.248E-02 0.255E-02


 Contracted 2-electron integrals neglected if value below      1.0D-11
 AO integral compression algorithm  1   Integral accuracy      1.0D-11

     2798.387 MB (compressed) written to integral file ( 32.1%)


 NUMBER OF SORTED TWO-ELECTRON INTEGRALS: 1103160906.     BUFFER LENGTH:  32768
 NUMBER OF SEGMENTS:  35  SEGMENT LENGTH:   31998710      RECORD LENGTH: 524288

 Memory used in sort:      32.56 MW

 SORT1 READ  1090985160. AND WROTE   769282779. INTEGRALS IN   2217 RECORDS. CPU TIME:     7.92 SEC, REAL TIME:    10.70 SEC
 SORT2 READ   769282779. AND WROTE  1103160906. INTEGRALS IN  10675 RECORDS. CPU TIME:     6.25 SEC, REAL TIME:     8.05 SEC

 FILE SIZES:   FILE 1:  2832.0 MBYTE,  FILE 4:  9298.8 MBYTE,   TOTAL:  12130.9 MBYTE

 OPERATOR DM      FOR CENTER  0  COORDINATES:    0.000000    0.000000    0.000000


 **********************************************************************************************************************************
 DATASETS  * FILE   NREC   LENGTH (MB)   RECORD NAMES
              1      19     2397.21       500      610      700      900      950      970     1000      129      960     1100   
                                          VAR    BASINP    GEOM    SYMINP    ZMAT    AOBASIS   BASIS     P2S    ABASIS      S 
                                         1400     1410     1200     1210     1080     1600     1650     1300     1700   
                                           T        V       H0       H01     AOSYM     SMH    MOLCAS    ERIS     OPER   

 PROGRAMS   *        TOTAL       INT
 CPU TIMES  *        38.23     38.13
 REAL TIME  *        48.17 SEC
 DISK USED  *        11.30 GB
 **********************************************************************************************************************************


 Program * Restricted Hartree-Fock

 Orbital guess generated from atomic densities. Full valence occupancy:   55

 Initial occupancy:  45

 NELEC=   90   SYM=1   MS2= 0   THRE=1.0D-08   THRD=3.2D-06   THRG=3.2D-06  HFMA2=F  DIIS_START=2   DIIS_MAX=10   DIIS_INCORE=F

 Level shifts:    0.00 (CLOSED)    0.00 (OPEN)    0.30 (GAP_MIN)

 ITER           ETOT              DE          GRAD        DDIFF     DIIS  NEXP   TIME(IT)  TIME(TOT)  DIAG
   1    -1319.99315052   -1319.99315052     0.00D+00     0.57D-01     0     0       4.83      9.52    start
   2    -1320.18724694      -0.19409642     0.67D-02     0.10D-01     1     0       4.93     14.45    diag
   3    -1320.39107001      -0.20382307     0.51D-02     0.42D-02     2     0       5.34     19.79    diag
   4    -1320.39372228      -0.00265227     0.55D-03     0.66D-03     3     0       5.37     25.16    diag
   5    -1320.39419310      -0.00047082     0.22D-03     0.27D-03     4     0       5.48     30.64    diag
   6    -1320.39422955      -0.00003645     0.54D-04     0.68D-04     5     0       5.19     35.83    diag
   7    -1320.39423365      -0.00000410     0.13D-04     0.25D-04     6     0       5.28     41.11    diag
   8    -1320.39423404      -0.00000038     0.50D-05     0.75D-05     7     0       5.45     46.56    fixocc
   9    -1320.39423410      -0.00000006     0.19D-05     0.30D-05     8     0       5.34     51.90    diag
  10    -1320.39423411      -0.00000001     0.55D-06     0.96D-06     9     0       5.25     57.15    diag/orth
  11    -1320.39423411      -0.00000000     0.16D-06     0.24D-06     0     0       5.40     62.55    diag

 Final occupancy:  45

 !RHF STATE 1.1 Energy              -1320.394234106567
  RHF One-electron energy           -3401.599962066455
  RHF Two-electron energy            1286.984508171085
  RHF Kinetic energy                 1318.680500748130
  RHF Nuclear energy                  794.221219788802
  RHF Virial quotient                  -1.001299581936

 !RHF STATE 1.1 Dipole moment           0.39484304    -0.60561213    -1.51870784
 Dipole moment /Debye                   1.00359091    -1.53931250    -3.86017030

 Orbital energies:

           1.1          2.1          3.1          4.1          5.1          6.1          7.1          8.1          9.1         10.1
    -92.305044   -92.303067   -20.690716   -20.681799   -20.677642   -20.611991   -20.610732   -20.609149   -20.608257    -9.263788

          11.1         12.1         13.1         14.1         15.1         16.1         17.1         18.1         19.1         20.1
     -9.261595    -6.950050    -6.949168    -6.947894    -6.947886    -6.946981    -6.945854    -1.596584    -1.559708    -1.450083

          21.1         22.1         23.1         24.1         25.1         26.1         27.1         28.1         29.1         30.1
     -1.440731    -1.425057    -1.413468    -1.412233    -0.991457    -0.908492    -0.847935    -0.796195    -0.767875    -0.752395

          31.1         32.1         33.1         34.1         35.1         36.1         37.1         38.1         39.1         40.1
     -0.743425    -0.717109    -0.686683    -0.669537    -0.650654    -0.636660    -0.604145    -0.589328    -0.580429    -0.562936

          41.1         42.1         43.1         44.1         45.1         46.1         47.1
     -0.556119    -0.545467    -0.541614    -0.529805    -0.527782     0.103841     0.117265


 HOMO     45.1    -0.527782 =     -14.3617eV
 LUMO     46.1     0.103841 =       2.8257eV
 LUMO-HOMO         0.631623 =      17.1873eV

 Orbitals saved in record  2100.2


 **********************************************************************************************************************************
 DATASETS  * FILE   NREC   LENGTH (MB)   RECORD NAMES
              1      19     2397.21       500      610      700      900      950      970     1000      129      960     1100   
                                          VAR    BASINP    GEOM    SYMINP    ZMAT    AOBASIS   BASIS     P2S    ABASIS      S 
                                         1400     1410     1200     1210     1080     1600     1650     1300     1700   
                                           T        V       H0       H01     AOSYM     SMH    MOLCAS    ERIS     OPER   

              2       4        2.03       700     1000      520     2100   
                                         GEOM     BASIS   MCVARS     RHF  

 PROGRAMS   *        TOTAL    HF-SCF       INT
 CPU TIMES  *       100.78     62.55     38.13
 REAL TIME  *       119.97 SEC
 DISK USED  *        11.30 GB
 **********************************************************************************************************************************


 PROGRAM * MP4 (Closed-shell)     Authors: C. Hampel, H.-J. Werner, 1991, M. Deegan, P.J. Knowles, 1992


 Convergence thresholds:  THRVAR = 1.00D-08  THRDEN = 1.00D-06

 MP4(T)     terms to be evaluated (factor= 0.000)


 Number of core orbitals:          17 (  17 )
 Number of closed-shell orbitals:  28 (  28 )
 Number of external orbitals:     261 ( 261 )

 Molecular orbitals read from record     2100.2  Type=RHF/CANONICAL  

 Number of N-1 electron functions:              28
 Number of N-2 electron functions:             406
 Number of singly external CSFs:              7308
 Number of doubly external CSFs:          26707086
 Total number of CSFs:                    26714395

 Length of J-op  integral file:               0.00 MB
 Length of K-op  integral file:               6.49 MB

 For full I/O caching in triples, increase memory by 211.66 Mwords to 604.93 Mwords.

 Multipassing necessary in transformation. To avoid, increase memory by 85.72 Mwords.

 Integral transformation finished. Total CPU:  73.80 sec, npass=  2  Memory used: 389.20 MW

 Reference energy:                  -1320.39423411

                        CORR.ENERGY   TOTAL ENERGY   ENERGY CHANGE
 MP2:                   -2.04076411 -1322.43499822    -2.04076411

 SCS-MP2 correlation energy:           -1.97040926   (PS=  1.200000  PT=  0.333333)
 SCS-MP2 total energy:              -1322.36464337

 MP3(D):                -2.00148109 -1322.39571520     0.03928302
 MP4(DQ):               -2.00134018 -1322.39557428     0.00014092
 MP4(SDQ):              -2.03225797 -1322.42649208    -0.03091780

 Norm of t1 vector:      0.15192717      S-energy:    -0.03091780      T1 diagnostic:  0.01435577

   CPU time for triples:   2017.57 sec for i =  1 - 20 / 28 (~  37.7 % done)
   CPU time for triples:   1887.92 sec for i = 21 - 25 / 28 (~  71.9 % done)
   CPU time for triples:   1502.21 sec for i = 26 - 28 / 28 (  100.0 % done)

 Total CPU time for triples:   5407.70 sec


 RESULTS
 =======

  Reference energy                  -1320.394234106558
  MP4(SDQ) singlet pair energy         -1.259057579082
  MP4(SDQ) triplet pair energy         -0.742282597856
  MP4(SDQ) correlation energy          -2.032257972885

  Triples contribution                 -0.109223343511
  Total correlation energy             -2.141481316396

  MP4(SDQ) total energy             -1322.426492079444
 !MP4(SDTQ) total energy            -1322.535715422954

 Timing summary (sec):

 STEP                 CPU(USER)    SYS     CPU(TOT)    WALL
 Transformation         75.85      9.78     85.63     88.28
 CCSD iterations       390.21      7.89    398.10    287.65
 Triples              5407.70    162.37   5570.07   5934.70

 Program statistics:

 Available memory in ccsd:               393212819
 Min. memory needed in ccsd:              62260081
 Max. memory used in ccsd:                87302707
 Max. memory used in cckext:              77423418 ( 1 integral passes)



 **********************************************************************************************************************************
 DATASETS  * FILE   NREC   LENGTH (MB)   RECORD NAMES
              1      20     4740.53       500      610      700      900      950      970     1000      129      960     1100   
                                          VAR    BASINP    GEOM    SYMINP    ZMAT    AOBASIS   BASIS     P2S    ABASIS      S 
                                         1400     1410     1200     1210     1080     1600     1650     1300     1700     1380   
                                           T        V       H0       H01     AOSYM     SMH    MOLCAS    ERIS     OPER     JKOP   

              2       4        2.03       700     1000      520     2100   
                                         GEOM     BASIS   MCVARS     RHF  

 PROGRAMS   *        TOTAL       MP4    HF-SCF       INT
 CPU TIMES  *      5873.68   5772.90     62.55     38.13
 REAL TIME  *      6430.80 SEC
 DISK USED  *        11.30 GB
 **********************************************************************************************************************************

 Dump information in style XML to xml output                                                                      

 Orbitals will not be exported.

 **********************************************************************************************************************************

 MP4/cc-pVTZ energy=  -1322.535715422954

             MP4          HF-SCF
  -1322.53571542  -1320.39423411
 **********************************************************************************************************************************
 Molpro calculation terminated
