
 Working directory              : /var/folders/2v/xbgp75_9785319ghcgb4zr4r0000gp/T//molpro.H7tR1iDXnp/
 Global scratch directory       : /var/folders/2v/xbgp75_9785319ghcgb4zr4r0000gp/T//molpro.H7tR1iDXnp/
 Wavefunction directory         : /Users/sacpjk/wfu/
 Main file repository           : /var/folders/2v/xbgp75_9785319ghcgb4zr4r0000gp/T//molpro.H7tR1iDXnp/

 id        : peterk

 Nodes                        nprocs
 Cardiff-University-G34YLXT77Y    1
 GA implementation: MPI file
 GA implementation (serial work in mppx): MPI file

 Using customized tuning parameters: mindgm=1; mindgv=20; mindgc=4; mindgr=1; noblas=0; minvec=7
 default implementation of scratch files=df  


 Variables initialized (1032), CPU time= 0.00 sec
 
 symmetry,nosym
 
 
 geometry={
 7
  n          0.124569655278   -0.403187953202   -0.817004660257
  h          1.114969132486   -0.615403079114   -0.845077133339
  h         -0.350417919872   -1.292734282935   -0.740169479530
  c         -0.157761603644    0.398564064054    0.371229986595
  h         -1.223605732468    0.612872378618    0.421017437514
  h          0.137231318991   -0.055096893267    1.323201890510
  h          0.355015149071    1.354985766005    0.286801958507
 }
 basis=aug-cc-pVDZ
 
 
 
 hf; ccsd(t)
 
 
 
 {put,xml;noorbitals,nobasis}
 Commands initialized (841), CPU time= 0.01 sec, 704 directives.
 Default parameters read. Elapsed time= 0.08 sec

 Checking input...
 Passed
1


                                         ***  PROGRAM SYSTEM MOLPRO  ***
                                       Copyright, TTI GmbH Stuttgart, 2015
                                    Version 2023.1 linked Tue Jun  6 09:54:11 2023


 **********************************************************************************************************************************
 LABEL *                                                                                                                                                                 
  64 bit serial version                                                                  DATE: 08-Jun-23          TIME: 21:58:13  
 **********************************************************************************************************************************

 SHA1:             8ebb0dd001088a5c915591db1a321413035db0b1
 **********************************************************************************************************************************

 Memory per process:       805 MW
 Total memory per node:   1074 MW
 Total GA space:           268 MW

 GA preallocation disabled
 GA check enabled

 Variable memory set to 805.3 MW

 ZSYMEL=NOSYM


 Geometry recognized as XYZ

 SETTING BASIS          =    AUG-CC-PVDZ


 Recomputing integrals since basis changed


 Using spherical harmonics

 Library entry N      S aug-cc-pVDZ          selected for orbital group  1
 Library entry N      P aug-cc-pVDZ          selected for orbital group  1
 Library entry N      D aug-cc-pVDZ          selected for orbital group  1
 Library entry H      S aug-cc-pVDZ          selected for orbital group  2
 Library entry H      P aug-cc-pVDZ          selected for orbital group  2
 Library entry C      S aug-cc-pVDZ          selected for orbital group  3
 Library entry C      P aug-cc-pVDZ          selected for orbital group  3
 Library entry C      D aug-cc-pVDZ          selected for orbital group  3


 PROGRAM * SEWARD (Integral evaluation for generally contracted gaussian basis sets)     Author: Roland Lindh, 1990

 Geometry written to block  1 of record 700


 Point group  C1  



 ATOMIC COORDINATES

 NR  ATOM    CHARGE       X              Y              Z

   1  N       7.00    0.235402532   -0.761914808   -1.543915050
   2  H       1.00    2.106986298   -1.162943276   -1.596964336
   3  H       1.00   -0.662193898   -2.442913747   -1.398717602
   4  C       6.00   -0.298126224    0.753176924    0.701523004
   5  H       1.00   -2.312279719    1.158160945    0.795607651
   6  H       1.00    0.259329609   -0.104118039    2.500489181
   7  H       1.00    0.670881402    2.560552001    0.541977154

 Bond lengths in Bohr (Angstrom)

 1-2  1.914801256  1-3  1.911156477  1-4  2.760823780  4-5  2.056618166  4-6  2.069297215
     ( 1.013269188)     ( 1.011340454)     ( 1.460965028)     ( 1.088315465)     ( 1.095024929)

 4-7  2.056948060
     ( 1.088490038)

 Bond angles

  1-4-5  109.54406629   1-4-6  115.31871979   1-4-7  109.15197352   2-1-3  106.07836562

  2-1-4  109.04774565   3-1-4  109.27730371   5-4-6  107.79679288   5-4-7  106.97091570

  6-4-7  107.73101274

 NUCLEAR CHARGE:                   18
 NUMBER OF PRIMITIVE AOS:         129
 NUMBER OF SYMMETRY AOS:          125
 NUMBER OF CONTRACTIONS:           91   (   91A   )
 NUMBER OF INNER CORE ORBITALS:     0   (    0A   )
 NUMBER OF OUTER CORE ORBITALS:     2   (    2A   )
 NUMBER OF VALENCE ORBITALS:       13   (   13A   )


 NUCLEAR REPULSION ENERGY   42.10593245

 Eigenvalues of metric

         1 0.506E-03 0.627E-03 0.707E-03 0.846E-03 0.122E-02 0.129E-02 0.296E-02 0.448E-02


 Contracted 2-electron integrals neglected if value below      1.0D-11
 AO integral compression algorithm  1   Integral accuracy      1.0D-11

     48.234 MB (compressed) written to integral file ( 56.6%)


 NUMBER OF SORTED TWO-ELECTRON INTEGRALS:    8763391.     BUFFER LENGTH:  32768
 NUMBER OF SEGMENTS:   1  SEGMENT LENGTH:    8763391      RECORD LENGTH: 524288

 Memory used in sort:       9.32 MW

 SORT1 READ    10676406. AND WROTE     8692348. INTEGRALS IN     25 RECORDS. CPU TIME:     0.06 SEC, REAL TIME:     0.08 SEC
 SORT2 READ     8692348. AND WROTE     8763391. INTEGRALS IN    184 RECORDS. CPU TIME:     0.10 SEC, REAL TIME:     0.13 SEC

 FILE SIZES:   FILE 1:    78.6 MBYTE,  FILE 4:   104.9 MBYTE,   TOTAL:    183.6 MBYTE

 OPERATOR DM      FOR CENTER  0  COORDINATES:    0.000000    0.000000    0.000000


 **********************************************************************************************************************************
 DATASETS  * FILE   NREC   LENGTH (MB)   RECORD NAMES
              1      19       67.57       500      610      700      900      950      970     1000      129      960     1100   
                                          VAR    BASINP    GEOM    SYMINP    ZMAT    AOBASIS   BASIS     P2S    ABASIS      S 
                                         1400     1410     1200     1210     1080     1600     1650     1300     1700   
                                           T        V       H0       H01     AOSYM     SMH    MOLCAS    ERIS     OPER   

 PROGRAMS   *        TOTAL       INT
 CPU TIMES  *         0.58      0.48
 REAL TIME  *         1.49 SEC
 DISK USED  *       175.49 MB
 **********************************************************************************************************************************


 Program * Restricted Hartree-Fock

 Orbital guess generated from atomic densities. Full valence occupancy:   15

 Initial occupancy:   9

 NELEC=   18   SYM=1   MS2= 0   THRE=1.0D-08   THRD=3.2D-06   THRG=3.2D-06  HFMA2=F  DIIS_START=2   DIIS_MAX=10   DIIS_INCORE=F

 Level shifts:    0.00 (CLOSED)    0.00 (OPEN)    0.30 (GAP_MIN)

 ITER           ETOT              DE          GRAD        DDIFF     DIIS  NEXP   TIME(IT)  TIME(TOT)  DIAG
   1      -95.20174673     -95.20174673     0.00D+00     0.86D-01     0     0       0.03      0.06    start
   2      -95.22665635      -0.02490962     0.55D-02     0.93D-02     1     0       0.04      0.10    diag
   3      -95.23010044      -0.00344409     0.22D-02     0.28D-02     2     0       0.03      0.13    diag
   4      -95.23060269      -0.00050225     0.68D-03     0.11D-02     3     0       0.04      0.17    diag
   5      -95.23062537      -0.00002269     0.13D-03     0.21D-03     4     0       0.04      0.21    diag
   6      -95.23062682      -0.00000144     0.29D-04     0.58D-04     5     0       0.04      0.25    diag
   7      -95.23062692      -0.00000010     0.81D-05     0.15D-04     6     0       0.03      0.28    diag
   8      -95.23062693      -0.00000001     0.22D-05     0.64D-05     7     0       0.04      0.32    fixocc
   9      -95.23062693      -0.00000000     0.55D-06     0.15D-05     8     0       0.03      0.35    diag
  10      -95.23062693      -0.00000000     0.11D-06     0.22D-06     0     0       0.04      0.39    diag/orth

 Final occupancy:   9

 !RHF STATE 1.1 Energy                -95.230626931147
  RHF One-electron energy            -211.476320924764
  RHF Two-electron energy              74.139761548526
  RHF Kinetic energy                   95.085258542923
  RHF Nuclear energy                   42.105932445091
  RHF Virial quotient                  -1.001528821507

 !RHF STATE 1.1 Dipole moment           0.16933539    -0.29341303     0.45989291
 Dipole moment /Debye                   0.43040764    -0.74578152     1.16893118

 Orbital energies:

           1.1          2.1          3.1          4.1          5.1          6.1          7.1          8.1          9.1         10.1
    -15.549042   -11.247624    -1.174033    -0.896783    -0.663056    -0.604067    -0.555387    -0.515593    -0.392815     0.035723

          11.1
      0.051452


 HOMO      9.1    -0.392815 =     -10.6891eV
 LUMO     10.1     0.035723 =       0.9721eV
 LUMO-HOMO         0.428539 =      11.6611eV

 Orbitals saved in record  2100.2


 **********************************************************************************************************************************
 DATASETS  * FILE   NREC   LENGTH (MB)   RECORD NAMES
              1      19       67.57       500      610      700      900      950      970     1000      129      960     1100   
                                          VAR    BASINP    GEOM    SYMINP    ZMAT    AOBASIS   BASIS     P2S    ABASIS      S 
                                         1400     1410     1200     1210     1080     1600     1650     1300     1700   
                                           T        V       H0       H01     AOSYM     SMH    MOLCAS    ERIS     OPER   

              2       4        0.61       700     1000      520     2100   
                                         GEOM     BASIS   MCVARS     RHF  

 PROGRAMS   *        TOTAL    HF-SCF       INT
 CPU TIMES  *         0.97      0.39      0.48
 REAL TIME  *         2.54 SEC
 DISK USED  *       175.49 MB
 **********************************************************************************************************************************


 PROGRAM * CCSD (Closed-shell coupled cluster)     Authors: C. Hampel, H.-J. Werner, 1991, M. Deegan, P.J. Knowles, 1992


 Convergence thresholds:  THRVAR = 1.00D-08  THRDEN = 1.00D-06

 CCSD(T)     terms to be evaluated (factor= 1.000)


 Number of core orbitals:           2 (   2 )
 Number of closed-shell orbitals:   7 (   7 )
 Number of external orbitals:      82 (  82 )

 Molecular orbitals read from record     2100.2  Type=RHF/CANONICAL  

 Number of N-1 electron functions:               7
 Number of N-2 electron functions:              28
 Number of singly external CSFs:               574
 Number of doubly external CSFs:            165025
 Total number of CSFs:                      165600

 Length of J-op  integral file:               0.00 MB
 Length of K-op  integral file:               0.63 MB
 Length of 3-ext integral record:             0.00 MB

 Memory could be reduced to 5.79 Mwords without degradation in triples

 Integral transformation finished. Total CPU:   0.15 sec, npass=  1  Memory used:   3.63 MW

 Reference energy:                    -95.23062693

 MP2 singlet pair energy:              -0.22545365
 MP2 triplet pair energy:              -0.11703661
 MP2 correlation energy:               -0.34249027
 MP2 total energy:                    -95.57311720

 SCS-MP2 correlation energy:           -0.34336717   (PS=  1.200000  PT=  0.333333)
 SCS-MP2 total energy:                -95.57399410

 ITER.      SQ.NORM     CORR.ENERGY   TOTAL ENERGY   ENERGY CHANGE        DEN1      VAR(S)    VAR(P)  DIIS     TIME  TIME/IT
   1      1.12370413    -0.36961486   -95.60024180    -0.02712460    -0.01785563  0.11D-02  0.19D-02  1  1     1.41     0.16
   2      1.13378554    -0.37175077   -95.60237770    -0.00213591    -0.00992025  0.18D-04  0.18D-03  2  2     1.79     0.32
   3      1.13603275    -0.37185739   -95.60248432    -0.00010661    -0.00129178  0.11D-04  0.10D-04  3  3     1.98     0.28
   4      1.13668038    -0.37186708   -95.60249401    -0.00000970    -0.00025630  0.99D-06  0.79D-06  4  4     2.18     0.29
   5      1.13681745    -0.37186583   -95.60249276     0.00000125    -0.00004167  0.19D-06  0.89D-07  5  5     2.49     0.31
   6      1.13685234    -0.37186359   -95.60249052     0.00000224    -0.00000654  0.39D-07  0.87D-08  6  6     2.71     0.30
   7      1.13686250    -0.37186320   -95.60249013     0.00000039    -0.00000035  0.60D-08  0.21D-08  6  2     2.88     0.28
   8      1.13686716    -0.37186304   -95.60248997     0.00000015    -0.00000055  0.95D-09  0.25D-09  6  1     3.06     0.28

 Norm of t1 vector:      0.04852579      S-energy:    -0.00000014      T1 diagnostic:  0.00917051
                                                                       D1 diagnostic:  0.02453120
                                                                       D2 diagnostic:  0.13898567 (internal)


 Total CPU time for triples:      1.56 sec


 RESULTS
 =======

  Reference energy                    -95.230626931147
  CCSD singlet pair energy             -0.263815459886
  CCSD triplet pair energy             -0.108047440368
  CCSD correlation energy              -0.371863042461

  Triples (T) contribution             -0.010650168740
  Total correlation energy             -0.382513211201

  CCSD total energy                   -95.602489973609
  CCSD[T] energy                      -95.613458367771
  CCSD-T energy                       -95.612970824434
 !CCSD(T) total energy                -95.613140142349

 Timing summary (sec):

 STEP                 CPU(USER)    SYS     CPU(TOT)    WALL
 Transformation          0.15      0.02      0.17      0.24
 CCSD iterations         2.93      0.14      3.07      2.26
 Triples                 1.56      0.07      1.63      1.88

 Program statistics:

 Available memory in ccsd:               805306163
 Min. memory needed in ccsd:                547472
 Max. memory used in ccsd:                  678351
 Max. memory used in cckext:                544325 ( 8 integral passes)



 **********************************************************************************************************************************
 DATASETS  * FILE   NREC   LENGTH (MB)   RECORD NAMES
              1      20       85.26       500      610      700      900      950      970     1000      129      960     1100   
                                          VAR    BASINP    GEOM    SYMINP    ZMAT    AOBASIS   BASIS     P2S    ABASIS      S 
                                         1400     1410     1200     1210     1080     1600     1650     1300     1700     1380   
                                           T        V       H0       H01     AOSYM     SMH    MOLCAS    ERIS     OPER     JKOP   

              2       4        0.61       700     1000      520     2100   
                                         GEOM     BASIS   MCVARS     RHF  

 PROGRAMS   *        TOTAL   CCSD(T)    HF-SCF       INT
 CPU TIMES  *         4.55      3.57      0.39      0.48
 REAL TIME  *         7.04 SEC
 DISK USED  *       175.49 MB
 **********************************************************************************************************************************

 Dump information in style XML to xml output                                                                      

 Orbitals will not be exported.

 **********************************************************************************************************************************

 CCSD(T)/aug-cc-pVDZ energy=    -95.613140142349

         CCSD(T)          HF-SCF
    -95.61314014    -95.23062693
 **********************************************************************************************************************************
 Molpro calculation terminated
