
 Working directory              : /var/folders/2v/xbgp75_9785319ghcgb4zr4r0000gp/T//molpro.tTGwCLeMxt/
 Global scratch directory       : /var/folders/2v/xbgp75_9785319ghcgb4zr4r0000gp/T//molpro.tTGwCLeMxt/
 Wavefunction directory         : /Users/sacpjk/wfu/
 Main file repository           : /var/folders/2v/xbgp75_9785319ghcgb4zr4r0000gp/T//molpro.tTGwCLeMxt/

 id        : peterk

 Nodes                        nprocs
 Cardiff-University-G34YLXT77Y    1
 GA implementation: MPI file
 GA implementation (serial work in mppx): MPI file

 Using customized tuning parameters: mindgm=1; mindgv=20; mindgc=4; mindgr=1; noblas=0; minvec=7
 default implementation of scratch files=df  


 Variables initialized (1032), CPU time= 0.01 sec
 
 symmetry,nosym
 
 
 geometry={
           10
     C          1.12508624     -0.54109829     -0.01266804
     C          0.13617620      0.60269082     -0.06563910
     O         -2.18628273     -0.40939242     -0.09120085
     H          0.96851856     -1.15581281      0.87258914
     H          1.03333748     -1.18092227     -0.88926417
     H          2.14900188     -0.16161205      0.01900401
     H          0.13782247      1.23071308      0.82288881
     H          0.20027491      1.20876281     -0.96670397
     H         -0.96348111      0.11308280     -0.11661088
     H         -2.60045389      0.29358833      0.42760505
 }
 basis=cc-pVDZ
 
 
 spin=1
 uhf
 
 
 
 {put,xml;noorbitals,nobasis}
 Commands initialized (841), CPU time= 0.00 sec, 704 directives.
 Default parameters read. Elapsed time= 0.14 sec

 Checking input...
 Passed
1


                                         ***  PROGRAM SYSTEM MOLPRO  ***
                                       Copyright, TTI GmbH Stuttgart, 2015
                                    Version 2023.1 linked Tue Jun  6 09:54:11 2023


 **********************************************************************************************************************************
 LABEL *                                                                                                                                                                 
  64 bit serial version                                                                  DATE: 09-Jun-23          TIME: 09:26:48  
 **********************************************************************************************************************************

 SHA1:             8ebb0dd001088a5c915591db1a321413035db0b1
 **********************************************************************************************************************************

 Memory per process:       805 MW
 Total memory per node:   1074 MW
 Total GA space:           268 MW

 GA preallocation disabled
 GA check enabled

 Variable memory set to 805.3 MW

 ZSYMEL=NOSYM


 Geometry recognized as XYZ

 SETTING BASIS          =    CC-PVDZ
 SETTING SPIN           =         1.00000000                                  


 Recomputing integrals since basis changed


 Using spherical harmonics

 Library entry C      S cc-pVDZ              selected for orbital group  1
 Library entry C      P cc-pVDZ              selected for orbital group  1
 Library entry C      D cc-pVDZ              selected for orbital group  1
 Library entry O      S cc-pVDZ              selected for orbital group  2
 Library entry O      P cc-pVDZ              selected for orbital group  2
 Library entry O      D cc-pVDZ              selected for orbital group  2
 Library entry H      S cc-pVDZ              selected for orbital group  3
 Library entry H      P cc-pVDZ              selected for orbital group  3


 PROGRAM * SEWARD (Integral evaluation for generally contracted gaussian basis sets)     Author: Roland Lindh, 1990

 Geometry written to block  1 of record 700


 Point group  C1  



 ATOMIC COORDINATES

 NR  ATOM    CHARGE       X              Y              Z

   1  C       6.00    2.126104860   -1.022527575   -0.023939126
   2  C       6.00    0.257335723    1.138920588   -0.124039922
   3  O       8.00   -4.131475591   -0.773639551   -0.172344629
   4  H       1.00    1.830234825   -2.184169662    1.648954494
   5  H       1.00    1.952724832   -2.231619665   -1.680465734
   6  H       1.00    4.061024995   -0.305402513    0.035912374
   7  H       1.00    0.260446722    2.325710659    1.555034482
   8  H       1.00    0.378464730    2.284230661   -1.826805747
   9  H       1.00   -1.820715424    0.213695521   -0.220362626
  10  H       1.00   -4.914145652    0.554801537    0.808056434

 Bond lengths in Bohr (Angstrom)

 1-2  2.859051664  1-4  2.058038989  1-5  2.058165377  1-6  2.064404631  2-7  2.056154470
     ( 1.512944985)     ( 1.089067332)     ( 1.089134214)     ( 1.092435885)     ( 1.088070088)

  2- 8  2.055679657   2- 9  2.276755599   3- 9  2.513314310   3-10  1.827160199
       ( 1.087818828)       ( 1.204807178)       ( 1.329988657)       ( 0.966891538)

 Bond angles

  1-2-7  114.00247168   1-2-8  114.31094714   1-2-9  106.90853748   2-1-4  111.17452835

  2-1-5  111.15425293   2-1-6  110.55051859   2-9-3  176.37596613   4-1-5  108.09152070

  4-1-6  107.89375422   5-1-6  107.84005440   7-2-8  110.77805887   7-2-9  105.69322762

  8- 2- 9  104.19065004   9- 3-10   96.80358375

 NUCLEAR CHARGE:                   27
 NUMBER OF PRIMITIVE AOS:         130
 NUMBER OF SYMMETRY AOS:          127
 NUMBER OF CONTRACTIONS:           77   (   77A   )
 NUMBER OF INNER CORE ORBITALS:     0   (    0A   )
 NUMBER OF OUTER CORE ORBITALS:     3   (    3A   )
 NUMBER OF VALENCE ORBITALS:       19   (   19A   )


 NUCLEAR REPULSION ENERGY   76.62128246


 Eigenvalues of metric

         1 0.476E-02 0.994E-02 0.173E-01 0.257E-01 0.327E-01 0.330E-01 0.361E-01 0.364E-01


 Contracted 2-electron integrals neglected if value below      1.0D-11
 AO integral compression algorithm  1   Integral accuracy      1.0D-11

     20.709 MB (compressed) written to integral file ( 52.5%)


 NUMBER OF SORTED TWO-ELECTRON INTEGRALS:    4510506.     BUFFER LENGTH:  32768
 NUMBER OF SEGMENTS:   1  SEGMENT LENGTH:    4510506      RECORD LENGTH: 524288

 Memory used in sort:       5.07 MW

 SORT1 READ     4994233. AND WROTE     4366098. INTEGRALS IN     13 RECORDS. CPU TIME:     0.03 SEC, REAL TIME:     0.04 SEC
 SORT2 READ     4366098. AND WROTE     4510506. INTEGRALS IN     79 RECORDS. CPU TIME:     0.05 SEC, REAL TIME:     0.07 SEC

 FILE SIZES:   FILE 1:    51.1 MBYTE,  FILE 4:    54.6 MBYTE,   TOTAL:    105.7 MBYTE

 OPERATOR DM      FOR CENTER  0  COORDINATES:    0.000000    0.000000    0.000000


 **********************************************************************************************************************************
 DATASETS  * FILE   NREC   LENGTH (MB)   RECORD NAMES
              1      19       46.12       500      610      700      900      950      970     1000      129      960     1100   
                                          VAR    BASINP    GEOM    SYMINP    ZMAT    AOBASIS   BASIS     P2S    ABASIS      S 
                                         1400     1410     1200     1210     1080     1600     1650     1300     1700   
                                           T        V       H0       H01     AOSYM     SMH    MOLCAS    ERIS     OPER   

 PROGRAMS   *        TOTAL       INT
 CPU TIMES  *         0.44      0.36
 REAL TIME  *         1.20 SEC
 DISK USED  *       101.25 MB
 **********************************************************************************************************************************


 Program * Unrestricted Hartree-Fock

 Orbital guess generated from atomic densities. Full valence occupancy:   22

 Initial alpha occupancy:  14
 Initial beta  occupancy:  13

 Elapsed time for starting guess:      0.02 sec

 NELEC=   27   SYM=1   MS2=1   THRE=1.0D-08   THRD=3.2D-06   THRG=3.2D-06  HFMA2=F  DIIS_START=2   DIIS_MAX=10   DIIS_INCORE=F

 Initial level shifts:    0.20 (ALPHA)    0.20 (BETA)

 ITER         ETOT            DE          GRAD         DDIFF    DIIS  NEXP   TIME(IT)  TIME(TOT)  DIAG
   1   -154.48306513  -154.48306513     0.00D+00     0.00D+00     0     0       0.02      0.04    start
   2   -154.55744277    -0.07437763     0.95D-02     0.12D+00     1     0       0.02      0.06    diag
   3   -154.57660832    -0.01916555     0.48D-02     0.15D-01     2     0       0.02      0.08    diag
   4   -154.58560037    -0.00899205     0.20D-02     0.52D-02     3     0       0.03      0.11    diag
   5   -154.58942559    -0.00382522     0.12D-02     0.27D-02     4     0       0.02      0.13    diag
   6   -154.59119642    -0.00177083     0.72D-03     0.17D-02     5     0       0.02      0.15    diag
   7   -154.59191427    -0.00071785     0.43D-03     0.12D-02     6     0       0.03      0.18    diag
   8   -154.59219362    -0.00027935     0.26D-03     0.84D-03     7     0       0.02      0.20    diag
   9   -154.59226713    -0.00007351     0.14D-03     0.55D-03     8     0       0.02      0.22    diag
  10   -154.59228411    -0.00001698     0.67D-04     0.28D-03     9     0       0.02      0.24    diag/ort
  11   -154.59228779    -0.00000368     0.34D-04     0.14D-03     9     0       0.03      0.27    diag
  12   -154.59228865    -0.00000087     0.16D-04     0.56D-04     9     0       0.02      0.29    diag
  13   -154.59228883    -0.00000018     0.72D-05     0.29D-04     9     0       0.03      0.32    diag
  14   -154.59228887    -0.00000004     0.36D-05     0.13D-04     9     0       0.02      0.34    diag
  15   -154.59228889    -0.00000002     0.21D-05     0.54D-05     9     0       0.02      0.36    diag
  16   -154.59228890    -0.00000001     0.16D-05     0.27D-05     9     0       0.03      0.39    diag
  17   -154.59228890    -0.00000000     0.13D-05     0.19D-05     9     0       0.02      0.41    diag

 Final alpha occupancy:  14
 Final beta  occupancy:  13

 !UHF STATE 1.1 Energy               -154.592288898340
  UHF One-electron energy            -361.746647179421
  UHF Two-electron energy             130.533075817527
  UHF Kinetic energy                  154.535069699111
  UHF Nuclear energy                   76.621282463554
  UHF Virial quotient                  -1.000370266758

 !UHF STATE 1.1 Dipole moment          -0.03324381     0.52609996     0.33658172
 Dipole moment /Debye                  -0.08449734     1.33721272     0.85550541

 EXPECTATION VALUE OF S**2:             0.78079008

 Orbital energies for positive spin:

           1.1          2.1          3.1          4.1          5.1          6.1          7.1          8.1          9.1         10.1
    -20.609155   -11.232305   -11.219437    -1.371782    -1.030029    -0.851484    -0.698681    -0.646476    -0.606566    -0.569354

          11.1         12.1         13.1         14.1         15.1         16.1
     -0.534477    -0.518764    -0.494059    -0.421822     0.178140     0.209353

 Orbital energies for negative spin:

           1.1          2.1          3.1          4.1          5.1          6.1          7.1          8.1          9.1         10.1
    -20.573444   -11.220850   -11.220084    -1.245975    -1.011153    -0.828191    -0.637218    -0.602120    -0.570788    -0.516094

          11.1         12.1         13.1         14.1         15.1
     -0.497675    -0.488490    -0.464016     0.095858     0.184104


 HOMO     14.1    -0.421822 =     -11.4784eV
 LUMO    -14.1     0.095858 =       2.6084eV
 LUMO-HOMO         0.517680 =      14.0868eV

 Orbitals saved in record  2200.2

 Occupation number threshold for pseudo-canonical orbitals: 1.9990 (occupied), 0.0010 (virtual)

 Number of pseudo-canonical occupied orbitals per symmetry:   11
 Number of active natural orbitals per symmetry:               5

 Natural orbitals saved to record    2200.2 (Orbital set 3)

 Orbital spaces for UNO-CAS (Min. occupation: 0.020  Max. occupation: 1.980):

 Closed:       13
 Active:        1


 **********************************************************************************************************************************
 DATASETS  * FILE   NREC   LENGTH (MB)   RECORD NAMES
              1      19       46.12       500      610      700      900      950      970     1000      129      960     1100   
                                          VAR    BASINP    GEOM    SYMINP    ZMAT    AOBASIS   BASIS     P2S    ABASIS      S 
                                         1400     1410     1200     1210     1080     1600     1650     1300     1700   
                                           T        V       H0       H01     AOSYM     SMH    MOLCAS    ERIS     OPER   

              2       4        0.77       700     1000      520     2200   
                                         GEOM     BASIS   MCVARS     UHF  

              4       3        1.07      2900     3000     3100   

 PROGRAMS   *        TOTAL   UHF-SCF       INT
 CPU TIMES  *         0.85      0.41      0.36
 REAL TIME  *         1.84 SEC
 DISK USED  *       101.25 MB
 **********************************************************************************************************************************

 Dump information in style XML to xml output                                                                      

 Orbitals will not be exported.

 **********************************************************************************************************************************

 UHF/cc-pVDZ energy=   -154.592288898340

         UHF-SCF
   -154.59228890
 **********************************************************************************************************************************
 Molpro calculation terminated
