
 Working directory              : /var/folders/2v/xbgp75_9785319ghcgb4zr4r0000gp/T//molpro.ujqutRLIOs/
 Global scratch directory       : /var/folders/2v/xbgp75_9785319ghcgb4zr4r0000gp/T//molpro.ujqutRLIOs/
 Wavefunction directory         : /Users/sacpjk/wfu/
 Main file repository           : /var/folders/2v/xbgp75_9785319ghcgb4zr4r0000gp/T//molpro.ujqutRLIOs/

 id        : peterk

 Nodes                        nprocs
 Cardiff-University-G34YLXT77Y    1
 GA implementation: MPI file
 GA implementation (serial work in mppx): MPI file

 Using customized tuning parameters: mindgm=1; mindgv=20; mindgc=4; mindgr=1; noblas=0; minvec=7
 default implementation of scratch files=df  


 Variables initialized (1032), CPU time= 0.00 sec
 
 symmetry,nosym
 
 
 geometry={
 9
  o         -0.922075427238    0.661035175532   -0.004511951808
  h          0.042193368987    0.628562630671   -0.004158221689
  c         -1.383504346250   -0.674416801454    0.003760788250
  h         -2.469790848305   -0.643030365379    0.002898366921
  h         -1.061479151022   -1.233901361304   -0.877768215069
  h         -1.062541236219   -1.222596147687    0.892753686953
  o          1.993369735639    0.564530130397   -0.002063767774
  h          2.432573874862    0.952682329557   -0.761936449984
  h          2.431254029544    0.967134409455    0.751025764305
 }
 basis=aug-cc-pVDZ
 
 
 
 hf; hf; papt; mp4
 
 
 
 {put,xml;noorbitals,nobasis}
 Commands initialized (841), CPU time= 0.00 sec, 704 directives.
 Default parameters read. Elapsed time= 0.08 sec

 Checking input...
 Passed
1


                                         ***  PROGRAM SYSTEM MOLPRO  ***
                                       Copyright, TTI GmbH Stuttgart, 2015
                                    Version 2023.1 linked Tue Jun  6 09:54:11 2023


 **********************************************************************************************************************************
 LABEL *                                                                                                                                                                 
  64 bit serial version                                                                  DATE: 08-Jun-23          TIME: 21:55:54  
 **********************************************************************************************************************************

 SHA1:             8ebb0dd001088a5c915591db1a321413035db0b1
 **********************************************************************************************************************************

 Memory per process:       805 MW
 Total memory per node:   1074 MW
 Total GA space:           268 MW

 GA preallocation disabled
 GA check enabled

 Variable memory set to 805.3 MW

 ZSYMEL=NOSYM


 Geometry recognized as XYZ

 SETTING BASIS          =    AUG-CC-PVDZ


 Recomputing integrals since basis changed


 Using spherical harmonics

 Library entry O      S aug-cc-pVDZ          selected for orbital group  1
 Library entry O      P aug-cc-pVDZ          selected for orbital group  1
 Library entry O      D aug-cc-pVDZ          selected for orbital group  1
 Library entry H      S aug-cc-pVDZ          selected for orbital group  2
 Library entry H      P aug-cc-pVDZ          selected for orbital group  2
 Library entry C      S aug-cc-pVDZ          selected for orbital group  3
 Library entry C      P aug-cc-pVDZ          selected for orbital group  3
 Library entry C      D aug-cc-pVDZ          selected for orbital group  3


 PROGRAM * SEWARD (Integral evaluation for generally contracted gaussian basis sets)     Author: Roland Lindh, 1990

 Geometry written to block  1 of record 700


 Point group  C1  



 ATOMIC COORDINATES

 NR  ATOM    CHARGE       X              Y              Z

   1  O       8.00   -1.742470024    1.249175440   -0.008526353
   2  H       1.00    0.079733912    1.187811224   -0.007857900
   3  C       6.00   -2.614444307   -1.274463049    0.007106860
   4  H       1.00   -4.667228288   -1.215151280    0.005477120
   5  H       1.00   -2.005904882   -2.331735638   -1.658741527
   6  H       1.00   -2.007911933   -2.310371880    1.687059965
   7  O       8.00    3.766922865    1.066807336   -0.003899956
   8  H       1.00    4.596898401    1.800308687   -1.439851215
   9  H       1.00    4.594404255    1.827619160    1.419233007

 Bond lengths in Bohr (Angstrom)

 1-2  1.823237010  1-3  2.670081417  3-4  2.053641307  3-5  2.064750931  3-6  2.064759324
     ( 0.964815476)     ( 1.412946237)     ( 1.086740179)     ( 1.092619139)     ( 1.092623580)

 7-8  1.813515823  7-9  1.813523507
     ( 0.959671245)     ( 0.959675312)

 Bond angles

  1-3-4  107.40559297   1-3-5  112.51964703   1-3-6  112.52114044   2-1-3  107.13200477

  4-3-5  107.98411746   4-3-6  107.98497415   5-3-6  108.23763290   8-7-9  104.05491273

 NUCLEAR CHARGE:                   28
 NUMBER OF PRIMITIVE AOS:         177
 NUMBER OF SYMMETRY AOS:          171
 NUMBER OF CONTRACTIONS:          123   (  123A   )
 NUMBER OF INNER CORE ORBITALS:     0   (    0A   )
 NUMBER OF OUTER CORE ORBITALS:     3   (    3A   )
 NUMBER OF VALENCE ORBITALS:       18   (   18A   )


 NUCLEAR REPULSION ENERGY   78.74537443


 Eigenvalues of metric

         1 0.527E-03 0.728E-03 0.730E-03 0.827E-03 0.173E-02 0.191E-02 0.271E-02 0.374E-02


 Contracted 2-electron integrals neglected if value below      1.0D-11
 AO integral compression algorithm  1   Integral accuracy      1.0D-11

     133.431 MB (compressed) written to integral file ( 49.0%)


 NUMBER OF SORTED TWO-ELECTRON INTEGRALS:   29081751.     BUFFER LENGTH:  32768
 NUMBER OF SEGMENTS:   2  SEGMENT LENGTH:   15997996      RECORD LENGTH: 524288

 Memory used in sort:      16.56 MW

 SORT1 READ    34060019. AND WROTE    28200894. INTEGRALS IN     81 RECORDS. CPU TIME:     0.22 SEC, REAL TIME:     0.29 SEC
 SORT2 READ    28200894. AND WROTE    29081751. INTEGRALS IN    509 RECORDS. CPU TIME:     0.25 SEC, REAL TIME:     0.32 SEC

 FILE SIZES:   FILE 1:   164.1 MBYTE,  FILE 4:   339.8 MBYTE,   TOTAL:    503.9 MBYTE

 OPERATOR DM      FOR CENTER  0  COORDINATES:    0.000000    0.000000    0.000000


 **********************************************************************************************************************************
 DATASETS  * FILE   NREC   LENGTH (MB)   RECORD NAMES
              1      19      139.68       500      610      700      900      950      970     1000      129      960     1100   
                                          VAR    BASINP    GEOM    SYMINP    ZMAT    AOBASIS   BASIS     P2S    ABASIS      S 
                                         1400     1410     1200     1210     1080     1600     1650     1300     1700   
                                           T        V       H0       H01     AOSYM     SMH    MOLCAS    ERIS     OPER   

 PROGRAMS   *        TOTAL       INT
 CPU TIMES  *         1.38      1.28
 REAL TIME  *         2.16 SEC
 DISK USED  *       481.06 MB
 **********************************************************************************************************************************


 Program * Restricted Hartree-Fock

 Orbital guess generated from atomic densities. Full valence occupancy:   21

 Initial occupancy:  14

 NELEC=   28   SYM=1   MS2= 0   THRE=1.0D-08   THRD=3.2D-06   THRG=3.2D-06  HFMA2=F  DIIS_START=2   DIIS_MAX=10   DIIS_INCORE=F

 Level shifts:    0.00 (CLOSED)    0.00 (OPEN)    0.30 (GAP_MIN)

 ITER           ETOT              DE          GRAD        DDIFF     DIIS  NEXP   TIME(IT)  TIME(TOT)  DIAG
   1     -191.04481802    -191.04481802     0.00D+00     0.82D-01     0     0       0.14      0.26    start
   2     -191.09431003      -0.04949201     0.67D-02     0.11D-01     1     0       0.13      0.39    diag
   3     -191.10772948      -0.01341945     0.35D-02     0.36D-02     2     0       0.13      0.52    diag
   4     -191.10843347      -0.00070398     0.59D-03     0.93D-03     3     0       0.14      0.66    diag
   5     -191.10847349      -0.00004002     0.12D-03     0.22D-03     4     0       0.15      0.81    diag
   6     -191.10847545      -0.00000196     0.27D-04     0.51D-04     5     0       0.14      0.95    diag
   7     -191.10847573      -0.00000029     0.13D-04     0.17D-04     6     0       0.14      1.09    diag
   8     -191.10847575      -0.00000002     0.22D-05     0.50D-05     7     0       0.13      1.22    fixocc
   9     -191.10847576      -0.00000000     0.51D-06     0.94D-06     8     0       0.14      1.36    diag
  10     -191.10847576      -0.00000000     0.15D-06     0.25D-06     0     0       0.13      1.49    diag/orth

 Final occupancy:  14

 !RHF STATE 1.1 Energy               -191.108475755651
  RHF One-electron energy            -418.353962944770
  RHF Two-electron energy             148.500112754970
  RHF Kinetic energy                  190.835049686542
  RHF Nuclear energy                   78.745374434150
  RHF Virial quotient                  -1.001432787476

 !RHF STATE 1.1 Dipole moment           1.24483859    -0.00307941    -0.00095793
 Dipole moment /Debye                   3.16406410    -0.00782708    -0.00243481

 Orbital energies:

           1.1          2.1          3.1          4.1          5.1          6.1          7.1          8.1          9.1         10.1
    -20.603732   -20.538910   -11.259185    -1.384078    -1.336207    -0.906504    -0.743263    -0.679032    -0.611911    -0.598755

          11.1         12.1         13.1         14.1         15.1         16.1
     -0.573206    -0.538173    -0.478630    -0.425267     0.027401     0.049046


 HOMO     14.1    -0.425267 =     -11.5721eV
 LUMO     15.1     0.027401 =       0.7456eV
 LUMO-HOMO         0.452667 =      12.3177eV

 Orbitals saved in record  2100.2


 **********************************************************************************************************************************
 DATASETS  * FILE   NREC   LENGTH (MB)   RECORD NAMES
              1      19      139.68       500      610      700      900      950      970     1000      129      960     1100   
                                          VAR    BASINP    GEOM    SYMINP    ZMAT    AOBASIS   BASIS     P2S    ABASIS      S 
                                         1400     1410     1200     1210     1080     1600     1650     1300     1700   
                                           T        V       H0       H01     AOSYM     SMH    MOLCAS    ERIS     OPER   

              2       4        0.75       700     1000      520     2100   
                                         GEOM     BASIS   MCVARS     RHF  

 PROGRAMS   *        TOTAL    HF-SCF       INT
 CPU TIMES  *         2.88      1.49      1.28
 REAL TIME  *         4.40 SEC
 DISK USED  *       481.06 MB
 **********************************************************************************************************************************


 Program * Restricted Hartree-Fock

 Molecular orbitals read from record     2100.2  Type=RHF/CANONICAL  

 Initial occupancy:  14

 NELEC=   28   SYM=1   MS2= 0   THRE=1.0D-08   THRD=3.2D-06   THRG=3.2D-06  HFMA2=F  DIIS_START=2   DIIS_MAX=10   DIIS_INCORE=F

 Level shifts:    0.00 (CLOSED)    0.00 (OPEN)    0.30 (GAP_MIN)

 ITER           ETOT              DE          GRAD        DDIFF     DIIS  NEXP   TIME(IT)  TIME(TOT)  DIAG
   1     -191.10847576    -191.10847576     0.00D+00     0.84D-01     0     0       0.13      0.13    start
   2     -191.10847576      -0.00000000     0.61D-07     0.10D-06     1     0       0.14      0.27    diag

 Final occupancy:  14

 !RHF STATE 1.1 Energy               -191.108475755660
  RHF One-electron energy            -418.353979926770
  RHF Two-electron energy             148.500129736959
  RHF Kinetic energy                  190.835060898242
  RHF Nuclear energy                   78.745374434150
  RHF Virial quotient                  -1.001432728641

 !RHF STATE 1.1 Dipole moment           1.24483709    -0.00308154    -0.00095792
 Dipole moment /Debye                   3.16406028    -0.00783250    -0.00243478

 Orbital energies:

           1.1          2.1          3.1          4.1          5.1          6.1          7.1          8.1          9.1         10.1
    -20.603731   -20.538913   -11.259190    -1.384077    -1.336208    -0.906506    -0.743263    -0.679033    -0.611911    -0.598757

          11.1         12.1         13.1         14.1         15.1         16.1
     -0.573208    -0.538173    -0.478631    -0.425268     0.027401     0.049046


 HOMO     14.1    -0.425268 =     -11.5721eV
 LUMO     15.1     0.027401 =       0.7456eV
 LUMO-HOMO         0.452669 =      12.3177eV

 Orbitals saved in record  2101.2


 **********************************************************************************************************************************
 DATASETS  * FILE   NREC   LENGTH (MB)   RECORD NAMES
              1      19      139.68       500      610      700      900      950      970     1000      129      960     1100   
                                          VAR    BASINP    GEOM    SYMINP    ZMAT    AOBASIS   BASIS     P2S    ABASIS      S 
                                         1400     1410     1200     1210     1080     1600     1650     1300     1700   
                                           T        V       H0       H01     AOSYM     SMH    MOLCAS    ERIS     OPER   

              2       5        1.26       700     1000      520     2100     2101   
                                         GEOM     BASIS   MCVARS     RHF      RHF  

 PROGRAMS   *        TOTAL    HF-SCF    HF-SCF       INT
 CPU TIMES  *         3.17      0.29      1.49      1.28
 REAL TIME  *         5.12 SEC
 DISK USED  *       481.06 MB
 **********************************************************************************************************************************


 PROGRAM * PAPT (Closed-shell)     Authors: C. Hampel, H.-J. Werner, 1991, P.J. Knowles, 2021


 Convergence thresholds:  THRVAR = 1.00D-08  THRDEN = 1.00D-06

 Number of core orbitals:           3 (   3 )
 Number of closed-shell orbitals:  11 (  11 )
 Number of external orbitals:     109 ( 109 )

 Molecular orbitals read from record     2101.2  Type=RHF/CANONICAL  

 Number of N-1 electron functions:              11
 Number of N-2 electron functions:              66
 Number of singly external CSFs:              1199
 Number of doubly external CSFs:            719400
 Total number of CSFs:                      720600

 Length of J-op  integral file:               0.00 MB
 Length of K-op  integral file:               1.10 MB

 Integral transformation finished. Total CPU:   0.50 sec, npass=  1  Memory used:   2.00 MW

 Reference energy:                   -191.10847576

                        CORR.ENERGY   TOTAL ENERGY   ENERGY CHANGE
 MP2:                   -0.58228255  -191.69075830    -0.58228255

 SCS-MP2 correlation energy:           -0.57452210   (PS=  1.200000  PT=  0.333333)
 SCS-MP2 total energy:               -191.68299786
 Iteration:   1     0.2200D+00
 Iteration:   2     0.3193D+00
 Iteration:   3     0.1124D+00
 Iteration:   4     0.6502D-01
 Iteration:   5     0.5534D+00
 Iteration:   6     0.8237D-01
 Iteration:   7     0.1643D+00
 Iteration:   8     0.1356D+00
 Iteration:   9     0.8546D-01
 Iteration:  10     0.3092D+00
 Iteration:  11     0.3606D-01
 Iteration:  12     0.2921D+00
 Iteration:  13     0.1803D-01
 Iteration:  14     0.1339D-01
 Iteration:  15     0.1835D-01
 Iteration:  16     0.4853D-02
 Iteration:  17     0.1177D-01
 Iteration:  18     0.2410D-02
 Iteration:  19     0.1162D-02
 Iteration:  20     0.1455D-01
 Iteration:  21     0.4100D-03
 Iteration:  22     0.6493D-03
 Iteration:  23     0.1755D-03
 Iteration:  24     0.1336D-03
 Iteration:  25     0.1244D-03
 Iteration:  26     0.3534D-04
 PAPT operator written to  7000.1
 PAPT orbitals and eigenvalues written to  7000.2

 MP3(D):                -0.60480120  -191.71327695    -0.02251865



 RESULTS
 =======

  Reference energy                   -191.108475755661
  MP3 singlet pair energy              -0.405192955764
  MP3 triplet pair energy              -0.199608240231
  MP3 correlation energy               -0.604801195994

 !MP3 total energy                   -191.713276951655

 Timing summary (sec):

 STEP                 CPU(USER)    SYS     CPU(TOT)    WALL
 Transformation          0.52      0.06      0.58      0.72
 CCSD iterations         6.64      0.14      6.78      3.70

 Program statistics:

 Available memory in ccsd:               805305870
 Min. memory needed in ccsd:               1995239
 Max. memory used in ccsd:                 2614165
 Max. memory used in cckext:               2150516 ( 1 integral passes)



 **********************************************************************************************************************************
 DATASETS  * FILE   NREC   LENGTH (MB)   RECORD NAMES
              1      21      151.43       500      610      700      900      950      970     1000      129      960     1100   
                                          VAR    BASINP    GEOM    SYMINP    ZMAT    AOBASIS   BASIS     P2S    ABASIS      S 
                                         1400     1410     1200     1210     1080     1600     1650     1300     1700     1380   
                                           T        V       H0       H01     AOSYM     SMH    MOLCAS    ERIS     OPER     JKOP   
                                         7000   
                                        PAPT AO    

              2       6        1.71       700     1000      520     2100     2101     7000   
                                         GEOM     BASIS   MCVARS     RHF      RHF     PAPT   

 PROGRAMS   *        TOTAL      PAPT    HF-SCF    HF-SCF       INT
 CPU TIMES  *         7.06      3.89      0.29      1.49      1.28
 REAL TIME  *         9.65 SEC
 DISK USED  *       481.06 MB
 **********************************************************************************************************************************


 PROGRAM * MP4 (Closed-shell)     Authors: C. Hampel, H.-J. Werner, 1991, M. Deegan, P.J. Knowles, 1992


 Convergence thresholds:  THRVAR = 1.00D-08  THRDEN = 1.00D-06

 MP4(T)     terms to be evaluated (factor= 0.000)


 Number of core orbitals:           3 (   3 )
 Number of closed-shell orbitals:  11 (  11 )
 Number of external orbitals:     109 ( 109 )

 Molecular orbitals read from record     7000.2  Type=PAPT/CANONICAL (state 1.1)

 Number of N-1 electron functions:              11
 Number of N-2 electron functions:              66
 Number of singly external CSFs:              1199
 Number of doubly external CSFs:            719400
 Total number of CSFs:                      720600

 Length of J-op  integral file:               0.00 MB
 Length of K-op  integral file:               1.10 MB

 Memory could be reduced to 19.48 Mwords without degradation in triples

 Integral transformation finished. Total CPU:   0.74 sec, npass=  1  Memory used:  13.25 MW
 Orbital energies read from record       7000.2  Type=PAPT/CANONICAL (state 1.1)

 Reference energy:                   -191.10847576

                        CORR.ENERGY   TOTAL ENERGY   ENERGY CHANGE
 MP2:                   -0.61045900  -191.71893475    -0.61045900

 SCS-MP2 correlation energy:           -0.60522631   (PS=  1.200000  PT=  0.333333)
 SCS-MP2 total energy:               -191.71370207

 MP3(D):                -0.61077271  -191.71924846    -0.00031371
 MP4(DQ):               -0.60836741  -191.71684317     0.00240529
 MP4(SDQ):              -0.61268366  -191.72115942    -0.00431625

 Norm of t1 vector:      0.05869358      S-energy:    -0.00431625      T1 diagnostic:  0.00884839

 Largest off-diagonal element in interal  block of Fock matrix:  0.11D+00
 Largest off-diagonal element in external block of Fock matrix:  0.18D+00


 Total CPU time for triples:     11.73 sec


 RESULTS
 =======

  Reference energy                   -191.108475755661
  MP4(SDQ) singlet pair energy         -0.407533391817
  MP4(SDQ) triplet pair energy         -0.200834023159
  MP4(SDQ) correlation energy          -0.612683664588

  Triples contribution                 -0.018382578035
  Total correlation energy             -0.631066242623

  MP4(SDQ) total energy              -191.721159420249
 !MP4(SDTQ) total energy             -191.739541998284

 Timing summary (sec):

 STEP                 CPU(USER)    SYS     CPU(TOT)    WALL
 Transformation          0.89      0.08      0.97      1.09
 CCSD iterations         8.62      0.05      8.67      1.62
 Triples                11.73      0.54     12.27     12.80

 Program statistics:

 Available memory in ccsd:               805305870
 Min. memory needed in ccsd:               1995239
 Max. memory used in ccsd:                 2614165
 Max. memory used in cckext:               2150516 ( 1 integral passes)



 **********************************************************************************************************************************
 DATASETS  * FILE   NREC   LENGTH (MB)   RECORD NAMES
              1      22      206.27       500      610      700      900      950      970     1000      129      960     1100   
                                          VAR    BASINP    GEOM    SYMINP    ZMAT    AOBASIS   BASIS     P2S    ABASIS      S 
                                         1400     1410     1200     1210     1080     1600     1650     1300     1700     1380   
                                           T        V       H0       H01     AOSYM     SMH    MOLCAS    ERIS     OPER     JKOP   
                                         7000     1380(1)
                                        PAPT AO   JKOP   

              2       6        1.71       700     1000      520     2100     2101     7000   
                                         GEOM     BASIS   MCVARS     RHF      RHF     PAPT   

 PROGRAMS   *        TOTAL       MP4      PAPT    HF-SCF    HF-SCF       INT
 CPU TIMES  *        21.14     14.08      3.89      0.29      1.49      1.28
 REAL TIME  *        25.21 SEC
 DISK USED  *       481.06 MB
 **********************************************************************************************************************************

 Dump information in style XML to xml output                                                                      

 Orbitals will not be exported.

 **********************************************************************************************************************************

 MP4/aug-cc-pVDZ energy=   -191.739541998284

             MP4            PAPT          HF-SCF          HF-SCF
   -191.73954200   -191.71327695   -191.10847576   -191.10847576
 **********************************************************************************************************************************
 Molpro calculation terminated
