
 Working directory              : /tmp/peterk/molpro.5QjEzF2wFh/
 Global scratch directory       : /tmp/peterk/molpro.5QjEzF2wFh/
 Wavefunction directory         : /home/peterk/wfu/
 Main file repository           : /tmp/peterk/molpro.5QjEzF2wFh/

 id        : peterk

 Nodes     nprocs
 marat        1
 GA implementation: MPI file
 GA implementation (serial work in mppx): MPI file

 Using customized tuning parameters: mindgm=1; mindgv=20; mindgc=4; mindgr=1; noblas=0; minvec=7
 default implementation of scratch files=df  


 Variables initialized (1032), CPU time= 0.00 sec
 
 core,small
 angstrom
 
 geometry={
 N;N,N,1.09811947
 }
 basis=cc-pCV5Z
 
 
 
 hf; mp4
 
 
 
 {put,xml;noorbitals,nobasis}
 Commands initialized (841), CPU time= 0.01 sec, 708 directives.
 Default parameters read. Elapsed time= 0.05 sec

 Checking input...
 Passed
1


                                         ***  PROGRAM SYSTEM MOLPRO  ***
                                       Copyright, TTI GmbH Stuttgart, 2015
                                    Version 2023.1 linked Sat Jun 10 08:01:27 2023


 **********************************************************************************************************************************
 LABEL *                                                                                                                                                                 
  (16 PROC) 64 bit serial version                                                        DATE: 12-Jun-23          TIME: 11:31:27  
 **********************************************************************************************************************************

 SHA1:             8376d659ba1296ca7ee514c57770fe2c96af278c
 **********************************************************************************************************************************

 Memory per process:      1074 MW
 Total memory per node:   1074 MW

 GA preallocation disabled
 GA check disabled

 Variable memory set to 1073.7 MW

 ZUNIT=ANG

 SETTING BASIS          =    CC-PCV5Z


 Recomputing integrals since basis changed


 Using spherical harmonics

 Library entry N      S cc-pCV5Z             selected for orbital group  1
 Library entry N      P cc-pCV5Z             selected for orbital group  1
 Library entry N      D cc-pCV5Z             selected for orbital group  1
 Library entry N      F cc-pCV5Z             selected for orbital group  1
 Library entry N      G cc-pCV5Z             selected for orbital group  1
 Library entry N      H cc-pCV5Z             selected for orbital group  1


 PROGRAM * SEWARD (Integral evaluation for generally contracted gaussian basis sets)     Author: Roland Lindh, 1990

 Geometry written to block  1 of record 700

 Orientation using atomic masses  
 Molecule type: Linear
 Symmetry elements: X,Y,Z
 Rotational constants:      59.8428370     59.8428370      0.0000000 GHz  (calculated with average atomic masses)

 Point group  D2h 



 ATOMIC COORDINATES

 NR  ATOM    CHARGE       X              Y              Z

   1  N       7.00    0.000000000    0.000000000   -1.037572525
   2  N       7.00    0.000000000    0.000000000    1.037572525

 Bond lengths in Bohr (Angstrom)

 1-2  2.075145050
     ( 1.098119470)

 NUCLEAR CHARGE:                   14
 NUMBER OF PRIMITIVE AOS:         424
 NUMBER OF SYMMETRY AOS:          324
 NUMBER OF CONTRACTIONS:          290   (   55Ag  +   35B3u +   35B2u +   20B1g +   55B1u +   35B2g +   35B3g +   20Au  )
 NUMBER OF INNER CORE ORBITALS:     0   (    0Ag  +    0B3u +    0B2u +    0B1g +    0B1u +    0B2g +    0B3g +    0Au  )
 NUMBER OF OUTER CORE ORBITALS:     2   (    1Ag  +    0B3u +    0B2u +    0B1g +    1B1u +    0B2g +    0B3g +    0Au  )
 NUMBER OF VALENCE ORBITALS:        8   (    2Ag  +    1B3u +    1B2u +    0B1g +    2B1u +    1B2g +    1B3g +    0Au  )


 NUCLEAR REPULSION ENERGY   23.61280721

 EXTRA SYMMETRY OF AOS IN SYMMETRY 1:   1 1 1 1 1 1 1 1 1 1   1 1 1 1 1 1 1 1 1 1   2 1 2 1 2 1 2 1 2 1   2 1 2 1 2 1 2 1 2 1
                                        2 1 2 1 3 2 1 3 2 1   3 2 2 3 1
 EXTRA SYMMETRY OF AOS IN SYMMETRY 2:   1 1 1 1 1 1 1 1 1 1   1 1 1 1 1 1 1 2 1 2   1 2 1 2 1 2 1 2 1 2   1 2 1 2 3
 EXTRA SYMMETRY OF AOS IN SYMMETRY 3:   1 1 1 1 1 1 1 1 1 1   1 1 1 1 1 1 1 2 1 2   1 2 1 2 1 2 1 2 1 2   1 2 1 2 3
 EXTRA SYMMETRY OF AOS IN SYMMETRY 4:   1 1 1 1 1 1 1 1 1 1   1 1 1 2 1 2 1 2 2 1
 EXTRA SYMMETRY OF AOS IN SYMMETRY 5:   1 1 1 1 1 1 1 1 1 1   1 1 1 1 1 1 1 1 1 1   2 1 2 1 2 1 2 1 2 1   2 1 2 1 2 1 2 1 2 1
                                        2 1 2 1 3 2 1 3 2 1   3 2 2 3 1
 EXTRA SYMMETRY OF AOS IN SYMMETRY 6:   1 1 1 1 1 1 1 1 1 1   1 1 1 1 1 1 1 2 1 2   1 2 1 2 1 2 1 2 1 2   1 2 1 2 3
 EXTRA SYMMETRY OF AOS IN SYMMETRY 7:   1 1 1 1 1 1 1 1 1 1   1 1 1 1 1 1 1 2 1 2   1 2 1 2 1 2 1 2 1 2   1 2 1 2 3
 EXTRA SYMMETRY OF AOS IN SYMMETRY 8:   1 1 1 1 1 1 1 1 1 1   1 1 1 2 1 2 1 2 2 1

 Eigenvalues of metric

         1 0.318E-05 0.184E-03 0.536E-03 0.123E-02 0.432E-02 0.679E-02 0.238E-01 0.358E-01
         2 0.437E-03 0.204E-01 0.355E-01 0.472E-01 0.622E-01 0.120E+00 0.174E+00 0.180E+00
         3 0.437E-03 0.204E-01 0.355E-01 0.472E-01 0.622E-01 0.120E+00 0.174E+00 0.180E+00
         4 0.630E-01 0.143E+00 0.160E+00 0.298E+00 0.407E+00 0.504E+00 0.539E+00 0.733E+00
         5 0.267E-05 0.299E-04 0.225E-03 0.309E-03 0.687E-03 0.277E-02 0.794E-02 0.141E-01
         6 0.427E-03 0.491E-03 0.310E-02 0.313E-01 0.389E-01 0.519E-01 0.104E+00 0.138E+00
         7 0.427E-03 0.491E-03 0.310E-02 0.313E-01 0.389E-01 0.519E-01 0.104E+00 0.138E+00
         8 0.141E-01 0.484E-01 0.659E-01 0.138E+00 0.262E+00 0.419E+00 0.449E+00 0.466E+00


 Contracted 2-electron integrals neglected if value below      1.0D-12
 AO integral compression algorithm  1   Integral accuracy      1.0D-12

     718.799 MB (compressed) written to integral file ( 45.7%)


 NUMBER OF SORTED TWO-ELECTRON INTEGRALS:  113590235.     BUFFER LENGTH:  32768
 NUMBER OF SEGMENTS:   8  SEGMENT LENGTH:   15999480      RECORD LENGTH: 524288

 Memory used in sort:      16.56 MW

 SORT1 READ   196559208. AND WROTE    84575278. INTEGRALS IN    245 RECORDS. CPU TIME:     3.98 SEC, REAL TIME:     4.87 SEC
 SORT2 READ    84575278. AND WROTE   113590235. INTEGRALS IN   2742 RECORDS. CPU TIME:     1.69 SEC, REAL TIME:     2.10 SEC

 FILE SIZES:   FILE 1:   750.8 MBYTE,  FILE 4:  1027.7 MBYTE,   TOTAL:   1778.4 MBYTE

 OPERATOR DM      FOR CENTER  0  COORDINATES:    0.000000    0.000000    0.000000


 **********************************************************************************************************************************
 DATASETS  * FILE   NREC   LENGTH (MB)   RECORD NAMES
              1      19      440.24       500      610      700      900      950      970     1000      129      960     1100   
                                          VAR    BASINP    GEOM    SYMINP    ZMAT    AOBASIS   BASIS     P2S    ABASIS      S 
                                         1400     1410     1200     1210     1080     1600     1650     1300     1700   
                                           T        V       H0       H01     AOSYM     SMH    MOLCAS    ERIS     OPER   

 PROGRAMS   *        TOTAL       INT
 CPU TIMES  *        41.92     41.81
 REAL TIME  *        44.48 SEC
 DISK USED  *         1.66 GB
 **********************************************************************************************************************************


 Program * Restricted Hartree-Fock

 Orbital guess generated from atomic densities. Full valence occupancy:    3   1   1   0   3   1   1   0


 Initial occupancy:   3   1   1   0   2   0   0   0

 NELEC=   14   SYM=1   MS2= 0   THRE=1.0D-08   THRD=3.2D-06   THRG=3.2D-06  HFMA2=F  DIIS_START=2   DIIS_MAX=10   DIIS_INCORE=F

 Level shifts:    0.00 (CLOSED)    0.00 (OPEN)    0.30 (GAP_MIN)

 ITER           ETOT              DE          GRAD        DDIFF     DIIS  NEXP   TIME(IT)  TIME(TOT)  DIAG
   1     -108.98045437    -108.98045437     0.00D+00     0.65D-01     0     0       0.14      0.29    start
   2     -108.99188495      -0.01143057     0.62D-02     0.36D-02     1     0       0.17      0.46    diag
   3     -108.99268276      -0.00079781     0.18D-02     0.11D-02     2     0       0.17      0.63    diag
   4     -108.99274229      -0.00005953     0.35D-03     0.33D-03     3     0       0.14      0.77    diag
   5     -108.99274378      -0.00000149     0.58D-04     0.64D-04     4     0       0.15      0.92    diag
   6     -108.99274381      -0.00000003     0.73D-05     0.95D-05     5     0       0.17      1.09    diag
   7     -108.99274381      -0.00000000     0.13D-05     0.18D-05     6     0       0.15      1.24    diag
   8     -108.99274381      -0.00000000     0.16D-06     0.14D-06     0     0       0.15      1.39    fixocc

 Final occupancy:   3   1   1   0   2   0   0   0

 !RHF STATE 1.1 Energy               -108.992743809226
  RHF One-electron energy            -194.266565080950
  RHF Two-electron energy              61.661014065740
  RHF Kinetic energy                  108.767848346964
  RHF Nuclear energy                   23.612807205984
  RHF Virial quotient                  -1.002067664900

 !RHF STATE 1.1 Dipole moment           0.00000000     0.00000000     0.00000000
 Dipole moment /Debye                   0.00000000     0.00000000     0.00000000

 Orbital energies:

           1.1          2.1          3.1          4.1          5.1
    -15.682644    -1.470242    -0.634143     0.301105     0.346655

           1.2          2.2          3.2
     -0.613586     0.272518     0.905021

           1.3          2.3          3.3
     -0.613586     0.272518     0.905021

           1.4          2.4
      0.651675     1.923230

           1.5          2.5          3.5          4.5
    -15.679109    -0.778962     0.194581     0.569508

           1.6          2.6
      0.144581     0.408673

           1.7          2.7
      0.144581     0.408673

           1.8          2.8
      0.953150     2.338093


 HOMO      1.3    -0.613586 =     -16.6965eV
 LUMO      1.6     0.144581 =       3.9343eV
 LUMO-HOMO         0.758167 =      20.6308eV

 Orbitals saved in record  2100.2


 **********************************************************************************************************************************
 DATASETS  * FILE   NREC   LENGTH (MB)   RECORD NAMES
              1      19      440.24       500      610      700      900      950      970     1000      129      960     1100   
                                          VAR    BASINP    GEOM    SYMINP    ZMAT    AOBASIS   BASIS     P2S    ABASIS      S 
                                         1400     1410     1200     1210     1080     1600     1650     1300     1700   
                                           T        V       H0       H01     AOSYM     SMH    MOLCAS    ERIS     OPER   

              2       4        0.62       700     1000      520     2100   
                                         GEOM     BASIS   MCVARS     RHF  

 PROGRAMS   *        TOTAL    HF-SCF       INT
 CPU TIMES  *        43.31      1.39     41.81
 REAL TIME  *        46.17 SEC
 DISK USED  *         1.66 GB
 **********************************************************************************************************************************


 PROGRAM * MP4 (Closed-shell)     Authors: C. Hampel, H.-J. Werner, 1991, M. Deegan, P.J. Knowles, 1992


 CORETYPE=SMALL

 Convergence thresholds:  THRVAR = 1.00D-08  THRDEN = 1.00D-06

 MP4(T)     terms to be evaluated (factor= 0.000)


 Number of closed-shell orbitals:   7 (   3   1   1   0   2   0   0   0 )
 Number of external orbitals:     283 (  52  34  34  20  53  35  35  20 )

 Molecular orbitals read from record     2100.2  Type=RHF/CANONICAL  

 Number of N-1 electron functions:               7
 Number of N-2 electron functions:              28
 Number of singly external CSFs:               330
 Number of doubly external CSFs:            259499
 Total number of CSFs:                      259830

 Length of J-op  integral file:               0.00 MB
 Length of K-op  integral file:               0.87 MB

 Memory could be reduced to 25.94 Mwords without degradation in triples

 Integral transformation finished. Total CPU:   0.82 sec, npass=  1  Memory used:   6.97 MW

 Reference energy:                   -108.99274381

                        CORR.ENERGY   TOTAL ENERGY   ENERGY CHANGE
 MP2:                   -0.52324675  -109.51599056    -0.52324675

 SCS-MP2 correlation energy:           -0.53034870   (PS=  1.200000  PT=  0.333333)
 SCS-MP2 total energy:               -109.52309251

 MP3(D):                -0.51216535  -109.50490916     0.01108140
 MP4(DQ):               -0.51232390  -109.50506771    -0.00015856
 MP4(SDQ):              -0.51913751  -109.51188132    -0.00681361

 Norm of t1 vector:      0.05981330      S-energy:    -0.00681361      T1 diagnostic:  0.01130365


 Total CPU time for triples:      9.70 sec


 RESULTS
 =======

  Reference energy                   -108.992743809226

  Correlated core orbitals:             1.1       1.5
  Orbital energies:                   -15.6826  -15.6791

  MP4(SDQ) core-core energy            -0.082681523760
  MP4(SDQ) core-valence energy         -0.033866691476
  MP4(SDQ) valence correlation ener    -0.402589294279

  MP4(SDQ) singlet pair energy         -0.362341823605
  MP4(SDQ) triplet pair energy         -0.149982079860
  MP4(SDQ) correlation energy          -0.519137509515

  Triples contribution                 -0.026966913361
  Total correlation energy             -0.546104422875

  MP4(SDQ) total energy              -109.511881318741
 !MP4(SDTQ) total energy             -109.538848232101

 Timing summary (sec):

 STEP                 CPU(USER)    SYS     CPU(TOT)    WALL
 Transformation          0.82      0.21      1.03      1.05
 CCSD iterations        44.69      0.13     44.82      1.11
 Triples                 9.70      0.42     10.12     10.11

 Program statistics:

 Available memory in ccsd:              1073741625
 Min. memory needed in ccsd:                823396
 Max. memory used in ccsd:                 1041247
 Max. memory used in cckext:                924934 ( 1 integral passes)



 **********************************************************************************************************************************
 DATASETS  * FILE   NREC   LENGTH (MB)   RECORD NAMES
              1      20      521.36       500      610      700      900      950      970     1000      129      960     1100   
                                          VAR    BASINP    GEOM    SYMINP    ZMAT    AOBASIS   BASIS     P2S    ABASIS      S 
                                         1400     1410     1200     1210     1080     1600     1650     1300     1700     1380   
                                           T        V       H0       H01     AOSYM     SMH    MOLCAS    ERIS     OPER     JKOP   

              2       4        0.62       700     1000      520     2100   
                                         GEOM     BASIS   MCVARS     RHF  

 PROGRAMS   *        TOTAL       MP4    HF-SCF       INT
 CPU TIMES  *        54.85     11.53      1.39     41.81
 REAL TIME  *        58.46 SEC
 DISK USED  *         1.66 GB
 **********************************************************************************************************************************

 Dump information in style XML to xml output                                                                      

 Orbitals will not be exported.

 **********************************************************************************************************************************

 MP4/cc-pCV5Z energy=   -109.538848232101

             MP4          HF-SCF
   -109.53884823   -108.99274381
 **********************************************************************************************************************************
 Molpro calculation terminated
