
 Working directory              : /var/folders/2v/xbgp75_9785319ghcgb4zr4r0000gp/T//molpro.gpREJcmr55/
 Global scratch directory       : /var/folders/2v/xbgp75_9785319ghcgb4zr4r0000gp/T//molpro.gpREJcmr55/
 Wavefunction directory         : /Users/sacpjk/wfu/
 Main file repository           : /var/folders/2v/xbgp75_9785319ghcgb4zr4r0000gp/T//molpro.gpREJcmr55/

 id        : peterk

 Nodes                        nprocs
 Cardiff-University-G34YLXT77Y    1
 GA implementation: MPI file
 GA implementation (serial work in mppx): MPI file

 Using customized tuning parameters: mindgm=1; mindgv=20; mindgc=4; mindgr=1; noblas=0; minvec=7
 default implementation of scratch files=df  


 Variables initialized (1032), CPU time= 0.00 sec
 
 symmetry,nosym
 
 
 geometry={
           12
     N         -1.20191411     -0.75939405      0.00000000
     P         -1.05835407      0.12455110     -1.47716751
     N          0.58567944      0.70758372     -1.37545632
     P          1.60012828      0.48099719      0.00000000
     N          0.58567944      0.70758372      1.37545632
     P         -1.05835407      0.12455110      1.47716751
     H         -0.68479837     -1.62767732      0.00000000
     H         -0.84723388     -1.04883155     -2.25457079
     H          0.68270745      1.63664799     -1.76047085
     H          1.56098630     -0.93382834      0.00000000
     H          0.68270745      1.63664799      1.76047085
     H         -0.84723388     -1.04883155      2.25457079
 }
 basis=cc-pVTZ
 
 
 
 hf; hf; papt; mp2
 
 
 
 {put,xml;noorbitals,nobasis}
 Commands initialized (841), CPU time= 0.01 sec, 704 directives.
 Default parameters read. Elapsed time= 0.46 sec

 Checking input...
 Passed
1


                                         ***  PROGRAM SYSTEM MOLPRO  ***
                                       Copyright, TTI GmbH Stuttgart, 2015
                                    Version 2023.1 linked Tue Jun  6 09:54:11 2023


 **********************************************************************************************************************************
 LABEL *                                                                                                                                                                 
  64 bit serial version                                                                  DATE: 13-Jun-23          TIME: 06:28:58  
 **********************************************************************************************************************************

 SHA1:             8ebb0dd001088a5c915591db1a321413035db0b1
 **********************************************************************************************************************************

 Memory per process:       393 MW
 Total memory per node:    524 MW
 Total GA space:           131 MW

 GA preallocation disabled
 GA check enabled

 Variable memory set to 393.2 MW

 ZSYMEL=NOSYM


 Geometry recognized as XYZ

 SETTING BASIS          =    CC-PVTZ


 Recomputing integrals since basis changed


 Using spherical harmonics

 Library entry N      S cc-pVTZ              selected for orbital group  1
 Library entry N      P cc-pVTZ              selected for orbital group  1
 Library entry N      D cc-pVTZ              selected for orbital group  1
 Library entry N      F cc-pVTZ              selected for orbital group  1
 Library entry P      S cc-pVTZ              selected for orbital group  2
 Library entry P      P cc-pVTZ              selected for orbital group  2
 Library entry P      D cc-pVTZ              selected for orbital group  2
 Library entry P      F cc-pVTZ              selected for orbital group  2
 Library entry H      S cc-pVTZ              selected for orbital group  7
 Library entry H      P cc-pVTZ              selected for orbital group  7
 Library entry H      D cc-pVTZ              selected for orbital group  7


 PROGRAM * SEWARD (Integral evaluation for generally contracted gaussian basis sets)     Author: Roland Lindh, 1990

 Geometry written to block  1 of record 700


 Point group  C1  



 ATOMIC COORDINATES

 NR  ATOM    CHARGE       X              Y              Z

   1  N       7.00   -2.271288493   -1.435046775    0.000000000
   2  P      15.00   -1.999999335    0.235367468   -2.791442034
   3  N       7.00    1.106773738    1.337139441   -2.599235741
   4  P      15.00    3.023804213    0.908952956    0.000000000
   5  N       7.00    1.106773738    1.337139441    2.599235741
   6  P      15.00   -1.999999335    0.235367468    2.791442034
   7  H       1.00   -1.294081370   -3.075864354    0.000000000
   8  H       1.00   -1.601039997   -1.982004380   -4.260521322
   9  H       1.00    1.290130104    3.092816464   -3.326807757
  10  H       1.00    2.949836591   -1.764679810    0.000000000
  11  H       1.00    1.290130104    3.092816464    3.326807757
  12  H       1.00   -1.601039997   -1.982004380    4.260521322

 Bond lengths in Bohr (Angstrom)

 1-2  3.264357545  1-6  3.264357545  1-7  1.909768596  2-3  3.301951494  2-6  5.582884068
     ( 1.727423621)     ( 1.727423621)     ( 1.010606019)     ( 1.747317482)     ( 2.954335020)

  2- 8  2.689628305   3- 4  3.257971140   3- 9  1.909288454   4- 5  3.257971140   4-10  2.674655749
       ( 1.423290005)       ( 1.724044081)       ( 1.010351939)       ( 1.724044081)       ( 1.415366869)

  5- 6  3.301951494   5-11  1.909288454   6-12  2.689628305
       ( 1.747317482)       ( 1.010351939)       ( 1.423290005)

 Bond angles

  1-2-3  101.48795535   1-2-6   31.22617238   1-2-8   93.29834372   1-6-2   31.22617238

  1- 6- 5  101.48795535   1- 6-12   93.29834372   2- 1- 6  117.54765523   2- 1- 7  113.39852665

  2- 3- 4  123.79463993   2- 3- 9  112.02447692   2- 6- 5   86.66293158   2- 6-12  123.10681518

  3- 2- 6   86.66293158   3- 2- 8   99.63174455   3- 4- 5  105.84259494   3- 4-10   96.60965401

  4- 3- 9  111.61490224   4- 5- 6  123.79463993   4- 5-11  111.61490224   5- 4-10   96.60965401

  5- 6-12   99.63174455   6- 1- 7  113.39852665   6- 2- 8  123.10681518   6- 5-11  112.02447692

 NUCLEAR CHARGE:                   72
 NUMBER OF PRIMITIVE AOS:         435
 NUMBER OF SYMMETRY AOS:          399
 NUMBER OF CONTRACTIONS:          276   (  276A   )
 NUMBER OF INNER CORE ORBITALS:     3   (    3A   )
 NUMBER OF OUTER CORE ORBITALS:    15   (   15A   )
 NUMBER OF VALENCE ORBITALS:       30   (   30A   )


 NUCLEAR REPULSION ENERGY  480.51456426


 Eigenvalues of metric

         1 0.106E-02 0.115E-02 0.121E-02 0.155E-02 0.164E-02 0.191E-02 0.196E-02 0.202E-02


 Contracted 2-electron integrals neglected if value below      1.0D-11
 AO integral compression algorithm  1   Integral accuracy      1.0D-11

     2467.037 MB (compressed) written to integral file ( 39.7%)


 NUMBER OF SORTED TWO-ELECTRON INTEGRALS:  730632651.     BUFFER LENGTH:  32768
 NUMBER OF SEGMENTS:  46  SEGMENT LENGTH:   15999984      RECORD LENGTH: 262144

 Memory used in sort:      16.29 MW

 SORT1 READ   777536989. AND WROTE   638839366. INTEGRALS IN   3682 RECORDS. CPU TIME:     5.85 SEC, REAL TIME:     7.52 SEC
 SORT2 READ   638839366. AND WROTE   730632651. INTEGRALS IN   9411 RECORDS. CPU TIME:     4.19 SEC, REAL TIME:     5.85 SEC

 FILE SIZES:   FILE 1:  2500.1 MBYTE,  FILE 4:  7721.8 MBYTE,   TOTAL:  10221.8 MBYTE

 OPERATOR DM      FOR CENTER  0  COORDINATES:    0.000000    0.000000    0.000000


 **********************************************************************************************************************************
 DATASETS  * FILE   NREC   LENGTH (MB)   RECORD NAMES
              1      19     2193.63       500      610      700      900      950      970     1000      129      960     1100   
                                          VAR    BASINP    GEOM    SYMINP    ZMAT    AOBASIS   BASIS     P2S    ABASIS      S 
                                         1400     1410     1200     1210     1080     1600     1650     1300     1700   
                                           T        V       H0       H01     AOSYM     SMH    MOLCAS    ERIS     OPER   

 PROGRAMS   *        TOTAL       INT
 CPU TIMES  *        29.49     29.39
 REAL TIME  *        36.46 SEC
 DISK USED  *         9.52 GB
 **********************************************************************************************************************************


 Program * Restricted Hartree-Fock

 Orbital guess generated from atomic densities. Full valence occupancy:   48

 Initial occupancy:  36

 NELEC=   72   SYM=1   MS2= 0   THRE=1.0D-08   THRD=3.2D-06   THRG=3.2D-06  HFMA2=F  DIIS_START=2   DIIS_MAX=10   DIIS_INCORE=F

 Level shifts:    0.00 (CLOSED)    0.00 (OPEN)    0.30 (GAP_MIN)

 ITER           ETOT              DE          GRAD        DDIFF     DIIS  NEXP   TIME(IT)  TIME(TOT)  DIAG
   1    -1189.11658821   -1189.11658821     0.00D+00     0.57D-01     0     0       3.08      5.99    start
   2    -1189.18890194      -0.07231373     0.26D-02     0.41D-02     1     0       3.08      9.07    diag
   3    -1189.19742989      -0.00852796     0.94D-03     0.12D-02     2     0       3.08     12.15    diag
   4    -1189.19912649      -0.00169659     0.39D-03     0.53D-03     3     0       3.21     15.36    diag
   5    -1189.19921962      -0.00009313     0.74D-04     0.11D-03     4     0       3.29     18.65    diag
   6    -1189.19922919      -0.00000957     0.23D-04     0.39D-04     5     0       3.19     21.84    diag
   7    -1189.19922993      -0.00000074     0.55D-05     0.12D-04     6     0       3.22     25.06    diag
   8    -1189.19923001      -0.00000008     0.16D-05     0.38D-05     7     0       3.17     28.23    fixocc
   9    -1189.19923003      -0.00000001     0.70D-06     0.14D-05     8     0       3.16     31.39    diag
  10    -1189.19923003      -0.00000000     0.28D-06     0.66D-06     9     0       3.31     34.70    diag/orth
  11    -1189.19923003      -0.00000000     0.84D-07     0.17D-06     0     0       3.37     38.07    diag

 Final occupancy:  36

 !RHF STATE 1.1 Energy              -1189.199230027503
  RHF One-electron energy           -2599.553511667580
  RHF Two-electron energy             929.839717384797
  RHF Kinetic energy                 1188.753588001212
  RHF Nuclear energy                  480.514564255280
  RHF Virial quotient                  -1.000374881751

 !RHF STATE 1.1 Dipole moment           0.25953500    -0.12285027     0.00000000
 Dipole moment /Debye                   0.65967217    -0.31225425     0.00000000

 Orbital energies:

           1.1          2.1          3.1          4.1          5.1          6.1          7.1          8.1          9.1         10.1
    -79.989022   -79.989022   -79.986061   -15.564151   -15.555840   -15.555827    -7.523850    -7.523849    -7.520560    -5.417523

          11.1         12.1         13.1         14.1         15.1         16.1         17.1         18.1         19.1         20.1
     -5.417519    -5.417231    -5.417225    -5.416224    -5.416223    -5.414205    -5.413974    -5.413415    -1.220899    -1.151256

          21.1         22.1         23.1         24.1         25.1         26.1         27.1         28.1         29.1         30.1
     -1.146962    -0.843344    -0.837232    -0.758026    -0.672933    -0.630082    -0.617012    -0.598894    -0.550354    -0.521564

          31.1         32.1         33.1         34.1         35.1         36.1         37.1         38.1
     -0.489010    -0.449440    -0.423355    -0.380416    -0.363002    -0.331515     0.100224     0.129262


 HOMO     36.1    -0.331515 =      -9.0210eV
 LUMO     37.1     0.100224 =       2.7272eV
 LUMO-HOMO         0.431739 =      11.7482eV

 Orbitals saved in record  2100.2


 **********************************************************************************************************************************
 DATASETS  * FILE   NREC   LENGTH (MB)   RECORD NAMES
              1      19     2193.63       500      610      700      900      950      970     1000      129      960     1100   
                                          VAR    BASINP    GEOM    SYMINP    ZMAT    AOBASIS   BASIS     P2S    ABASIS      S 
                                         1400     1410     1200     1210     1080     1600     1650     1300     1700   
                                           T        V       H0       H01     AOSYM     SMH    MOLCAS    ERIS     OPER   

              2       4        1.77       700     1000      520     2100   
                                         GEOM     BASIS   MCVARS     RHF  

 PROGRAMS   *        TOTAL    HF-SCF       INT
 CPU TIMES  *        67.57     38.08     29.39
 REAL TIME  *        80.26 SEC
 DISK USED  *         9.52 GB
 **********************************************************************************************************************************


 Program * Restricted Hartree-Fock

 Molecular orbitals read from record     2100.2  Type=RHF/CANONICAL  

 Initial occupancy:  36

 NELEC=   72   SYM=1   MS2= 0   THRE=1.0D-08   THRD=3.2D-06   THRG=3.2D-06  HFMA2=F  DIIS_START=2   DIIS_MAX=10   DIIS_INCORE=F

 Level shifts:    0.00 (CLOSED)    0.00 (OPEN)    0.30 (GAP_MIN)

 ITER           ETOT              DE          GRAD        DDIFF     DIIS  NEXP   TIME(IT)  TIME(TOT)  DIAG
   1    -1189.19923003   -1189.19923003     0.00D+00     0.58D-01     0     0       3.38      3.38    start
   2    -1189.19923003      -0.00000000     0.52D-07     0.89D-07     1     0       3.30      6.68    diag

 Final occupancy:  36

 !RHF STATE 1.1 Energy              -1189.199230027548
  RHF One-electron energy           -2599.553530567366
  RHF Two-electron energy             929.839736284539
  RHF Kinetic energy                 1188.753595075913
  RHF Nuclear energy                  480.514564255280
  RHF Virial quotient                  -1.000374875797

 !RHF STATE 1.1 Dipole moment           0.25954556    -0.12284697     0.00000000
 Dipole moment /Debye                   0.65969902    -0.31224584     0.00000000

 Orbital energies:

           1.1          2.1          3.1          4.1          5.1          6.1          7.1          8.1          9.1         10.1
    -79.989024   -79.989024   -79.986061   -15.564160   -15.555837   -15.555824    -7.523851    -7.523850    -7.520560    -5.417524

          11.1         12.1         13.1         14.1         15.1         16.1         17.1         18.1         19.1         20.1
     -5.417521    -5.417232    -5.417226    -5.416226    -5.416224    -5.414205    -5.413974    -5.413415    -1.220900    -1.151257

          21.1         22.1         23.1         24.1         25.1         26.1         27.1         28.1         29.1         30.1
     -1.146961    -0.843345    -0.837231    -0.758026    -0.672936    -0.630081    -0.617012    -0.598894    -0.550353    -0.521565

          31.1         32.1         33.1         34.1         35.1         36.1         37.1         38.1
     -0.489009    -0.449443    -0.423355    -0.380415    -0.363002    -0.331515     0.100224     0.129262


 HOMO     36.1    -0.331515 =      -9.0210eV
 LUMO     37.1     0.100224 =       2.7272eV
 LUMO-HOMO         0.431739 =      11.7482eV

 Orbitals saved in record  2101.2


 **********************************************************************************************************************************
 DATASETS  * FILE   NREC   LENGTH (MB)   RECORD NAMES
              1      19     2193.63       500      610      700      900      950      970     1000      129      960     1100   
                                          VAR    BASINP    GEOM    SYMINP    ZMAT    AOBASIS   BASIS     P2S    ABASIS      S 
                                         1400     1410     1200     1210     1080     1600     1650     1300     1700   
                                           T        V       H0       H01     AOSYM     SMH    MOLCAS    ERIS     OPER   

              2       5        3.91       700     1000      520     2100     2101   
                                         GEOM     BASIS   MCVARS     RHF      RHF  

 PROGRAMS   *        TOTAL    HF-SCF    HF-SCF       INT
 CPU TIMES  *        74.27      6.70     38.08     29.39
 REAL TIME  *        88.35 SEC
 DISK USED  *         9.52 GB
 **********************************************************************************************************************************


 PROGRAM * PAPT (Closed-shell)     Authors: C. Hampel, H.-J. Werner, 1991, P.J. Knowles, 2021


 Convergence thresholds:  THRVAR = 1.00D-08  THRDEN = 1.00D-06

 Number of core orbitals:          18 (  18 )
 Number of closed-shell orbitals:  18 (  18 )
 Number of external orbitals:     240 ( 240 )

 Molecular orbitals read from record     2101.2  Type=RHF/CANONICAL  

 Number of N-1 electron functions:              18
 Number of N-2 electron functions:             171
 Number of singly external CSFs:              4320
 Number of doubly external CSFs:           9333360
 Total number of CSFs:                     9337681

 Length of J-op  integral file:               0.00 MB
 Length of K-op  integral file:               5.29 MB

 Integral transformation finished. Total CPU:   8.95 sec, npass=  1  Memory used:  22.84 MW

 Reference energy:                  -1189.19923003

                        CORR.ENERGY   TOTAL ENERGY   ENERGY CHANGE
 MP2:                   -1.07258336 -1190.27181338    -1.07258336

 SCS-MP2 correlation energy:           -1.06277363   (PS=  1.200000  PT=  0.333333)
 SCS-MP2 total energy:              -1190.26200366
 Iteration:   1     0.2135D+00
 Iteration:   2     0.3019D+00
 Iteration:   3     0.5092D-01
 Iteration:   4     0.4041D-01
 Iteration:   5     0.5011D-01
 Iteration:   6     0.9444D-02
 Iteration:   7     0.2111D-01
 Iteration:   8     0.3411D-02
 Iteration:   9     0.2565D-02
 Iteration:  10     0.3124D-02
 Iteration:  11     0.4182D-03
 Iteration:  12     0.1085D-02
 Iteration:  13     0.1680D-03
 Iteration:  14     0.1339D-03
 Iteration:  15     0.1532D-03
 Iteration:  16     0.4495D-04
 PAPT operator written to  7000.1
 PAPT orbitals and eigenvalues written to  7000.2

 MP3(D):                -1.11588718 -1190.31511721    -0.04330382



 RESULTS
 =======

  Reference energy                  -1189.199230027553
  MP3 singlet pair energy              -0.753127696004
  MP3 triplet pair energy              -0.362759484607
  MP3 correlation energy               -1.115887180611

 !MP3 total energy                  -1190.315117208164

 Timing summary (sec):

 STEP                 CPU(USER)    SYS     CPU(TOT)    WALL
 Transformation          9.44      1.21     10.65     10.90
 CCSD iterations       129.95      1.77    131.72     61.40

 Program statistics:

 Available memory in ccsd:               393214668
 Min. memory needed in ccsd:              22706089
 Max. memory used in ccsd:                31188841
 Max. memory used in cckext:              26863856 ( 1 integral passes)



 **********************************************************************************************************************************
 DATASETS  * FILE   NREC   LENGTH (MB)   RECORD NAMES
              1      21     2344.34       500      610      700      900      950      970     1000      129      960     1100   
                                          VAR    BASINP    GEOM    SYMINP    ZMAT    AOBASIS   BASIS     P2S    ABASIS      S 
                                         1400     1410     1200     1210     1080     1600     1650     1300     1700     1380   
                                           T        V       H0       H01     AOSYM     SMH    MOLCAS    ERIS     OPER     JKOP   
                                         7000   
                                        PAPT AO    

              2       6        5.76       700     1000      520     2100     2101     7000   
                                         GEOM     BASIS   MCVARS     RHF      RHF     PAPT   

 PROGRAMS   *        TOTAL      PAPT    HF-SCF    HF-SCF       INT
 CPU TIMES  *       139.30     65.03      6.70     38.08     29.39
 REAL TIME  *       160.86 SEC
 DISK USED  *         9.52 GB
 **********************************************************************************************************************************


 PROGRAM * MP2 (Closed-shell)     Authors: C. Hampel, H.-J. Werner, 1991, M. Deegan, P.J. Knowles, 1992


 Convergence thresholds:  THRVAR = 1.00D-08  THRDEN = 1.00D-06

 Number of core orbitals:          18 (  18 )
 Number of closed-shell orbitals:  18 (  18 )
 Number of external orbitals:     240 ( 240 )

 Molecular orbitals read from record     7000.2  Type=PAPT/CANONICAL (state 1.1)

 Number of N-1 electron functions:              18
 Number of N-2 electron functions:             171
 Number of singly external CSFs:              4320
 Number of doubly external CSFs:           9333360
 Total number of CSFs:                     9337681

 Length of J-op  integral file:               0.00 MB
 Length of K-op  integral file:               5.29 MB

 Integral transformation finished. Total CPU:   9.59 sec, npass=  1  Memory used:  22.84 MW
 Orbital energies read from record       7000.2  Type=PAPT/CANONICAL (state 1.1)

 Memory needed for MP2:                      0.35 MW

 SCS-MP2 correlation energy:           -1.127229858677   (PS=  1.200000  PT=  0.333333)
 SCS-MP2 total energy:              -1190.326459886230


  Reference energy                  -1189.199230027553
  MP2 singlet pair energy              -0.733560329149
  MP2 triplet pair energy              -0.396895923801
  MP2 correlation energy               -1.130456252950

 !MP2 total energy                  -1190.329686280503


 **********************************************************************************************************************************
 DATASETS  * FILE   NREC   LENGTH (MB)   RECORD NAMES
              1      21     2344.34       500      610      700      900      950      970     1000      129      960     1100   
                                          VAR    BASINP    GEOM    SYMINP    ZMAT    AOBASIS   BASIS     P2S    ABASIS      S 
                                         1400     1410     1200     1210     1080     1600     1650     1300     1700     1380   
                                           T        V       H0       H01     AOSYM     SMH    MOLCAS    ERIS     OPER     JKOP   
                                         7000   
                                        PAPT AO    

              2       6        5.76       700     1000      520     2100     2101     7000   
                                         GEOM     BASIS   MCVARS     RHF      RHF     PAPT   

 PROGRAMS   *        TOTAL       MP2      PAPT    HF-SCF    HF-SCF       INT
 CPU TIMES  *       153.13     13.83     65.03      6.70     38.08     29.39
 REAL TIME  *       177.30 SEC
 DISK USED  *         9.52 GB
 **********************************************************************************************************************************

 Dump information in style XML to xml output                                                                      

 Orbitals will not be exported.

 **********************************************************************************************************************************

 MP2/cc-pVTZ energy=  -1190.329686280503

             MP2            PAPT          HF-SCF          HF-SCF
  -1190.32968628  -1190.31511721  -1189.19923003  -1189.19923003
 **********************************************************************************************************************************
 Molpro calculation terminated
