
 Working directory              : /tmp/peterk/molpro.IFk9QyKMMv/
 Global scratch directory       : /tmp/peterk/molpro.IFk9QyKMMv/
 Wavefunction directory         : /home/peterk/wfu/
 Main file repository           : /tmp/peterk/molpro.IFk9QyKMMv/

 id        : peterk

 Nodes     nprocs
 marat        1
 GA implementation: MPI file
 GA implementation (serial work in mppx): MPI file

 Using customized tuning parameters: mindgm=1; mindgv=20; mindgc=4; mindgr=1; noblas=0; minvec=7
 default implementation of scratch files=df  


 Variables initialized (1032), CPU time= 0.01 sec
 
 symmetry,nosym
 
 
 geometry={
            3
     C          0.37482171      0.51783010      0.00000000
     N          0.37482171     -0.67052208      0.00000000
     H         -0.74964343      0.15269198      0.00000000
 }
 basis=cc-pVQZ
 
 
 
 hf; ccsd
 
 
 
 {put,xml;noorbitals,nobasis}
 Commands initialized (841), CPU time= 0.01 sec, 708 directives.
 Default parameters read. Elapsed time= 0.06 sec

 Checking input...
 Passed
1


                                         ***  PROGRAM SYSTEM MOLPRO  ***
                                       Copyright, TTI GmbH Stuttgart, 2015
                                    Version 2023.1 linked Sat Jun 10 08:01:27 2023


 **********************************************************************************************************************************
 LABEL *                                                                                                                                                                 
  (16 PROC) 64 bit serial version                                                        DATE: 10-Jun-23          TIME: 19:42:05  
 **********************************************************************************************************************************

 SHA1:             8376d659ba1296ca7ee514c57770fe2c96af278c
 **********************************************************************************************************************************

 Memory per process:      1074 MW
 Total memory per node:   1074 MW

 GA preallocation disabled
 GA check disabled

 Variable memory set to 1073.7 MW

 ZSYMEL=NOSYM


 Geometry recognized as XYZ

 SETTING BASIS          =    CC-PVQZ


 Recomputing integrals since basis changed


 Using spherical harmonics

 Library entry C      S cc-pVQZ              selected for orbital group  1
 Library entry C      P cc-pVQZ              selected for orbital group  1
 Library entry C      D cc-pVQZ              selected for orbital group  1
 Library entry C      F cc-pVQZ              selected for orbital group  1
 Library entry C      G cc-pVQZ              selected for orbital group  1
 Library entry N      S cc-pVQZ              selected for orbital group  2
 Library entry N      P cc-pVQZ              selected for orbital group  2
 Library entry N      D cc-pVQZ              selected for orbital group  2
 Library entry N      F cc-pVQZ              selected for orbital group  2
 Library entry N      G cc-pVQZ              selected for orbital group  2
 Library entry H      S cc-pVQZ              selected for orbital group  3
 Library entry H      P cc-pVQZ              selected for orbital group  3
 Library entry H      D cc-pVQZ              selected for orbital group  3
 Library entry H      F cc-pVQZ              selected for orbital group  3


 PROGRAM * SEWARD (Integral evaluation for generally contracted gaussian basis sets)     Author: Roland Lindh, 1990

 Geometry written to block  1 of record 700


 Point group  C1  



 ATOMIC COORDINATES

 NR  ATOM    CHARGE       X              Y              Z

   1  C       6.00    0.708310377    0.978557068    0.000000000
   2  N       7.00    0.708310377   -1.267103092    0.000000000
   3  H       1.00   -1.416620774    0.288546024    0.000000000

 Bond lengths in Bohr (Angstrom)

 1-2  2.245660160  1-3  2.234154793  2-3  2.633510313
     ( 1.188352180)     ( 1.182263802)     ( 1.393593642)

 Bond angles

  1-2-3   53.79236971   1-3-2   54.19736348   2-1-3   72.01026681

 NUCLEAR CHARGE:                   14
 NUMBER OF PRIMITIVE AOS:         203
 NUMBER OF SYMMETRY AOS:          168
 NUMBER OF CONTRACTIONS:          140   (  140A   )
 NUMBER OF INNER CORE ORBITALS:     0   (    0A   )
 NUMBER OF OUTER CORE ORBITALS:     2   (    2A   )
 NUMBER OF VALENCE ORBITALS:        9   (    9A   )


 NUCLEAR REPULSION ENERGY   24.04636942

 EXTRA SYMMETRY OF AOS IN SYMMETRY 1:   1 1 1 1 1 1 1 2 1 1   2 1 1 2 1 1 2 1 1 2   1 2 1 1 2 1 2 1 1 2   1 2 1 1 2 1 2 1 2 1
                                        1 2 1 2 1 2 1 1 2 1   2 1 1 2 2 1 1 1 1 1   1 1 2 1 1 2 1 1 2 1   1 2 1 1 2 1 2 1 1 2
                                        1 2 1 1 2 1 2 1 1 2   1 2 1 2 1 1 2 1 2 1   2 1 1 2 1 2 1 1 2 2   1 1 1 1 1 1 2 1 1 2
                                        1 1 2 1 1 2 1 2 1 1   2 1 2 1 1 2 1 2 1 2

 Eigenvalues of metric

         1 0.208E-03 0.345E-03 0.524E-03 0.671E-03 0.181E-02 0.197E-02 0.295E-02 0.358E-02


 Contracted 2-electron integrals neglected if value below      1.0D-11
 AO integral compression algorithm  1   Integral accuracy      1.0D-11

     114.819 MB (compressed) written to integral file ( 24.3%)


 NUMBER OF SORTED TWO-ELECTRON INTEGRALS:   48713385.     BUFFER LENGTH:  32768
 NUMBER OF SEGMENTS:   4  SEGMENT LENGTH:   15999503      RECORD LENGTH: 524288

 Memory used in sort:      16.56 MW

 SORT1 READ    59152906. AND WROTE    19471159. INTEGRALS IN     57 RECORDS. CPU TIME:     0.24 SEC, REAL TIME:     0.40 SEC
 SORT2 READ    19471159. AND WROTE    48713385. INTEGRALS IN    438 RECORDS. CPU TIME:     0.39 SEC, REAL TIME:     0.47 SEC

 FILE SIZES:   FILE 1:   145.6 MBYTE,  FILE 4:   239.1 MBYTE,   TOTAL:    384.7 MBYTE

 OPERATOR DM      FOR CENTER  0  COORDINATES:    0.000000    0.000000    0.000000


 **********************************************************************************************************************************
 DATASETS  * FILE   NREC   LENGTH (MB)   RECORD NAMES
              1      19      117.91       500      610      700      900      950      970     1000      129      960     1100   
                                          VAR    BASINP    GEOM    SYMINP    ZMAT    AOBASIS   BASIS     P2S    ABASIS      S 
                                         1400     1410     1200     1210     1080     1600     1650     1300     1700   
                                           T        V       H0       H01     AOSYM     SMH    MOLCAS    ERIS     OPER   

 PROGRAMS   *        TOTAL       INT
 CPU TIMES  *         2.79      2.66
 REAL TIME  *         4.24 SEC
 DISK USED  *       367.29 MB
 **********************************************************************************************************************************


 Program * Restricted Hartree-Fock

 Orbital guess generated from atomic densities. Full valence occupancy:   11

 Initial occupancy:   7

 NELEC=   14   SYM=1   MS2= 0   THRE=1.0D-08   THRD=3.2D-06   THRG=3.2D-06  HFMA2=F  DIIS_START=2   DIIS_MAX=10   DIIS_INCORE=F

 Level shifts:    0.00 (CLOSED)    0.00 (OPEN)    0.30 (GAP_MIN)

 ITER           ETOT              DE          GRAD        DDIFF     DIIS  NEXP   TIME(IT)  TIME(TOT)  DIAG
   1      -92.81983521     -92.81983521     0.00D+00     0.50D-01     0     0       0.23      0.45    start
   2      -92.83557830      -0.01574308     0.34D-02     0.33D-02     1     0       0.22      0.67    diag
   3      -92.83763784      -0.00205954     0.11D-02     0.96D-03     2     0       0.23      0.90    diag
   4      -92.83836089      -0.00072305     0.52D-03     0.61D-03     3     0       0.22      1.12    diag
   5      -92.83862248      -0.00026159     0.31D-03     0.35D-03     4     0       0.23      1.35    diag
   6      -92.83874761      -0.00012513     0.16D-03     0.35D-03     5     0       0.20      1.55    diag
   7      -92.83875631      -0.00000870     0.42D-04     0.10D-03     6     0       0.23      1.78    diag
   8      -92.83875672      -0.00000041     0.11D-04     0.22D-04     7     0       0.22      2.00    fixocc
   9      -92.83875675      -0.00000002     0.30D-05     0.44D-05     8     0       0.22      2.22    diag
  10      -92.83875675      -0.00000000     0.82D-06     0.11D-05     9     0       0.23      2.45    diag/orth
  11      -92.83875675      -0.00000000     0.21D-06     0.22D-06     0     0       0.22      2.67    diag

 Final occupancy:   7

 !RHF STATE 1.1 Energy                -92.838756749098
  RHF One-electron energy            -172.520648618415
  RHF Two-electron energy              55.635522454088
  RHF Kinetic energy                   92.708091035315
  RHF Nuclear energy                   24.046369415229
  RHF Virial quotient                  -1.001409431608

 !RHF STATE 1.1 Dipole moment          -0.51501445     0.02159631    -0.00000000
 Dipole moment /Debye                  -1.30903616     0.05489234    -0.00000000

 Orbital energies:

           1.1          2.1          3.1          4.1          5.1          6.1          7.1          8.1          9.1
    -15.654333   -11.296517    -1.307573    -0.707303    -0.627214    -0.533832    -0.498033     0.093005     0.139309


 HOMO      7.1    -0.498033 =     -13.5522eV
 LUMO      8.1     0.093005 =       2.5308eV
 LUMO-HOMO         0.591038 =      16.0830eV

 Orbitals saved in record  2100.2


 **********************************************************************************************************************************
 DATASETS  * FILE   NREC   LENGTH (MB)   RECORD NAMES
              1      19      117.91       500      610      700      900      950      970     1000      129      960     1100   
                                          VAR    BASINP    GEOM    SYMINP    ZMAT    AOBASIS   BASIS     P2S    ABASIS      S 
                                         1400     1410     1200     1210     1080     1600     1650     1300     1700   
                                           T        V       H0       H01     AOSYM     SMH    MOLCAS    ERIS     OPER   

              2       4        0.73       700     1000      520     2100   
                                         GEOM     BASIS   MCVARS     RHF  

 PROGRAMS   *        TOTAL    HF-SCF       INT
 CPU TIMES  *         5.46      2.67      2.66
 REAL TIME  *         7.22 SEC
 DISK USED  *       367.29 MB
 **********************************************************************************************************************************


 PROGRAM * CCSD (Closed-shell coupled cluster)     Authors: C. Hampel, H.-J. Werner, 1991, M. Deegan, P.J. Knowles, 1992


 Convergence thresholds:  THRVAR = 1.00D-08  THRDEN = 1.00D-06

 Number of core orbitals:           2 (   2 )
 Number of closed-shell orbitals:   5 (   5 )
 Number of external orbitals:     133 ( 133 )

 Molecular orbitals read from record     2100.2  Type=RHF/CANONICAL  

 Number of N-1 electron functions:               5
 Number of N-2 electron functions:              15
 Number of singly external CSFs:               665
 Number of doubly external CSFs:            221445
 Total number of CSFs:                      222111

 Length of J-op  integral file:               0.00 MB
 Length of K-op  integral file:               1.41 MB
 Length of 3-ext integral record:             0.00 MB

 Integral transformation finished. Total CPU:   0.74 sec, npass=  1  Memory used:   9.20 MW

 Reference energy:                    -92.83875675

 MP2 singlet pair energy:              -0.23038212
 MP2 triplet pair energy:              -0.12945632
 MP2 correlation energy:               -0.35983844
 MP2 total energy:                    -93.19859519

 SCS-MP2 correlation energy:           -0.35700915   (PS=  1.200000  PT=  0.333333)
 SCS-MP2 total energy:                -93.19576590

 ITER.      SQ.NORM     CORR.ENERGY   TOTAL ENERGY   ENERGY CHANGE        DEN1      VAR(S)    VAR(P)  DIIS     TIME  TIME/IT
   1      1.11901833    -0.36461518   -93.20337193    -0.00477674     0.00858387  0.39D-02  0.27D-02  1  1     7.20     0.57
   2      1.13003197    -0.36550294   -93.20425969    -0.00088777    -0.01015571  0.31D-03  0.46D-03  2  2     7.76     0.59
   3      1.13855501    -0.36614287   -93.20489962    -0.00063993    -0.00331286  0.14D-03  0.48D-04  3  3     8.35     0.59
   4      1.14338937    -0.36634613   -93.20510288    -0.00020326    -0.00107841  0.36D-04  0.11D-04  4  4     8.93     0.60
   5      1.14640788    -0.36640366   -93.20516041    -0.00005753    -0.00043179  0.80D-05  0.16D-05  5  5     9.55     0.62
   6      1.14765913    -0.36638787   -93.20514462     0.00001578    -0.00012295  0.88D-06  0.35D-06  6  6    10.13     0.62
   7      1.14799835    -0.36638526   -93.20514201     0.00000261    -0.00002347  0.24D-06  0.48D-07  6  1    10.70     0.61
   8      1.14808537    -0.36638459   -93.20514134     0.00000067    -0.00000165  0.36D-07  0.84D-08  6  2    11.28     0.61
   9      1.14812002    -0.36638386   -93.20514061     0.00000073    -0.00000263  0.58D-08  0.17D-08  6  6    11.99     0.63

 Norm of t1 vector:      0.12052370      S-energy:     0.00000152      T1 diagnostic:  0.02694992
                                                                       D1 diagnostic:  0.06762958
                                                                       D2 diagnostic:  0.17736001 (internal)

 Singles amplitudes (print threshold =  0.500E-01):

         I         SYM. A    A   T(IA)

         5         1         1      0.05466516

 Doubles amplitudes (print threshold =  0.500E-01):

         I         J         SYM. A    SYM. B    A         B      T(IJ, AB)

         4         4         1         1         3         3     -0.07281448


 RESULTS
 =======

  Reference energy                    -92.838756749098
  CCSD singlet pair energy             -0.252760066558
  CCSD triplet pair energy             -0.113625313448
  CCSD correlation energy              -0.366383858031

 !CCSD total energy                   -93.205140607129

 Timing summary (sec):

 STEP                 CPU(USER)    SYS     CPU(TOT)    WALL
 Transformation          0.77      0.09      0.86      1.00
 CCSD iterations        11.23      0.27     11.50      5.67

 Program statistics:

 Available memory in ccsd:              1073741717
 Min. memory needed in ccsd:                868917
 Max. memory used in ccsd:                 1036917
 Max. memory used in cckext:                738858 ( 9 integral passes)



 **********************************************************************************************************************************
 DATASETS  * FILE   NREC   LENGTH (MB)   RECORD NAMES
              1      20      166.79       500      610      700      900      950      970     1000      129      960     1100   
                                          VAR    BASINP    GEOM    SYMINP    ZMAT    AOBASIS   BASIS     P2S    ABASIS      S 
                                         1400     1410     1200     1210     1080     1600     1650     1300     1700     1380   
                                           T        V       H0       H01     AOSYM     SMH    MOLCAS    ERIS     OPER     JKOP   

              2       4        0.73       700     1000      520     2100   
                                         GEOM     BASIS   MCVARS     RHF  

 PROGRAMS   *        TOTAL      CCSD    HF-SCF       INT
 CPU TIMES  *        11.65      6.19      2.67      2.66
 REAL TIME  *        14.27 SEC
 DISK USED  *       367.29 MB
 **********************************************************************************************************************************

 Dump information in style XML to xml output                                                                      

 Orbitals will not be exported.

 **********************************************************************************************************************************

 CCSD/cc-pVQZ energy=    -93.205140607129

            CCSD          HF-SCF
    -93.20514061    -92.83875675
 **********************************************************************************************************************************
 Molpro calculation terminated
