
 Working directory              : /var/folders/2v/xbgp75_9785319ghcgb4zr4r0000gp/T//molpro.boHtEv3RSs/
 Global scratch directory       : /var/folders/2v/xbgp75_9785319ghcgb4zr4r0000gp/T//molpro.boHtEv3RSs/
 Wavefunction directory         : /Users/sacpjk/wfu/
 Main file repository           : /var/folders/2v/xbgp75_9785319ghcgb4zr4r0000gp/T//molpro.boHtEv3RSs/

 id        : peterk

 Nodes                        nprocs
 Cardiff-University-G34YLXT77Y    1
 GA implementation: MPI file
 GA implementation (serial work in mppx): MPI file

 Using customized tuning parameters: mindgm=1; mindgv=20; mindgc=4; mindgr=1; noblas=0; minvec=7
 default implementation of scratch files=df  


 Variables initialized (1032), CPU time= 0.01 sec
 
 symmetry,nosym
 
 
 geometry={
 9
  o         -2.235437230087    0.143124292817    0.279182781720
  h         -2.652114069471    0.941997007504    0.604952458971
  h         -1.306410910992    0.253881357629    0.520131274942
  o          0.606525854540    0.239596225744    0.665558031726
  h          0.974508678778   -0.332481177259    1.343086358835
  c          1.071530925880   -0.232033690184   -0.596601078094
  h          0.640713830642    0.419060000765   -1.349715110074
  h          2.157494612880   -0.181240829481   -0.670913006230
  h          0.743188307883   -1.251903187533   -0.795681711954
 }
 basis=aug-cc-pVDZ
 
 
 
 hf; ccsd(t); counterpoise
 
 
 
 {put,xml;noorbitals,nobasis}
 Commands initialized (841), CPU time= 0.00 sec, 704 directives.
 Default parameters read. Elapsed time= 0.65 sec

 Checking input...
 Passed
1


                                         ***  PROGRAM SYSTEM MOLPRO  ***
                                       Copyright, TTI GmbH Stuttgart, 2015
                                    Version 2023.1 linked Tue Jun  6 09:54:11 2023


 **********************************************************************************************************************************
 LABEL *                                                                                                                                                                 
  64 bit serial version                                                                  DATE: 08-Jun-23          TIME: 19:15:39  
 **********************************************************************************************************************************

 SHA1:             8ebb0dd001088a5c915591db1a321413035db0b1
 **********************************************************************************************************************************

 Memory per process:       805 MW
 Total memory per node:   1074 MW
 Total GA space:           268 MW

 GA preallocation disabled
 GA check enabled

 Variable memory set to 805.3 MW

 ZSYMEL=NOSYM


 Geometry recognized as XYZ

 SETTING BASIS          =    AUG-CC-PVDZ


 Recomputing integrals since basis changed


 Using spherical harmonics

 Library entry O      S aug-cc-pVDZ          selected for orbital group  1
 Library entry O      P aug-cc-pVDZ          selected for orbital group  1
 Library entry O      D aug-cc-pVDZ          selected for orbital group  1
 Library entry H      S aug-cc-pVDZ          selected for orbital group  2
 Library entry H      P aug-cc-pVDZ          selected for orbital group  2
 Library entry C      S aug-cc-pVDZ          selected for orbital group  5
 Library entry C      P aug-cc-pVDZ          selected for orbital group  5
 Library entry C      D aug-cc-pVDZ          selected for orbital group  5


 PROGRAM * SEWARD (Integral evaluation for generally contracted gaussian basis sets)     Author: Roland Lindh, 1990

 Geometry written to block  1 of record 700


 Point group  C1  



 ATOMIC COORDINATES

 NR  ATOM    CHARGE       X              Y              Z

   1  O       8.00   -4.224364134    0.270465715    0.527578996
   2  H       1.00   -5.011769243    1.780116354    1.143194466
   3  H       1.00   -2.468758828    0.479766234    0.982905658
   4  O       8.00    1.146167753    0.452771247    1.257722400
   5  H       1.00    1.841554509   -0.628298367    2.538065380
   6  C       6.00    2.024899984   -0.438480126   -1.127412643
   7  H       1.00    1.210773664    0.791908631   -2.550591904
   8  H       1.00    4.077073934   -0.342495530   -1.267841835
   9  H       1.00    1.404422361   -2.365754159   -1.503620518

 Bond lengths in Bohr (Angstrom)

 1-2  1.810534248  1-3  1.825726997  4-5  1.814263596  4-6  2.693579128  6-7  2.049901795
     ( 0.958093464)     ( 0.966133120)     ( 0.960066950)     ( 1.425380690)     ( 1.084761314)

 6-8  2.059211335  6-9  2.059346994
     ( 1.089687711)     ( 1.089759499)

 Bond angles

  2-1-3  103.75741037   4-6-7  106.65459098   4-6-8  111.72059385   4-6-9  111.90879544

  5-4-6  107.61952491   7-6-8  108.69153235   7-6-9  108.37480423   8-6-9  109.35579189

 NUCLEAR CHARGE:                   28
 NUMBER OF PRIMITIVE AOS:         177
 NUMBER OF SYMMETRY AOS:          171
 NUMBER OF CONTRACTIONS:          123   (  123A   )
 NUMBER OF INNER CORE ORBITALS:     0   (    0A   )
 NUMBER OF OUTER CORE ORBITALS:     3   (    3A   )
 NUMBER OF VALENCE ORBITALS:       18   (   18A   )


 NUCLEAR REPULSION ENERGY   79.98338108


 Eigenvalues of metric

         1 0.533E-03 0.541E-03 0.709E-03 0.775E-03 0.137E-02 0.205E-02 0.232E-02 0.324E-02


 Contracted 2-electron integrals neglected if value below      1.0D-11
 AO integral compression algorithm  1   Integral accuracy      1.0D-11

     139.985 MB (compressed) written to integral file ( 51.3%)


 NUMBER OF SORTED TWO-ELECTRON INTEGRALS:   29081751.     BUFFER LENGTH:  32768
 NUMBER OF SEGMENTS:   2  SEGMENT LENGTH:   15997996      RECORD LENGTH: 524288

 Memory used in sort:      16.56 MW

 SORT1 READ    34029761. AND WROTE    28603919. INTEGRALS IN     83 RECORDS. CPU TIME:     0.22 SEC, REAL TIME:     0.29 SEC
 SORT2 READ    28603919. AND WROTE    29081751. INTEGRALS IN    534 RECORDS. CPU TIME:     0.24 SEC, REAL TIME:     0.31 SEC

 FILE SIZES:   FILE 1:   170.7 MBYTE,  FILE 4:   348.2 MBYTE,   TOTAL:    518.9 MBYTE

 OPERATOR DM      FOR CENTER  0  COORDINATES:    0.000000    0.000000    0.000000


 **********************************************************************************************************************************
 DATASETS  * FILE   NREC   LENGTH (MB)   RECORD NAMES
              1      19      145.15       500      610      700      900      950      970     1000      129      960     1100   
                                          VAR    BASINP    GEOM    SYMINP    ZMAT    AOBASIS   BASIS     P2S    ABASIS      S 
                                         1400     1410     1200     1210     1080     1600     1650     1300     1700   
                                           T        V       H0       H01     AOSYM     SMH    MOLCAS    ERIS     OPER   

 PROGRAMS   *        TOTAL       INT
 CPU TIMES  *         1.35      1.26
 REAL TIME  *         4.04 SEC
 DISK USED  *       495.31 MB
 **********************************************************************************************************************************


 Program * Restricted Hartree-Fock

 Orbital guess generated from atomic densities. Full valence occupancy:   21

 Initial occupancy:  14

 NELEC=   28   SYM=1   MS2= 0   THRE=1.0D-08   THRD=3.2D-06   THRG=3.2D-06  HFMA2=F  DIIS_START=2   DIIS_MAX=10   DIIS_INCORE=F

 Level shifts:    0.00 (CLOSED)    0.00 (OPEN)    0.30 (GAP_MIN)

 ITER           ETOT              DE          GRAD        DDIFF     DIIS  NEXP   TIME(IT)  TIME(TOT)  DIAG
   1     -191.04196446    -191.04196446     0.00D+00     0.82D-01     0     0       0.12      0.23    start
   2     -191.09367371      -0.05170925     0.68D-02     0.12D-01     1     0       0.12      0.35    diag
   3     -191.10817813      -0.01450442     0.37D-02     0.38D-02     2     0       0.12      0.47    diag
   4     -191.10885929      -0.00068116     0.58D-03     0.94D-03     3     0       0.12      0.59    diag
   5     -191.10889912      -0.00003983     0.12D-03     0.22D-03     4     0       0.12      0.71    diag
   6     -191.10890108      -0.00000197     0.22D-04     0.52D-04     5     0       0.12      0.83    diag
   7     -191.10890117      -0.00000009     0.54D-05     0.11D-04     6     0       0.12      0.95    diag
   8     -191.10890119      -0.00000001     0.23D-05     0.36D-05     7     0       0.12      1.07    fixocc
   9     -191.10890119      -0.00000000     0.64D-06     0.10D-05     8     0       0.12      1.19    diag
  10     -191.10890119      -0.00000000     0.16D-06     0.25D-06     0     0       0.11      1.30    diag/orth

 Final occupancy:  14

 !RHF STATE 1.1 Energy               -191.108901186881
  RHF One-electron energy            -420.670011429955
  RHF Two-electron energy             149.577729165182
  RHF Kinetic energy                  190.840647809913
  RHF Nuclear energy                   79.983381077893
  RHF Virial quotient                  -1.001405640675

 !RHF STATE 1.1 Dipole moment           1.00460901     0.00878906     0.21971969
 Dipole moment /Debye                   2.55346140     0.02233957     0.55847175

 Orbital energies:

           1.1          2.1          3.1          4.1          5.1          6.1          7.1          8.1          9.1         10.1
    -20.590761   -20.545221   -11.289573    -1.383981    -1.324874    -0.942009    -0.717484    -0.689083    -0.632600    -0.610899

          11.1         12.1         13.1         14.1         15.1         16.1
     -0.559644    -0.520788    -0.480062    -0.470315     0.031323     0.048266


 HOMO     14.1    -0.470315 =     -12.7979eV
 LUMO     15.1     0.031323 =       0.8523eV
 LUMO-HOMO         0.501638 =      13.6503eV

 Orbitals saved in record  2100.2


 **********************************************************************************************************************************
 DATASETS  * FILE   NREC   LENGTH (MB)   RECORD NAMES
              1      19      145.15       500      610      700      900      950      970     1000      129      960     1100   
                                          VAR    BASINP    GEOM    SYMINP    ZMAT    AOBASIS   BASIS     P2S    ABASIS      S 
                                         1400     1410     1200     1210     1080     1600     1650     1300     1700   
                                           T        V       H0       H01     AOSYM     SMH    MOLCAS    ERIS     OPER   

              2       4        0.75       700     1000      520     2100   
                                         GEOM     BASIS   MCVARS     RHF  

 PROGRAMS   *        TOTAL    HF-SCF       INT
 CPU TIMES  *         2.66      1.31      1.26
 REAL TIME  *         6.84 SEC
 DISK USED  *       495.31 MB
 **********************************************************************************************************************************


 PROGRAM * CCSD (Closed-shell coupled cluster)     Authors: C. Hampel, H.-J. Werner, 1991, M. Deegan, P.J. Knowles, 1992


 Convergence thresholds:  THRVAR = 1.00D-08  THRDEN = 1.00D-06

 CCSD(T)     terms to be evaluated (factor= 1.000)


 Number of core orbitals:           3 (   3 )
 Number of closed-shell orbitals:  11 (  11 )
 Number of external orbitals:     109 ( 109 )

 Molecular orbitals read from record     2100.2  Type=RHF/CANONICAL  

 Number of N-1 electron functions:              11
 Number of N-2 electron functions:              66
 Number of singly external CSFs:              1199
 Number of doubly external CSFs:            719400
 Total number of CSFs:                      720600

 Length of J-op  integral file:               0.00 MB
 Length of K-op  integral file:               1.10 MB
 Length of 3-ext integral record:             0.00 MB

 Memory could be reduced to 19.48 Mwords without degradation in triples

 Integral transformation finished. Total CPU:   0.60 sec, npass=  1  Memory used:  13.25 MW

 Reference energy:                   -191.10890119

 MP2 singlet pair energy:              -0.36764581
 MP2 triplet pair energy:              -0.21546175
 MP2 correlation energy:               -0.58310756
 MP2 total energy:                   -191.69200875

 SCS-MP2 correlation energy:           -0.57524006   (PS=  1.200000  PT=  0.333333)
 SCS-MP2 total energy:               -191.68414125

 ITER.      SQ.NORM     CORR.ENERGY   TOTAL ENERGY   ENERGY CHANGE        DEN1      VAR(S)    VAR(P)  DIIS     TIME  TIME/IT
   1      1.17649837    -0.61109397  -191.71999515    -0.02798641    -0.01319205  0.31D-02  0.28D-02  1  1     4.44     1.21
   2      1.18996493    -0.61327858  -191.72217977    -0.00218462    -0.01413226  0.34D-04  0.40D-03  2  2     5.59     1.31
   3      1.19413475    -0.61357664  -191.72247783    -0.00029806    -0.00239473  0.40D-04  0.16D-04  3  3     6.61     1.27
   4      1.19538578    -0.61350585  -191.72240703     0.00007079    -0.00055201  0.20D-05  0.16D-05  4  4     7.74     1.33
   5      1.19569469    -0.61349492  -191.72239611     0.00001092    -0.00009844  0.32D-06  0.13D-06  5  5     8.91     1.35
   6      1.19575917    -0.61349094  -191.72239213     0.00000398    -0.00001040  0.45D-07  0.13D-07  6  6    10.00     1.35
   7      1.19577471    -0.61348888  -191.72239006     0.00000207    -0.00000119  0.50D-08  0.20D-08  6  1    11.18     1.36
   8      1.19578019    -0.61348867  -191.72238986     0.00000021    -0.00000054  0.62D-09  0.27D-09  6  2    12.35     1.39
   9      1.19578096    -0.61348864  -191.72238983     0.00000003     0.00000052  0.77D-10  0.36D-10  6  4    13.31     1.36

 Norm of t1 vector:      0.07728469      S-energy:    -0.00000002      T1 diagnostic:  0.01165110
                                                                       D1 diagnostic:  0.02904340
                                                                       D2 diagnostic:  0.13651165 (internal)


 Total CPU time for triples:     12.94 sec


 RESULTS
 =======

  Reference energy                   -191.108901186881
  CCSD singlet pair energy             -0.419770000711
  CCSD triplet pair energy             -0.193718621517
  CCSD correlation energy              -0.613488640829

  Triples (T) contribution             -0.016248687051
  Total correlation energy             -0.629737327880

  CCSD total energy                  -191.722389827710
  CCSD[T] energy                     -191.739651237044
  CCSD-T energy                      -191.738196233981
 !CCSD(T) total energy               -191.738638514761

 Timing summary (sec):

 STEP                 CPU(USER)    SYS     CPU(TOT)    WALL
 Transformation          0.62      0.08      0.70      0.98
 CCSD iterations        12.72      0.72     13.44     12.45
 Triples                12.94      0.78     13.72     14.93

 Program statistics:

 Available memory in ccsd:               805305870
 Min. memory needed in ccsd:               1995239
 Max. memory used in ccsd:                 2614165
 Max. memory used in cckext:               2151869 ( 9 integral passes)



 **********************************************************************************************************************************
 DATASETS  * FILE   NREC   LENGTH (MB)   RECORD NAMES
              1      20      211.68       500      610      700      900      950      970     1000      129      960     1100   
                                          VAR    BASINP    GEOM    SYMINP    ZMAT    AOBASIS   BASIS     P2S    ABASIS      S 
                                         1400     1410     1200     1210     1080     1600     1650     1300     1700     1380   
                                           T        V       H0       H01     AOSYM     SMH    MOLCAS    ERIS     OPER     JKOP   

              2       4        0.75       700     1000      520     2100   
                                         GEOM     BASIS   MCVARS     RHF  

 PROGRAMS   *        TOTAL   CCSD(T)    HF-SCF       INT
 CPU TIMES  *        26.18     23.52      1.31      1.26
 REAL TIME  *        35.76 SEC
 DISK USED  *       495.31 MB
 **********************************************************************************************************************************

 Counterpoise: absolute minimum monomer separation=    -1.000 Bragg radius scale factor=     1.400 Number of monomers= 2

 Counterpoise  CCSD(T)  energy

 Running default procedure: HF-SCF000  CCSD(T)

 Assignment of unique atoms to monomers:
1-9     1     1     1     2     2     2     2     2     2

 *** Long output written to logfile /Users/sacpjk/current/PAPT/S66/d94ed120/02.molpro/run/1.molpro/1.log ***


 Description                       ENERGY          ENERGR          ENERGC
 Raw                        -191.73863851   -191.10890119   -191.72238983
 Dimer basis, monomer 1      -76.27452477    -76.04120972    -76.26920005
 Dimer basis, monomer 2     -115.45628250   -115.06177821   -115.44574259
 Monomer basis, monomer 1    -76.27383268    -76.04102945    -76.26858541
 Monomer basis, monomer 2   -115.45519135   -115.06144086   -115.44475053
 Counterpoise correction       0.00178324      0.00051762      0.00160670
 Counterpoise corrected     -191.73685528   -191.10838357   -191.72078313


 **********************************************************************************************************************************
 DATASETS  * FILE   NREC   LENGTH (MB)   RECORD NAMES
              1      18       29.28       500      610      700      900      950      970     1000      129      960     1100   
                                          VAR    BASINP    GEOM    SYMINP    ZMAT    AOBASIS   BASIS     P2S    ABASIS      S 
                                         1400     1410     1200     1210     1080     1600     1650     1700   
                                           T        V       H0       H01     AOSYM     SMH    MOLCAS    OPER   

              2      12        2.92       700     1000      520     2100     2101     2102      701     1001     2103      702   
                                         GEOM     BASIS   MCVARS     RHF      RHF      RHF     GEOM     BASIS     RHF     GEOM   
                                         1002     2104   
                                         BASIS     RHF  

 PROGRAMS   *        TOTALCOUNTERPOI    HF-SCF       INT   CCSD(T)    HF-SCF       INT   CCSD(T)    HF-SCF       INT   CCSD(T)
 CPU TIMES  *        42.27      2.03      0.23      0.31      0.19      0.04      0.08      8.04      1.17      0.02      2.74
 REAL TIME  *        64.95 SEC
 DISK USED  *       495.31 MB
 **********************************************************************************************************************************

 Dump information in style XML to xml output                                                                      

 Orbitals will not be exported.

 **********************************************************************************************************************************

 CCSD(T)/aug-cc-pVDZ energy=   -191.736855277768

         CCSD(T)          HF-SCF         CCSD(T)          HF-SCF         CCSD(T)          HF-SCF         CCSD(T)          HF-SCF
   -115.45519135   -115.06144086    -76.27383268    -76.04102945   -115.45628250   -115.06177821    -76.27452477    -76.04120972
 **********************************************************************************************************************************
 Molpro calculation terminated
