
 Working directory              : /var/folders/2v/xbgp75_9785319ghcgb4zr4r0000gp/T//molpro.6NVASoJ43y/
 Global scratch directory       : /var/folders/2v/xbgp75_9785319ghcgb4zr4r0000gp/T//molpro.6NVASoJ43y/
 Wavefunction directory         : /Users/sacpjk/wfu/
 Main file repository           : /var/folders/2v/xbgp75_9785319ghcgb4zr4r0000gp/T//molpro.6NVASoJ43y/

 id        : peterk

 Nodes                        nprocs
 Cardiff-University-G34YLXT77Y    1
 GA implementation: MPI file
 GA implementation (serial work in mppx): MPI file

 Using customized tuning parameters: mindgm=1; mindgv=20; mindgc=4; mindgr=1; noblas=0; minvec=7
 default implementation of scratch files=df  


 Variables initialized (1032), CPU time= 0.00 sec
 
 symmetry,nosym
 
 
 geometry={
           11
     C         -1.03666222      1.00226747      0.00000000
     C         -0.99802842     -0.37323986      0.00000000
     C          1.15125899     -0.89785440      0.00000000
     N          1.59581209      0.37970345      0.00000000
     N          1.23898727      1.47513174      0.00000000
     H         -1.16993317      1.56007075     -0.91825218
     H         -1.16993317      1.56007075      0.91825218
     H         -1.19957230     -0.92033561     -0.91402853
     H         -1.19957230     -0.92033561      0.91402853
     H          1.39382161     -1.43273935      0.91491930
     H          1.39382161     -1.43273935     -0.91491930
 }
 basis=cc-pVDZ
 
 
 
 hf; ccsd(t)
 
 
 
 {put,xml;noorbitals,nobasis}
 Commands initialized (841), CPU time= 0.01 sec, 704 directives.
 Default parameters read. Elapsed time= 1.65 sec

 Checking input...
 Passed
1


                                         ***  PROGRAM SYSTEM MOLPRO  ***
                                       Copyright, TTI GmbH Stuttgart, 2015
                                    Version 2023.1 linked Tue Jun  6 09:54:11 2023


 **********************************************************************************************************************************
 LABEL *                                                                                                                                                                 
  64 bit serial version                                                                  DATE: 11-Jun-23          TIME: 23:32:51  
 **********************************************************************************************************************************

 SHA1:             8ebb0dd001088a5c915591db1a321413035db0b1
 **********************************************************************************************************************************

 Memory per process:       393 MW
 Total memory per node:    524 MW
 Total GA space:           131 MW

 GA preallocation disabled
 GA check enabled

 Variable memory set to 393.2 MW

 ZSYMEL=NOSYM


 Geometry recognized as XYZ

 SETTING BASIS          =    CC-PVDZ


 Recomputing integrals since basis changed


 Using spherical harmonics

 Library entry C      S cc-pVDZ              selected for orbital group  1
 Library entry C      P cc-pVDZ              selected for orbital group  1
 Library entry C      D cc-pVDZ              selected for orbital group  1
 Library entry N      S cc-pVDZ              selected for orbital group  2
 Library entry N      P cc-pVDZ              selected for orbital group  2
 Library entry N      D cc-pVDZ              selected for orbital group  2
 Library entry H      S cc-pVDZ              selected for orbital group  3
 Library entry H      P cc-pVDZ              selected for orbital group  3


 PROGRAM * SEWARD (Integral evaluation for generally contracted gaussian basis sets)     Author: Roland Lindh, 1990

 Geometry written to block  1 of record 700


 Point group  C1  



 ATOMIC COORDINATES

 NR  ATOM    CHARGE       X              Y              Z

   1  C       6.00   -1.959007680    1.894011022    0.000000000
   2  C       6.00   -1.886000378   -0.705321114    0.000000000
   3  C       6.00    2.175564190   -1.696698916    0.000000000
   4  N       7.00    3.015647796    0.717535529    0.000000000
   5  N       7.00    2.341346612    2.787594986    0.000000000
   6  H       1.00   -2.210853275    2.948106453   -1.735245134
   7  H       1.00   -2.210853275    2.948106453    1.735245134
   8  H       1.00   -2.266863114   -1.739182246   -1.727263592
   9  H       1.00   -2.266863114   -1.739182246    1.727263592
  10  H       1.00    2.633941109   -2.707484979    1.728946903
  11  H       1.00    2.633941109   -2.707484979   -1.728946903

 Bond lengths in Bohr (Angstrom)

 1-2  2.600357210  1-6  2.045878553  1-7  2.045878553  2-8  2.048747124  2-9  2.048747124
     ( 1.376049776)     ( 1.082632307)     ( 1.082632307)     ( 1.084150289)     ( 1.084150289)

  3- 4  2.556221513   3-10  2.054520689   3-11  2.054520689   4- 5  2.177114660
       ( 1.352694170)       ( 1.087205528)       ( 1.087205528)       ( 1.152079464)

 Bond angles

  1-2-8  119.94792439   1-2-9  119.94792439   2-1-6  121.23046507   2-1-7  121.23046507

  3- 4- 5  142.77108279   4- 3-10  113.03738549   4- 3-11  113.03738549   6- 1- 7  116.02555382

  8- 2- 9  114.93421732  10- 3-11  114.60470712

 NUCLEAR CHARGE:                   38
 NUMBER OF PRIMITIVE AOS:         177
 NUMBER OF SYMMETRY AOS:          172
 NUMBER OF CONTRACTIONS:          100   (  100A   )
 NUMBER OF INNER CORE ORBITALS:     0   (    0A   )
 NUMBER OF OUTER CORE ORBITALS:     5   (    5A   )
 NUMBER OF VALENCE ORBITALS:       26   (   26A   )


 NUCLEAR REPULSION ENERGY  161.45551786


 Eigenvalues of metric

         1 0.281E-02 0.391E-02 0.660E-02 0.132E-01 0.147E-01 0.185E-01 0.272E-01 0.276E-01


 Contracted 2-electron integrals neglected if value below      1.0D-11
 AO integral compression algorithm  1   Integral accuracy      1.0D-11

     51.118 MB (compressed) written to integral file ( 45.2%)


 NUMBER OF SORTED TWO-ELECTRON INTEGRALS:   12753775.     BUFFER LENGTH:  32768
 NUMBER OF SEGMENTS:   1  SEGMENT LENGTH:   12753775      RECORD LENGTH: 524288

 Memory used in sort:      13.31 MW

 SORT1 READ    14147500. AND WROTE    11094550. INTEGRALS IN     32 RECORDS. CPU TIME:     0.08 SEC, REAL TIME:     0.11 SEC
 SORT2 READ    11094550. AND WROTE    12753775. INTEGRALS IN    195 RECORDS. CPU TIME:     0.13 SEC, REAL TIME:     0.14 SEC

 FILE SIZES:   FILE 1:    81.7 MBYTE,  FILE 4:   134.3 MBYTE,   TOTAL:    215.9 MBYTE

 OPERATOR DM      FOR CENTER  0  COORDINATES:    0.000000    0.000000    0.000000


 **********************************************************************************************************************************
 DATASETS  * FILE   NREC   LENGTH (MB)   RECORD NAMES
              1      19       72.82       500      610      700      900      950      970     1000      129      960     1100   
                                          VAR    BASINP    GEOM    SYMINP    ZMAT    AOBASIS   BASIS     P2S    ABASIS      S 
                                         1400     1410     1200     1210     1080     1600     1650     1300     1700   
                                           T        V       H0       H01     AOSYM     SMH    MOLCAS    ERIS     OPER   

 PROGRAMS   *        TOTAL       INT
 CPU TIMES  *         0.97      0.87
 REAL TIME  *         5.61 SEC
 DISK USED  *       206.45 MB
 **********************************************************************************************************************************


 Program * Restricted Hartree-Fock

 Orbital guess generated from atomic densities. Full valence occupancy:   31

 Initial occupancy:  19

 NELEC=   38   SYM=1   MS2= 0   THRE=1.0D-08   THRD=3.2D-06   THRG=3.2D-06  HFMA2=F  DIIS_START=2   DIIS_MAX=10   DIIS_INCORE=F

 Level shifts:    0.00 (CLOSED)    0.00 (OPEN)    0.30 (GAP_MIN)

 ITER           ETOT              DE          GRAD        DDIFF     DIIS  NEXP   TIME(IT)  TIME(TOT)  DIAG
   1     -225.74186792    -225.74186792     0.00D+00     0.11D+00     0     0       0.06      0.11    start
   2     -225.80479427      -0.06292635     0.69D-02     0.16D-01     1     0       0.05      0.16    diag
   3     -225.84167091      -0.03687664     0.50D-02     0.72D-02     2     0       0.06      0.22    diag
   4     -225.84352125      -0.00185034     0.84D-03     0.20D-02     3     0       0.05      0.27    diag
   5     -225.84402793      -0.00050668     0.51D-03     0.79D-03     4     0       0.06      0.33    diag
   6     -225.84415957      -0.00013164     0.16D-03     0.41D-03     5     0       0.05      0.38    diag
   7     -225.84421582      -0.00005624     0.80D-04     0.28D-03     6     0       0.06      0.44    diag
   8     -225.84424365      -0.00002783     0.51D-04     0.28D-03     7     0       0.06      0.50    fixocc
   9     -225.84424636      -0.00000271     0.16D-04     0.10D-03     8     0       0.05      0.55    diag
  10     -225.84424649      -0.00000013     0.51D-05     0.15D-04     9     0       0.06      0.61    diag/orth
  11     -225.84424652      -0.00000003     0.21D-05     0.77D-05     9     0       0.05      0.66    diag
  12     -225.84424652      -0.00000000     0.77D-06     0.26D-05     9     0       0.06      0.72    diag
  13     -225.84424652      -0.00000000     0.28D-06     0.64D-06     0     0       0.05      0.77    diag

 Final occupancy:  19

 !RHF STATE 1.1 Energy               -225.844246520603
  RHF One-electron energy            -624.653382486552
  RHF Two-electron energy             237.353618103579
  RHF Kinetic energy                  225.421317371333
  RHF Nuclear energy                  161.455517862370
  RHF Virial quotient                  -1.001876171935

 !RHF STATE 1.1 Dipole moment           0.20034480    -0.79984739     0.00000000
 Dipole moment /Debye                   0.50922569    -2.03300929     0.00000000

 Orbital energies:

           1.1          2.1          3.1          4.1          5.1          6.1          7.1          8.1          9.1         10.1
    -15.688125   -15.662338   -11.291109   -11.233041   -11.221421    -1.430129    -1.079096    -1.012871    -0.789337    -0.758293

          11.1         12.1         13.1         14.1         15.1         16.1         17.1         18.1         19.1         20.1
     -0.669310    -0.658070    -0.623498    -0.616036    -0.563186    -0.526529    -0.487157    -0.368412    -0.295087     0.129396

          21.1
      0.145336


 HOMO     19.1    -0.295087 =      -8.0297eV
 LUMO     20.1     0.129396 =       3.5210eV
 LUMO-HOMO         0.424483 =      11.5508eV

 Orbitals saved in record  2100.2


 **********************************************************************************************************************************
 DATASETS  * FILE   NREC   LENGTH (MB)   RECORD NAMES
              1      19       72.82       500      610      700      900      950      970     1000      129      960     1100   
                                          VAR    BASINP    GEOM    SYMINP    ZMAT    AOBASIS   BASIS     P2S    ABASIS      S 
                                         1400     1410     1200     1210     1080     1600     1650     1300     1700   
                                           T        V       H0       H01     AOSYM     SMH    MOLCAS    ERIS     OPER   

              2       4        0.71       700     1000      520     2100   
                                         GEOM     BASIS   MCVARS     RHF  

 PROGRAMS   *        TOTAL    HF-SCF       INT
 CPU TIMES  *         1.75      0.78      0.87
 REAL TIME  *         7.21 SEC
 DISK USED  *       206.45 MB
 **********************************************************************************************************************************


 PROGRAM * CCSD (Closed-shell coupled cluster)     Authors: C. Hampel, H.-J. Werner, 1991, M. Deegan, P.J. Knowles, 1992


 Convergence thresholds:  THRVAR = 1.00D-08  THRDEN = 1.00D-06

 CCSD(T)     terms to be evaluated (factor= 1.000)


 Number of core orbitals:           5 (   5 )
 Number of closed-shell orbitals:  14 (  14 )
 Number of external orbitals:      81 (  81 )

 Molecular orbitals read from record     2100.2  Type=RHF/CANONICAL  

 Number of N-1 electron functions:              14
 Number of N-2 electron functions:             105
 Number of singly external CSFs:              1134
 Number of doubly external CSFs:            643545
 Total number of CSFs:                      644680

 Length of J-op  integral file:               0.00 MB
 Length of K-op  integral file:               0.75 MB
 Length of 3-ext integral record:             0.00 MB

 Memory could be reduced to 10.53 Mwords without degradation in triples

 Integral transformation finished. Total CPU:   0.34 sec, npass=  1  Memory used:   9.53 MW

 Reference energy:                   -225.84424652

 MP2 singlet pair energy:              -0.47956663
 MP2 triplet pair energy:              -0.30347135
 MP2 correlation energy:               -0.78303798
 MP2 total energy:                   -226.62728451

 SCS-MP2 correlation energy:           -0.76430658   (PS=  1.200000  PT=  0.333333)
 SCS-MP2 total energy:               -226.60855310

 ITER.      SQ.NORM     CORR.ENERGY   TOTAL ENERGY   ENERGY CHANGE        DEN1      VAR(S)    VAR(P)  DIIS     TIME  TIME/IT
   1      1.29389882    -0.80346635  -226.64771287    -0.02042837     0.00851891  0.47D-02  0.92D-02  1  1     3.36     1.28
   2      1.32107006    -0.80677692  -226.65102344    -0.00331057    -0.02530173  0.13D-03  0.12D-02  2  2     4.45     1.24
   3      1.33273219    -0.80709315  -226.65133967    -0.00031623    -0.00557696  0.65D-04  0.92D-04  3  3     5.59     1.25
   4      1.33735208    -0.80725317  -226.65149969    -0.00016001    -0.00140210  0.75D-05  0.14D-04  4  4     6.65     1.22
   5      1.33905537    -0.80727635  -226.65152287    -0.00002319    -0.00039771  0.22D-05  0.13D-05  5  5     7.66     1.20
   6      1.33949355    -0.80725578  -226.65150230     0.00002057    -0.00005374  0.47D-06  0.15D-06  6  6     8.79     1.21
   7      1.33959967    -0.80725737  -226.65150389    -0.00000160    -0.00000444  0.87D-07  0.39D-07  6  2     9.77     1.20
   8      1.33963736    -0.80725595  -226.65150247     0.00000142    -0.00000062  0.19D-07  0.64D-08  6  1    11.31     1.27
   9      1.33965292    -0.80725506  -226.65150158     0.00000089    -0.00000092  0.12D-08  0.13D-08  6  3    12.41     1.26
  10      1.33964977    -0.80725521  -226.65150173    -0.00000015     0.00000190  0.38D-09  0.15D-09  6  5    13.43     1.25

 Norm of t1 vector:      0.09796170      S-energy:    -0.00000020      T1 diagnostic:  0.01309068
                                                                       D1 diagnostic:  0.04120505
                                                                       D2 diagnostic:  0.20962029 (external, symmetry=1)

 Doubles amplitudes (print threshold =  0.500E-01):

         I         J         SYM. A    SYM. B    A         B      T(IJ, AB)

        11        11         1         1         2         2     -0.06388404
        13        13         1         1         1         1     -0.05155354
        14        14         1         1         1         1     -0.10294199


 Total CPU time for triples:      8.31 sec


 RESULTS
 =======

  Reference energy                   -225.844246520603
  CCSD singlet pair energy             -0.547905823311
  CCSD triplet pair energy             -0.259349189651
  CCSD correlation energy              -0.807255208482

  Triples (T) contribution             -0.036840478145
  Total correlation energy             -0.844095686628

  CCSD total energy                  -226.651501729085
  CCSD[T] energy                     -226.689643101252
  CCSD-T energy                      -226.687867658342
 !CCSD(T) total energy               -226.688342207230

 Timing summary (sec):

 STEP                 CPU(USER)    SYS     CPU(TOT)    WALL
 Transformation          0.36      0.04      0.40      0.59
 CCSD iterations        13.11      0.60     13.71     12.86
 Triples                 8.31      0.45      8.76      9.10

 Program statistics:

 Available memory in ccsd:               393215197
 Min. memory needed in ccsd:               1768432
 Max. memory used in ccsd:                 2318471
 Max. memory used in cckext:               2235034 (10 integral passes)



 **********************************************************************************************************************************
 DATASETS  * FILE   NREC   LENGTH (MB)   RECORD NAMES
              1      20      113.76       500      610      700      900      950      970     1000      129      960     1100   
                                          VAR    BASINP    GEOM    SYMINP    ZMAT    AOBASIS   BASIS     P2S    ABASIS      S 
                                         1400     1410     1200     1210     1080     1600     1650     1300     1700     1380   
                                           T        V       H0       H01     AOSYM     SMH    MOLCAS    ERIS     OPER     JKOP   

              2       4        0.71       700     1000      520     2100   
                                         GEOM     BASIS   MCVARS     RHF  

 PROGRAMS   *        TOTAL   CCSD(T)    HF-SCF       INT
 CPU TIMES  *        21.67     19.92      0.78      0.87
 REAL TIME  *        30.08 SEC
 DISK USED  *       221.27 MB
 **********************************************************************************************************************************

 Dump information in style XML to xml output                                                                      

 Orbitals will not be exported.

 **********************************************************************************************************************************

 CCSD(T)/cc-pVDZ energy=   -226.688342207230

         CCSD(T)          HF-SCF
   -226.68834221   -225.84424652
 **********************************************************************************************************************************
 Molpro calculation terminated
