
 Working directory              : /var/folders/2v/xbgp75_9785319ghcgb4zr4r0000gp/T//molpro.GJkj7QxeWH/
 Global scratch directory       : /var/folders/2v/xbgp75_9785319ghcgb4zr4r0000gp/T//molpro.GJkj7QxeWH/
 Wavefunction directory         : /Users/sacpjk/wfu/
 Main file repository           : /var/folders/2v/xbgp75_9785319ghcgb4zr4r0000gp/T//molpro.GJkj7QxeWH/

 id        : peterk

 Nodes                        nprocs
 Cardiff-University-G34YLXT77Y    1
 GA implementation: MPI file
 GA implementation (serial work in mppx): MPI file

 Using customized tuning parameters: mindgm=1; mindgv=20; mindgc=4; mindgr=1; noblas=0; minvec=7
 default implementation of scratch files=df  


 Variables initialized (1032), CPU time= 0.00 sec
 
 core,small
 angstrom
 
 geometry={
 C;H,C,1.10678917;H,C,1.10678917,H,102.02249921
 }
 basis=cc-pCV5Z
 
 
 
 hf
 
 
 
 {put,xml;noorbitals,nobasis}
 Commands initialized (841), CPU time= 0.01 sec, 704 directives.
 Default parameters read. Elapsed time= 0.53 sec

 Checking input...
 Passed
1


                                         ***  PROGRAM SYSTEM MOLPRO  ***
                                       Copyright, TTI GmbH Stuttgart, 2015
                                    Version 2023.1 linked Tue Jun  6 09:54:11 2023


 **********************************************************************************************************************************
 LABEL *                                                                                                                                                                 
  64 bit serial version                                                                  DATE: 12-Jun-23          TIME: 11:04:09  
 **********************************************************************************************************************************

 SHA1:             8ebb0dd001088a5c915591db1a321413035db0b1
 **********************************************************************************************************************************

 Memory per process:       393 MW
 Total memory per node:    524 MW
 Total GA space:           131 MW

 GA preallocation disabled
 GA check enabled

 Variable memory set to 393.2 MW

 ZUNIT=ANG

 SETTING BASIS          =    CC-PCV5Z


 Recomputing integrals since basis changed


 Using spherical harmonics

 Library entry C      S cc-pCV5Z             selected for orbital group  1
 Library entry C      P cc-pCV5Z             selected for orbital group  1
 Library entry C      D cc-pCV5Z             selected for orbital group  1
 Library entry C      F cc-pCV5Z             selected for orbital group  1
 Library entry C      G cc-pCV5Z             selected for orbital group  1
 Library entry C      H cc-pCV5Z             selected for orbital group  1
 Library entry H      S cc-pV5Z              selected for orbital group  2
 Library entry H      P cc-pV5Z              selected for orbital group  2
 Library entry H      D cc-pV5Z              selected for orbital group  2
 Library entry H      F cc-pV5Z              selected for orbital group  2
 Library entry H      G cc-pV5Z              selected for orbital group  2


 PROGRAM * SEWARD (Integral evaluation for generally contracted gaussian basis sets)     Author: Roland Lindh, 1990

 Geometry written to block  1 of record 700

 Orientation using atomic masses  
 Molecule type: Asymmetric top,     Order of principal axis = 2
 Symmetry elements: X,Y
 Rotational constants:     217.0003324    603.7701822    338.7501129 GHz  (calculated with average atomic masses)

 Point group  C2v 



 ATOMIC COORDINATES

 NR  ATOM    CHARGE       X              Y              Z

   1  C       6.00    0.000000000    0.000000000   -0.189118426
   2  H       1.00    0.000000000    1.625681259    1.126803885
   3  H       1.00    0.000000000   -1.625681259    1.126803885

 Bond lengths in Bohr (Angstrom)

 1-2  2.091528409  1-3  2.091528409
     ( 1.106789170)     ( 1.106789170)

 Bond angles

  2-1-3  102.02249921

 NUCLEAR CHARGE:                    8
 NUMBER OF PRIMITIVE AOS:         358
 NUMBER OF SYMMETRY AOS:          278
 NUMBER OF CONTRACTIONS:          255   (   90A1  +   55B1  +   70B2  +   40A2  )
 NUMBER OF INNER CORE ORBITALS:     0   (    0A1  +    0B1  +    0B2  +    0A2  )
 NUMBER OF OUTER CORE ORBITALS:     1   (    1A1  +    0B1  +    0B2  +    0A2  )
 NUMBER OF VALENCE ORBITALS:        6   (    3A1  +    1B1  +    2B2  +    0A2  )


 NUCLEAR REPULSION ENERGY    6.04499440


 Eigenvalues of metric

         1 0.246E-05 0.481E-04 0.204E-03 0.433E-03 0.462E-03 0.895E-03 0.923E-03 0.169E-02
         2 0.439E-03 0.108E-02 0.988E-02 0.318E-01 0.340E-01 0.415E-01 0.465E-01 0.562E-01
         3 0.329E-04 0.194E-03 0.298E-03 0.496E-03 0.156E-02 0.398E-02 0.785E-02 0.103E-01
         4 0.154E-02 0.143E-01 0.407E-01 0.487E-01 0.524E-01 0.668E-01 0.921E-01 0.133E+00


 Contracted 2-electron integrals neglected if value below      1.0D-12
 AO integral compression algorithm  1   Integral accuracy      1.0D-12

     767.820 MB (compressed) written to integral file ( 56.4%)


 NUMBER OF SORTED TWO-ELECTRON INTEGRALS:  135481620.     BUFFER LENGTH:  32768
 NUMBER OF SEGMENTS:   9  SEGMENT LENGTH:   15999900      RECORD LENGTH: 524288

 Memory used in sort:      16.56 MW

 SORT1 READ   170118861. AND WROTE   123498487. INTEGRALS IN    357 RECORDS. CPU TIME:     1.68 SEC, REAL TIME:     2.20 SEC
 SORT2 READ   123498487. AND WROTE   135481620. INTEGRALS IN   2929 RECORDS. CPU TIME:     1.08 SEC, REAL TIME:     1.38 SEC

 FILE SIZES:   FILE 1:   799.3 MBYTE,  FILE 4:  1497.4 MBYTE,   TOTAL:   2296.7 MBYTE

 OPERATOR DM      FOR CENTER  0  COORDINATES:    0.000000    0.000000    0.000000


 **********************************************************************************************************************************
 DATASETS  * FILE   NREC   LENGTH (MB)   RECORD NAMES
              1      19      609.48       500      610      700      900      950      970     1000      129      960     1100   
                                          VAR    BASINP    GEOM    SYMINP    ZMAT    AOBASIS   BASIS     P2S    ABASIS      S 
                                         1400     1410     1200     1210     1080     1600     1650     1300     1700   
                                           T        V       H0       H01     AOSYM     SMH    MOLCAS    ERIS     OPER   

 PROGRAMS   *        TOTAL       INT
 CPU TIMES  *        10.32     10.22
 REAL TIME  *        16.75 SEC
 DISK USED  *         2.14 GB
 **********************************************************************************************************************************


 Program * Restricted Hartree-Fock

 Orbital guess generated from atomic densities. Full valence occupancy:    4   1   2   0

 Initial occupancy:   3   0   1   0

 NELEC=    8   SYM=1   MS2= 0   THRE=1.0D-08   THRD=3.2D-06   THRG=3.2D-06  HFMA2=F  DIIS_START=2   DIIS_MAX=10   DIIS_INCORE=F

 Level shifts:    0.00 (CLOSED)    0.00 (OPEN)    0.30 (GAP_MIN)

 ITER           ETOT              DE          GRAD        DDIFF     DIIS  NEXP   TIME(IT)  TIME(TOT)  DIAG
   1      -38.88446611     -38.88446611     0.00D+00     0.41D-01     0     0       0.29      0.58    start
   2      -38.89541500      -0.01094889     0.52D-02     0.31D-02     1     0       0.29      0.87    diag
   3      -38.89583861      -0.00042361     0.10D-02     0.75D-03     2     0       0.30      1.17    diag
   4      -38.89588692      -0.00004831     0.28D-03     0.23D-03     3     0       0.28      1.45    diag
   5      -38.89589116      -0.00000424     0.69D-04     0.11D-03     4     0       0.29      1.74    diag
   6      -38.89589148      -0.00000031     0.18D-04     0.41D-04     5     0       0.28      2.02    diag
   7      -38.89589148      -0.00000001     0.22D-05     0.61D-05     6     0       0.28      2.30    diag
   8      -38.89589148      -0.00000000     0.44D-06     0.74D-06     7     0       0.28      2.58    fixocc
   9      -38.89589148      -0.00000000     0.86D-07     0.17D-06     0     0       0.28      2.86    diag

 Final occupancy:   3   0   1   0

 !RHF STATE 1.1 Energy                -38.895891483720
  RHF One-electron energy             -63.585589155318
  RHF Two-electron energy              18.644703272797
  RHF Kinetic energy                   38.867156426910
  RHF Nuclear energy                    6.044994398800
  RHF Virial quotient                  -1.000739314616

 !RHF STATE 1.1 Dipole moment           0.00000000     0.00000000     0.75075465
 Dipole moment /Debye                   0.00000000     0.00000000     1.90822799

 Orbital energies:

           1.1          2.1          3.1          4.1          5.1
    -11.292084    -0.893482    -0.396594     0.097591     0.217594

           1.2          2.2
      0.034855     0.260111

           1.3          2.3          3.3
     -0.565931     0.143007     0.221608

           1.4          2.4
      0.484671     0.724872


 HOMO      3.1    -0.396594 =     -10.7919eV
 LUMO      1.2     0.034855 =       0.9484eV
 LUMO-HOMO         0.431449 =      11.7403eV

 Orbitals saved in record  2100.2


 **********************************************************************************************************************************
 DATASETS  * FILE   NREC   LENGTH (MB)   RECORD NAMES
              1      19      609.48       500      610      700      900      950      970     1000      129      960     1100   
                                          VAR    BASINP    GEOM    SYMINP    ZMAT    AOBASIS   BASIS     P2S    ABASIS      S 
                                         1400     1410     1200     1210     1080     1600     1650     1300     1700   
                                           T        V       H0       H01     AOSYM     SMH    MOLCAS    ERIS     OPER   

              2       4        0.70       700     1000      520     2100   
                                         GEOM     BASIS   MCVARS     RHF  

 PROGRAMS   *        TOTAL    HF-SCF       INT
 CPU TIMES  *        13.18      2.86     10.22
 REAL TIME  *        21.14 SEC
 DISK USED  *         2.14 GB
 **********************************************************************************************************************************

 Dump information in style XML to xml output                                                                      

 Orbitals will not be exported.

 **********************************************************************************************************************************

 HF/cc-pCV5Z energy=    -38.895891483720

          HF-SCF
    -38.89589148
 **********************************************************************************************************************************
 Molpro calculation terminated
