
 Working directory              : /var/folders/2v/xbgp75_9785319ghcgb4zr4r0000gp/T//molpro.jD5ACnrkMw/
 Global scratch directory       : /var/folders/2v/xbgp75_9785319ghcgb4zr4r0000gp/T//molpro.jD5ACnrkMw/
 Wavefunction directory         : /Users/sacpjk/wfu/
 Main file repository           : /var/folders/2v/xbgp75_9785319ghcgb4zr4r0000gp/T//molpro.jD5ACnrkMw/

 id        : peterk

 Nodes                        nprocs
 Cardiff-University-G34YLXT77Y    1
 GA implementation: MPI file
 GA implementation (serial work in mppx): MPI file

 Using customized tuning parameters: mindgm=1; mindgv=20; mindgc=4; mindgr=1; noblas=0; minvec=7
 default implementation of scratch files=df  


 Variables initialized (1032), CPU time= 0.00 sec
 
 symmetry,nosym
 
 
 geometry={
           17
     C         -0.60440294      0.09628448      1.30447616
     SI        -0.74911349      1.43122745      0.00000000
     C          1.54144553     -0.09064059      0.69774160
     C         -1.15781223     -1.04204804      0.70423079
     C         -0.60440294      0.09628448     -1.30447616
     C          1.54144553     -0.09064059     -0.69774160
     C         -1.15781223     -1.04204804     -0.70423079
     H         -0.57568160      0.19510473      2.38339326
     H         -2.10162297      2.06016268      0.00000000
     H          0.27093288      2.50947184      0.00000000
     H          1.87608669      0.78960889      1.23339865
     H          1.64747975     -1.02087083      1.23794709
     H         -1.43721341     -1.92786963      1.26742428
     H         -0.57568160      0.19510473     -2.38339326
     H          1.87608669      0.78960889     -1.23339865
     H          1.64747975     -1.02087083     -1.23794709
     H         -1.43721341     -1.92786963     -1.26742428
 }
 basis=cc-pVTZ
 
 
 
 hf; mp4
 
 
 
 {put,xml;noorbitals,nobasis}
 Commands initialized (841), CPU time= 0.01 sec, 704 directives.
 Default parameters read. Elapsed time= 0.07 sec

 Checking input...
 Passed
1


                                         ***  PROGRAM SYSTEM MOLPRO  ***
                                       Copyright, TTI GmbH Stuttgart, 2015
                                    Version 2023.1 linked Tue Jun  6 09:54:11 2023


 **********************************************************************************************************************************
 LABEL *                                                                                                                                                                 
  64 bit serial version                                                                  DATE: 10-Jun-23          TIME: 22:04:02  
 **********************************************************************************************************************************

 SHA1:             8ebb0dd001088a5c915591db1a321413035db0b1
 **********************************************************************************************************************************

 Memory per process:       805 MW
 Total memory per node:   1074 MW
 Total GA space:           268 MW

 GA preallocation disabled
 GA check enabled

 Variable memory set to 805.3 MW

 ZSYMEL=NOSYM


 Geometry recognized as XYZ

 SETTING BASIS          =    CC-PVTZ


 Recomputing integrals since basis changed


 Using spherical harmonics

 Library entry C      S cc-pVTZ              selected for orbital group  1
 Library entry C      P cc-pVTZ              selected for orbital group  1
 Library entry C      D cc-pVTZ              selected for orbital group  1
 Library entry C      F cc-pVTZ              selected for orbital group  1
 Library entry SI     S cc-pVTZ              selected for orbital group  2
 Library entry SI     P cc-pVTZ              selected for orbital group  2
 Library entry SI     D cc-pVTZ              selected for orbital group  2
 Library entry SI     F cc-pVTZ              selected for orbital group  2
 Library entry H      S cc-pVTZ              selected for orbital group  4
 Library entry H      P cc-pVTZ              selected for orbital group  4
 Library entry H      D cc-pVTZ              selected for orbital group  4


 PROGRAM * SEWARD (Integral evaluation for generally contracted gaussian basis sets)     Author: Roland Lindh, 1990

 Geometry written to block  1 of record 700


 Point group  C1  



 ATOMIC COORDINATES

 NR  ATOM    CHARGE       X              Y              Z

   1  C       6.00   -1.142156026    0.181951297    2.465102679
   2  SI     14.00   -1.415619332    2.704627903    0.000000000
   3  C       6.00    2.912909888   -0.171285891    1.318540530
   4  C       6.00   -2.187948018   -1.969185404    1.330803322
   5  C       6.00   -1.142156026    0.181951297   -2.465102679
   6  C       6.00    2.912909888   -0.171285891   -1.318540530
   7  C       6.00   -2.187948018   -1.969185404   -1.330803322
   8  H       1.00   -1.087880559    0.368694505    4.503960509
   9  H       1.00   -3.971491831    3.893143237    0.000000000
  10  H       1.00    0.511988941    4.742214495    0.000000000
  11  H       1.00    3.545290030    1.492144548    2.330785651
  12  H       1.00    3.113285523   -1.929166277    2.339380957
  13  H       1.00   -2.715939728   -3.643145605    2.395084773
  14  H       1.00   -1.087880559    0.368694505   -4.503960509
  15  H       1.00    3.545290030    1.492144548   -2.330785651
  16  H       1.00    3.113285523   -1.929166277   -2.339380957
  17  H       1.00   -2.715939728   -3.643145605   -2.395084773

 Bond lengths in Bohr (Angstrom)

 1-2  3.537712630  1-4  2.647207025  1-8  2.048111350  2-4  4.920575160  2-5  3.537712630
     ( 1.872076902)     ( 1.400841630)     ( 1.083813852)     ( 2.603856239)     ( 1.872076902)

  2- 7  4.920575160   2- 9  2.818697027   2-10  2.804894433   3- 6  2.637081060   3-11  2.047326465
       ( 2.603856239)       ( 1.491590231)       ( 1.484286213)       ( 1.395483200)       ( 1.083398509)

  3-12  2.042647553   4- 7  2.661606643   4-13  2.052708699   5- 7  2.647207025   5-14  2.048111350
       ( 1.080922535)       ( 1.408461580)       ( 1.086246664)       ( 1.400841630)       ( 1.083813852)

  6-15  2.047326465   6-16  2.042647553   7-17  2.052708699
       ( 1.083398509)       ( 1.080922535)       ( 1.086246664)

 Bond angles

  1-2-4   31.38971240   1-2-5   88.34276334   1-2-7   61.52782617   1-2-9  111.76283528

  1- 2-10  117.70297317   1- 4- 2   44.11250618   1- 4- 7  115.37171282   1- 4-13  122.82835892

  2- 1- 4  104.49778143   2- 1- 8  129.10102262   2- 4- 7   74.30854534   2- 4-13  162.78300609

  2- 5- 7  104.49778143   2- 5-14  129.10102262   2- 7- 4   74.30854534   2- 7- 5   44.11250618

  2- 7-17  162.78300609   3- 6-15  119.63170398   3- 6-16  119.98434599   4- 1- 8  120.73807552

  4- 2- 5   61.52782617   4- 2- 7   31.38290932   4- 2- 9  104.96239254   4- 2-10  142.92779396

  4- 7- 5  115.37171282   4- 7-17  121.23012099   5- 2- 7   31.38971240   5- 2- 9  111.76283528

  5- 2-10  117.70297317   5- 7-17  122.82835892   6- 3-11  119.63170398   6- 3-12  119.98434599

  7- 2- 9  104.96239254   7- 2-10  142.92779396   7- 4-13  121.23012099   7- 5-14  120.73807552

  9- 2-10  108.47219046  11- 3-12  114.94985283  15- 6-16  114.94985283

 NUCLEAR CHARGE:                   60
 NUMBER OF PRIMITIVE AOS:         516
 NUMBER OF SYMMETRY AOS:          471
 NUMBER OF CONTRACTIONS:          354   (  354A   )
 NUMBER OF INNER CORE ORBITALS:     1   (    1A   )
 NUMBER OF OUTER CORE ORBITALS:    10   (   10A   )
 NUMBER OF VALENCE ORBITALS:       38   (   38A   )


 NUCLEAR REPULSION ENERGY  360.12692405


 Eigenvalues of metric

         1 0.133E-03 0.311E-03 0.570E-03 0.605E-03 0.774E-03 0.856E-03 0.937E-03 0.114E-02


 Contracted 2-electron integrals neglected if value below      1.0D-11
 AO integral compression algorithm  1   Integral accuracy      1.0D-11

     6311.641 MB (compressed) written to integral file ( 38.9%)


 NUMBER OF SORTED TWO-ELECTRON INTEGRALS: 1974150030.     BUFFER LENGTH:  32768
 NUMBER OF SEGMENTS:  62  SEGMENT LENGTH:   31999951      RECORD LENGTH: 262144

 Memory used in sort:      32.29 MW

 SORT1 READ  2027978934. AND WROTE  1666399108. INTEGRALS IN   9565 RECORDS. CPU TIME:    17.47 SEC, REAL TIME:    40.18 SEC
 SORT2 READ  1666399108. AND WROTE  1974150030. INTEGRALS IN  24077 RECORDS. CPU TIME:    11.86 SEC, REAL TIME:    32.08 SEC

 FILE SIZES:   FILE 1:  6346.5 MBYTE,  FILE 4: 20059.3 MBYTE,   TOTAL:  26405.9 MBYTE

 OPERATOR DM      FOR CENTER  0  COORDINATES:    0.000000    0.000000    0.000000


 **********************************************************************************************************************************
 DATASETS  * FILE   NREC   LENGTH (MB)   RECORD NAMES
              1      19     5670.43       500      610      700      900      950      970     1000      129      960     1100   
                                          VAR    BASINP    GEOM    SYMINP    ZMAT    AOBASIS   BASIS     P2S    ABASIS      S 
                                         1400     1410     1200     1210     1080     1600     1650     1300     1700   
                                           T        V       H0       H01     AOSYM     SMH    MOLCAS    ERIS     OPER   

 PROGRAMS   *        TOTAL       INT
 CPU TIMES  *        77.72     77.62
 REAL TIME  *       172.71 SEC
 DISK USED  *        24.59 GB
 **********************************************************************************************************************************


 Program * Restricted Hartree-Fock

 Orbital guess generated from atomic densities. Full valence occupancy:   49

 Initial occupancy:  30

 NELEC=   60   SYM=1   MS2= 0   THRE=1.0D-08   THRD=3.2D-06   THRG=3.2D-06  HFMA2=F  DIIS_START=2   DIIS_MAX=10   DIIS_INCORE=F

 Level shifts:    0.00 (CLOSED)    0.00 (OPEN)    0.30 (GAP_MIN)

 ITER           ETOT              DE          GRAD        DDIFF     DIIS  NEXP   TIME(IT)  TIME(TOT)  DIAG
   1     -521.83408151    -521.83408151     0.00D+00     0.42D-01     0     0      12.33     23.76    start
   2     -521.90461944      -0.07053793     0.23D-02     0.35D-02     1     0      11.55     35.31    diag
   3     -521.91500124      -0.01038179     0.97D-03     0.13D-02     2     0      12.44     47.75    diag
   4     -521.91689644      -0.00189520     0.35D-03     0.49D-03     3     0      11.74     59.49    diag
   5     -521.91696019      -0.00006375     0.54D-04     0.10D-03     4     0      12.15     71.64    diag
   6     -521.91697692      -0.00001673     0.24D-04     0.47D-04     5     0      11.95     83.59    diag
   7     -521.91698163      -0.00000471     0.11D-04     0.20D-04     6     0      12.05     95.64    diag
   8     -521.91698363      -0.00000200     0.51D-05     0.15D-04     7     0      12.07    107.71    fixocc
   9     -521.91698403      -0.00000039     0.24D-05     0.68D-05     8     0      12.32    120.03    diag
  10     -521.91698409      -0.00000007     0.10D-05     0.33D-05     9     0      12.14    132.17    diag/orth
  11     -521.91698410      -0.00000000     0.28D-06     0.91D-06     9     0      12.07    144.24    diag
  12     -521.91698410      -0.00000000     0.67D-07     0.14D-06     0     0      12.21    156.45    diag

 Final occupancy:  30

 !RHF STATE 1.1 Energy               -521.916984095997
  RHF One-electron energy           -1430.181004277933
  RHF Two-electron energy             548.137096135018
  RHF Kinetic energy                  521.527585439134
  RHF Nuclear energy                  360.126924046918
  RHF Virial quotient                  -1.000746650163

 !RHF STATE 1.1 Dipole moment           0.24001071    -0.17711953     0.00000000
 Dipole moment /Debye                   0.61004639    -0.45019294     0.00000000

 Orbital energies:

           1.1          2.1          3.1          4.1          5.1          6.1          7.1          8.1          9.1         10.1
    -68.766663   -11.234009   -11.232792   -11.228593   -11.227620   -11.226303   -11.226170    -6.114207    -4.220327    -4.220059

          11.1         12.1         13.1         14.1         15.1         16.1         17.1         18.1         19.1         20.1
     -4.219954    -1.109840    -1.018861    -0.955908    -0.846802    -0.798620    -0.701568    -0.694242    -0.659693    -0.622730

          21.1         22.1         23.1         24.1         25.1         26.1         27.1         28.1         29.1         30.1
     -0.574011    -0.548199    -0.533839    -0.515274    -0.509590    -0.467841    -0.437430    -0.431167    -0.308594    -0.302509

          31.1         32.1
      0.103554     0.122034


 HOMO     30.1    -0.302509 =      -8.2317eV
 LUMO     31.1     0.103554 =       2.8179eV
 LUMO-HOMO         0.406064 =      11.0496eV

 Orbitals saved in record  2100.2


 **********************************************************************************************************************************
 DATASETS  * FILE   NREC   LENGTH (MB)   RECORD NAMES
              1      19     5670.43       500      610      700      900      950      970     1000      129      960     1100   
                                          VAR    BASINP    GEOM    SYMINP    ZMAT    AOBASIS   BASIS     P2S    ABASIS      S 
                                         1400     1410     1200     1210     1080     1600     1650     1300     1700   
                                           T        V       H0       H01     AOSYM     SMH    MOLCAS    ERIS     OPER   

              2       4        2.61       700     1000      520     2100   
                                         GEOM     BASIS   MCVARS     RHF  

 PROGRAMS   *        TOTAL    HF-SCF       INT
 CPU TIMES  *       234.17    156.45     77.62
 REAL TIME  *       489.47 SEC
 DISK USED  *        24.59 GB
 **********************************************************************************************************************************


 PROGRAM * MP4 (Closed-shell)     Authors: C. Hampel, H.-J. Werner, 1991, M. Deegan, P.J. Knowles, 1992


 Convergence thresholds:  THRVAR = 1.00D-08  THRDEN = 1.00D-06

 MP4(T)     terms to be evaluated (factor= 0.000)


 Number of core orbitals:          11 (  11 )
 Number of closed-shell orbitals:  19 (  19 )
 Number of external orbitals:     324 ( 324 )

 Molecular orbitals read from record     2100.2  Type=RHF/CANONICAL  

 Number of N-1 electron functions:              19
 Number of N-2 electron functions:             190
 Number of singly external CSFs:              6156
 Number of doubly external CSFs:          18951246
 Total number of CSFs:                    18957403

 Length of J-op  integral file:               0.00 MB
 Length of K-op  integral file:               8.67 MB

 Integral transformation finished. Total CPU: 115.63 sec, npass=  1  Memory used: 486.21 MW

 Reference energy:                   -521.91698410

                        CORR.ENERGY   TOTAL ENERGY   ENERGY CHANGE
 MP2:                   -1.14905605  -523.06604014    -1.14905605

 SCS-MP2 correlation energy:           -1.14033727   (PS=  1.200000  PT=  0.333333)
 SCS-MP2 total energy:               -523.05732136

 MP3(D):                -1.18497099  -523.10195508    -0.03591494
 MP4(DQ):               -1.17709086  -523.09407495     0.00788013
 MP4(SDQ):              -1.18648837  -523.10347246    -0.00939751

 Norm of t1 vector:      0.08107848      S-energy:    -0.00939751      T1 diagnostic:  0.00930034

   CPU time for triples:   2199.55 sec for i =  1 - 14 / 19 (~  41.6 % done)
   CPU time for triples:   2498.68 sec for i = 15 - 18 / 19 (~  85.6 % done)
   CPU time for triples:    754.17 sec for i = 19 - 19 / 19 (  100.0 % done)

 Total CPU time for triples:   5452.40 sec


 RESULTS
 =======

  Reference energy                   -521.916984095995
  MP4(SDQ) singlet pair energy         -0.801195443058
  MP4(SDQ) triplet pair energy         -0.375895412945
  MP4(SDQ) correlation energy          -1.186488367907

  Triples contribution                 -0.072090958012
  Total correlation energy             -1.258579325919

  MP4(SDQ) total energy              -523.103472463902
 !MP4(SDTQ) total energy             -523.175563421914

 Timing summary (sec):

 STEP                 CPU(USER)    SYS     CPU(TOT)    WALL
 Transformation        118.08      9.88    127.96    206.58
 CCSD iterations       471.35      8.10    479.45    344.70
 Triples              5452.40    187.44   5639.84   8881.54

 Program statistics:

 Available memory in ccsd:               805304894
 Min. memory needed in ccsd:              44946202
 Max. memory used in ccsd:                62516794
 Max. memory used in cckext:              48895255 ( 1 integral passes)



 **********************************************************************************************************************************
 DATASETS  * FILE   NREC   LENGTH (MB)   RECORD NAMES
              1      20     8417.88       500      610      700      900      950      970     1000      129      960     1100   
                                          VAR    BASINP    GEOM    SYMINP    ZMAT    AOBASIS   BASIS     P2S    ABASIS      S 
                                         1400     1410     1200     1210     1080     1600     1650     1300     1700     1380   
                                           T        V       H0       H01     AOSYM     SMH    MOLCAS    ERIS     OPER     JKOP   

              2       4        2.61       700     1000      520     2100   
                                         GEOM     BASIS   MCVARS     RHF  

 PROGRAMS   *        TOTAL       MP4    HF-SCF       INT
 CPU TIMES  *      6041.74   5807.56    156.45     77.62
 REAL TIME  *      9922.33 SEC
 DISK USED  *        24.59 GB
 **********************************************************************************************************************************

 Dump information in style XML to xml output                                                                      

 Orbitals will not be exported.

 **********************************************************************************************************************************

 MP4/cc-pVTZ energy=   -523.175563421914

             MP4          HF-SCF
   -523.17556342   -521.91698410
 **********************************************************************************************************************************
 Molpro calculation terminated
