
 Working directory              : /var/folders/2v/xbgp75_9785319ghcgb4zr4r0000gp/T//molpro.o7S1f96FO3/
 Global scratch directory       : /var/folders/2v/xbgp75_9785319ghcgb4zr4r0000gp/T//molpro.o7S1f96FO3/
 Wavefunction directory         : /Users/sacpjk/wfu/
 Main file repository           : /var/folders/2v/xbgp75_9785319ghcgb4zr4r0000gp/T//molpro.o7S1f96FO3/

 id        : peterk

 Nodes                        nprocs
 Cardiff-University-G34YLXT77Y    1
 GA implementation: MPI file
 GA implementation (serial work in mppx): MPI file

 Using customized tuning parameters: mindgm=1; mindgv=20; mindgc=4; mindgr=1; noblas=0; minvec=7
 default implementation of scratch files=df  


 Variables initialized (1032), CPU time= 0.00 sec
 
 symmetry,nosym
 
 
 geometry={
           16
     H          0.81095741      2.50856646      0.26471178
     C          0.80253441      1.42547707      0.16840175
     C          0.80252841     -1.42547695     -0.16839737
     C         -0.40118102      0.70943782     -0.01417632
     C          1.98196183      0.70242881      0.10577473
     C          1.98195783     -0.70243369     -0.10577335
     C         -0.40118302     -0.70943369      0.01418969
     C         -1.74031949      1.10504796     -0.30270342
     H          2.93507017      1.21991400      0.17946275
     H          2.93506517     -1.21992187     -0.17947138
     H         -2.20864566     -0.71459569      1.19642611
     H          0.81094741     -2.50856533     -0.26471241
     H         -2.20864166      0.71458482     -1.19641974
     H         -2.18036065      2.03107829      0.07544771
     H         -2.18036665     -2.03106616     -0.07546334
     C         -1.74032449     -1.10504183      0.30270280
 }
 basis=cc-pVTZ
 
 
 
 hf; mp3
 
 
 
 {put,xml;noorbitals,nobasis}
 Commands initialized (841), CPU time= 0.01 sec, 704 directives.
 Default parameters read. Elapsed time= 0.91 sec

 Checking input...
 Passed
1


                                         ***  PROGRAM SYSTEM MOLPRO  ***
                                       Copyright, TTI GmbH Stuttgart, 2015
                                    Version 2023.1 linked Tue Jun  6 09:54:11 2023


 **********************************************************************************************************************************
 LABEL *                                                                                                                                                                 
  64 bit serial version                                                                  DATE: 10-Jun-23          TIME: 16:29:00  
 **********************************************************************************************************************************

 SHA1:             8ebb0dd001088a5c915591db1a321413035db0b1
 **********************************************************************************************************************************

 Memory per process:       805 MW
 Total memory per node:   1074 MW
 Total GA space:           268 MW

 GA preallocation disabled
 GA check enabled

 Variable memory set to 805.3 MW

 ZSYMEL=NOSYM


 Geometry recognized as XYZ

 SETTING BASIS          =    CC-PVTZ


 Recomputing integrals since basis changed


 Using spherical harmonics

 Library entry H      S cc-pVTZ              selected for orbital group  1
 Library entry H      P cc-pVTZ              selected for orbital group  1
 Library entry H      D cc-pVTZ              selected for orbital group  1
 Library entry C      S cc-pVTZ              selected for orbital group  2
 Library entry C      P cc-pVTZ              selected for orbital group  2
 Library entry C      D cc-pVTZ              selected for orbital group  2
 Library entry C      F cc-pVTZ              selected for orbital group  2


 PROGRAM * SEWARD (Integral evaluation for generally contracted gaussian basis sets)     Author: Roland Lindh, 1990

 Geometry written to block  1 of record 700


 Point group  C1  



 ATOMIC COORDINATES

 NR  ATOM    CHARGE       X              Y              Z

   1  H       1.00    1.532487404    4.740503575    0.500232766
   2  C       6.00    1.516570240    2.693761259    0.318233186
   3  C       6.00    1.516558902   -2.693761032   -0.318224909
   4  C       6.00   -0.758122254    1.340643182   -0.026789362
   5  C       6.00    3.745365048    1.327398073    0.199885271
   6  C       6.00    3.745357489   -1.327407295   -0.199882663
   7  C       6.00   -0.758126034   -1.340635378    0.026814628
   8  C       6.00   -3.288727205    2.088237999   -0.572026561
   9  H       1.00    5.546478778    2.305303356    0.339135447
  10  H       1.00    5.546469329   -2.305318228   -0.339151755
  11  H       1.00   -4.173735404   -1.350390144    2.260917676
  12  H       1.00    1.532468506   -4.740501439   -0.500233957
  13  H       1.00   -4.173727845    1.350369603   -2.260905639
  14  H       1.00   -4.120284481    3.838181706    0.142575509
  15  H       1.00   -4.120295820   -3.838158783   -0.142605045
  16  C       6.00   -3.288736654   -2.088226415    0.572025389

 Bond lengths in Bohr (Angstrom)

 1-2  2.054879877  2-4  2.669118775  2-5  2.616960237  3-6  2.616958266  3-7  2.669118371
     ( 1.087395602)     ( 1.412436829)     ( 1.384835719)     ( 1.384834676)     ( 1.412436615)

  3-12  2.054878756   4- 7  2.681814331   4- 8  2.694465259   5- 6  2.684735730   5- 9  2.054190843
       ( 1.087395009)       ( 1.419155028)       ( 1.425849611)       ( 1.420700966)       ( 1.087030981)

  6-10  2.054193159   7-16  2.694464185   8-13  2.044502003   8-14  2.065053655  11-16  2.044500503
       ( 1.087032206)       ( 1.425849042)       ( 1.081903868)       ( 1.092779333)       ( 1.081903074)

 15-16  2.065054623
       ( 1.092779846)

 Bond angles

  1-2-4  121.53341822   1-2-5  121.16196772   2-4-7  120.28285902   2-4-8  133.30637066

  2- 5- 6  121.53566660   2- 5- 9  119.67796899   3- 6- 5  121.53575378   3- 6-10  119.67798948

  3- 7- 4  120.28288460   3- 7-16  133.30632763   4- 2- 5  117.08312408   4- 7-16  106.34645307

  4- 8-13  118.26603482   4- 8-14  122.90766015   5- 6-10  118.74038187   6- 3- 7  117.08309647

  6- 3-12  121.16194958   6- 5- 9  118.74047257   7- 3-12  121.53346689   7- 4- 8  106.34638376

  7-16-11  118.26594681   7-16-15  122.90763097  11-16-15  114.66910753  13- 8-14  114.66921017

 NUCLEAR CHARGE:                   56
 NUMBER OF PRIMITIVE AOS:         512
 NUMBER OF SYMMETRY AOS:          464
 NUMBER OF CONTRACTIONS:          352   (  352A   )
 NUMBER OF INNER CORE ORBITALS:     0   (    0A   )
 NUMBER OF OUTER CORE ORBITALS:     8   (    8A   )
 NUMBER OF VALENCE ORBITALS:       40   (   40A   )


 NUCLEAR REPULSION ENERGY  328.46081823


 Eigenvalues of metric

         1 0.370E-04 0.161E-03 0.236E-03 0.293E-03 0.423E-03 0.445E-03 0.598E-03 0.640E-03


 Contracted 2-electron integrals neglected if value below      1.0D-12
 AO integral compression algorithm  1   Integral accuracy      1.0D-12

     6546.522 MB (compressed) written to integral file ( 41.8%)


 NUMBER OF SORTED TWO-ELECTRON INTEGRALS: 1929975256.     BUFFER LENGTH:  32768
 NUMBER OF SEGMENTS:  61  SEGMENT LENGTH:   31999951      RECORD LENGTH: 524288

 Memory used in sort:      32.56 MW

 SORT1 READ  1957366398. AND WROTE  1588406933. INTEGRALS IN   4576 RECORDS. CPU TIME:    15.95 SEC, REAL TIME:    32.85 SEC
 SORT2 READ  1588406933. AND WROTE  1929975256. INTEGRALS IN  24973 RECORDS. CPU TIME:    10.34 SEC, REAL TIME:    36.47 SEC

 FILE SIZES:   FILE 1:  6581.3 MBYTE,  FILE 4: 19193.2 MBYTE,   TOTAL:  25774.5 MBYTE

 OPERATOR DM      FOR CENTER  0  COORDINATES:    0.000000    0.000000    0.000000


 **********************************************************************************************************************************
 DATASETS  * FILE   NREC   LENGTH (MB)   RECORD NAMES
              1      19     5872.36       500      610      700      900      950      970     1000      129      960     1100   
                                          VAR    BASINP    GEOM    SYMINP    ZMAT    AOBASIS   BASIS     P2S    ABASIS      S 
                                         1400     1410     1200     1210     1080     1600     1650     1300     1700   
                                           T        V       H0       H01     AOSYM     SMH    MOLCAS    ERIS     OPER   

 PROGRAMS   *        TOTAL       INT
 CPU TIMES  *        68.00     67.91
 REAL TIME  *       132.63 SEC
 DISK USED  *        24.01 GB
 **********************************************************************************************************************************


 Program * Restricted Hartree-Fock

 Orbital guess generated from atomic densities. Full valence occupancy:   48

 Initial occupancy:  28

 NELEC=   56   SYM=1   MS2= 0   THRE=1.0D-08   THRD=3.2D-06   THRG=3.2D-06  HFMA2=F  DIIS_START=2   DIIS_MAX=10   DIIS_INCORE=F

 Level shifts:    0.00 (CLOSED)    0.00 (OPEN)    0.30 (GAP_MIN)

 ITER           ETOT              DE          GRAD        DDIFF     DIIS  NEXP   TIME(IT)  TIME(TOT)  DIAG
   1     -307.49169131    -307.49169131     0.00D+00     0.40D-01     0     0       8.66     16.14    start
   2     -307.56219805      -0.07050674     0.23D-02     0.38D-02     1     0       8.76     24.90    diag
   3     -307.57196275      -0.00976471     0.99D-03     0.12D-02     2     0       8.59     33.49    diag
   4     -307.57408830      -0.00212554     0.41D-03     0.59D-03     3     0       8.65     42.14    diag
   5     -307.57417688      -0.00008859     0.71D-04     0.12D-03     4     0       8.44     50.58    diag
   6     -307.57420349      -0.00002660     0.24D-04     0.60D-04     5     0       8.35     58.93    diag
   7     -307.57421285      -0.00000936     0.13D-04     0.31D-04     6     0       8.59     67.52    diag
   8     -307.57421597      -0.00000312     0.66D-05     0.21D-04     7     0       8.43     75.95    fixocc
   9     -307.57421636      -0.00000039     0.24D-05     0.79D-05     8     0       8.47     84.42    diag
  10     -307.57421640      -0.00000004     0.92D-06     0.25D-05     9     0       8.53     92.95    diag/orth
