
 Working directory              : /var/folders/2v/xbgp75_9785319ghcgb4zr4r0000gp/T//molpro.F2VI09kPFo/
 Global scratch directory       : /var/folders/2v/xbgp75_9785319ghcgb4zr4r0000gp/T//molpro.F2VI09kPFo/
 Wavefunction directory         : /Users/sacpjk/wfu/
 Main file repository           : /var/folders/2v/xbgp75_9785319ghcgb4zr4r0000gp/T//molpro.F2VI09kPFo/

 id        : peterk

 Nodes                        nprocs
 Cardiff-University-G34YLXT77Y    1
 GA implementation: MPI file
 GA implementation (serial work in mppx): MPI file

 Using customized tuning parameters: mindgm=1; mindgv=20; mindgc=4; mindgr=1; noblas=0; minvec=7
 default implementation of scratch files=df  


 Variables initialized (1032), CPU time= 0.00 sec
 
 core,small
 angstrom
 
 geometry={
 H;O,H,0.95711647;H,O,0.95711647,H,104.22359713
 }
 basis=cc-pCVDZ
 
 
 
 hf; mp2
 
 
 
 {put,xml;noorbitals,nobasis}
 Commands initialized (841), CPU time= 0.01 sec, 704 directives.
 Default parameters read. Elapsed time= 0.42 sec

 Checking input...
 Passed
1


                                         ***  PROGRAM SYSTEM MOLPRO  ***
                                       Copyright, TTI GmbH Stuttgart, 2015
                                    Version 2023.1 linked Tue Jun  6 09:54:11 2023


 **********************************************************************************************************************************
 LABEL *                                                                                                                                                                 
  64 bit serial version                                                                  DATE: 12-Jun-23          TIME: 09:33:43  
 **********************************************************************************************************************************

 SHA1:             8ebb0dd001088a5c915591db1a321413035db0b1
 **********************************************************************************************************************************

 Memory per process:       393 MW
 Total memory per node:    524 MW
 Total GA space:           131 MW

 GA preallocation disabled
 GA check enabled

 Variable memory set to 393.2 MW

 ZUNIT=ANG

 SETTING BASIS          =    CC-PCVDZ


 Recomputing integrals since basis changed


 Using spherical harmonics

 Library entry H      S cc-pVDZ              selected for orbital group  1
 Library entry H      P cc-pVDZ              selected for orbital group  1
 Library entry O      S cc-pCVDZ             selected for orbital group  2
 Library entry O      P cc-pCVDZ             selected for orbital group  2
 Library entry O      D cc-pCVDZ             selected for orbital group  2


 PROGRAM * SEWARD (Integral evaluation for generally contracted gaussian basis sets)     Author: Roland Lindh, 1990

 Geometry written to block  1 of record 700

 Orientation using atomic masses  
 Molecule type: Asymmetric top,     Order of principal axis = 2
 Symmetry elements: X,Y
 Rotational constants:     285.7255311    817.0524913    439.3768328 GHz  (calculated with average atomic masses)

 Point group  C2v 



 ATOMIC COORDINATES

 NR  ATOM    CHARGE       X              Y              Z

   1  H       1.00    0.000000000   -1.427435675    0.986464553
   2  H       1.00    0.000000000    1.427435675    0.986464553
   3  O       8.00    0.000000000    0.000000000   -0.124291796

 Bond lengths in Bohr (Angstrom)

 1-3  1.808687998  2-3  1.808687998
     ( 0.957116470)     ( 0.957116470)

 Bond angles

  1-3-2  104.22359713

 NUCLEAR CHARGE:                   10
 NUMBER OF PRIMITIVE AOS:          45
 NUMBER OF SYMMETRY AOS:           44
 NUMBER OF CONTRACTIONS:           28   (   13A1  +    5B1  +    8B2  +    2A2  )
 NUMBER OF INNER CORE ORBITALS:     0   (    0A1  +    0B1  +    0B2  +    0A2  )
 NUMBER OF OUTER CORE ORBITALS:     1   (    1A1  +    0B1  +    0B2  +    0A2  )
 NUMBER OF VALENCE ORBITALS:        6   (    3A1  +    1B1  +    2B2  +    0A2  )


 NUCLEAR REPULSION ENERGY    9.19646976

 Eigenvalues of metric

         1 0.170E-01 0.424E-01 0.781E-01 0.146E+00 0.227E+00 0.506E+00 0.982E+00 0.101E+01
         2 0.169E+00 0.510E+00 0.993E+00 0.112E+01 0.226E+01
         3 0.441E-01 0.963E-01 0.158E+00 0.655E+00 0.972E+00 0.106E+01 0.117E+01 0.255E+01
         4 0.618E+00 0.133E+01


 Contracted 2-electron integrals neglected if value below      1.0D-11
 AO integral compression algorithm  1   Integral accuracy      1.0D-11

     0.262 MB (compressed) written to integral file (100.0%)


 NUMBER OF SORTED TWO-ELECTRON INTEGRALS:      24919.     BUFFER LENGTH:  32768
 NUMBER OF SEGMENTS:   1  SEGMENT LENGTH:      24919      RECORD LENGTH: 524288

 Memory used in sort:       0.58 MW

 SORT1 READ       35683. AND WROTE       22311. INTEGRALS IN      1 RECORDS. CPU TIME:     0.00 SEC, REAL TIME:     0.00 SEC
 SORT2 READ       22311. AND WROTE       24919. INTEGRALS IN      1 RECORDS. CPU TIME:     0.01 SEC, REAL TIME:     0.01 SEC

 FILE SIZES:   FILE 1:    30.3 MBYTE,  FILE 4:     4.3 MBYTE,   TOTAL:     34.5 MBYTE

 OPERATOR DM      FOR CENTER  0  COORDINATES:    0.000000    0.000000    0.000000


 **********************************************************************************************************************************
 DATASETS  * FILE   NREC   LENGTH (MB)   RECORD NAMES
              1      19       28.74       500      610      700      900      950      970     1000      129      960     1100   
                                          VAR    BASINP    GEOM    SYMINP    ZMAT    AOBASIS   BASIS     P2S    ABASIS      S 
                                         1400     1410     1200     1210     1080     1600     1650     1300     1700   
                                           T        V       H0       H01     AOSYM     SMH    MOLCAS    ERIS     OPER   

 PROGRAMS   *        TOTAL       INT
 CPU TIMES  *         0.17      0.08
 REAL TIME  *         0.97 SEC
 DISK USED  *        33.25 MB
 **********************************************************************************************************************************


 Program * Restricted Hartree-Fock

 Orbital guess generated from atomic densities. Full valence occupancy:    4   1   2   0

 Initial occupancy:   3   1   1   0

 NELEC=   10   SYM=1   MS2= 0   THRE=1.0D-08   THRD=3.2D-06   THRG=3.2D-06  HFMA2=F  DIIS_START=2   DIIS_MAX=10   DIIS_INCORE=F

 Level shifts:    0.00 (CLOSED)    0.00 (OPEN)    0.30 (GAP_MIN)

 ITER           ETOT              DE          GRAD        DDIFF     DIIS  NEXP   TIME(IT)  TIME(TOT)  DIAG
   1      -75.98900898     -75.98900898     0.00D+00     0.35D+00     0     0       0.00      0.00    start
   2      -76.01846217      -0.02945319     0.34D-01     0.67D-01     1     0       0.00      0.00    diag
   3      -76.02697961      -0.00851745     0.18D-01     0.22D-01     2     0       0.00      0.00    diag
   4      -76.02719040      -0.00021079     0.20D-02     0.40D-02     3     0       0.00      0.00    diag
   5      -76.02720923      -0.00001883     0.55D-03     0.13D-02     4     0       0.00      0.00    diag
   6      -76.02720986      -0.00000063     0.86D-04     0.20D-03     5     0       0.00      0.00    diag
   7      -76.02720987      -0.00000002     0.15D-04     0.45D-04     6     0       0.00      0.00    diag
   8      -76.02720987      -0.00000000     0.16D-05     0.38D-05     7     0       0.00      0.00    fixocc
   9      -76.02720987      -0.00000000     0.13D-06     0.30D-06     8     0       0.00      0.00    diag
  10      -76.02720987      -0.00000000     0.25D-07     0.45D-07     0     0       0.00      0.00    diag/orth

 Final occupancy:   3   1   1   0

 !RHF STATE 1.1 Energy                -76.027209874519
  RHF One-electron energy            -123.153490945551
  RHF Two-electron energy              37.929811306215
  RHF Kinetic energy                   75.993829761988
  RHF Nuclear energy                    9.196469764817
  RHF Virial quotient                  -1.000439247668

 !RHF STATE 1.1 Dipole moment           0.00000000     0.00000000     0.81162270
 Dipole moment /Debye                   0.00000000     0.00000000     2.06293915

 Orbital energies:

           1.1          2.1          3.1          4.1          5.1
    -20.549663    -1.336963    -0.567577     0.185038     0.854698

           1.2          2.2          3.2
     -0.493602     1.197642     1.672902

           1.3          2.3          3.3
     -0.699130     0.256195     0.788132

           1.4          2.4
      1.477124     3.337615


 HOMO      1.2    -0.493602 =     -13.4316eV
 LUMO      4.1     0.185038 =       5.0351eV
 LUMO-HOMO         0.678640 =      18.4667eV

 Orbitals saved in record  2100.2


 **********************************************************************************************************************************
 DATASETS  * FILE   NREC   LENGTH (MB)   RECORD NAMES
              1      19       28.74       500      610      700      900      950      970     1000      129      960     1100   
                                          VAR    BASINP    GEOM    SYMINP    ZMAT    AOBASIS   BASIS     P2S    ABASIS      S 
                                         1400     1410     1200     1210     1080     1600     1650     1300     1700   
                                           T        V       H0       H01     AOSYM     SMH    MOLCAS    ERIS     OPER   

              2       4        0.39       700     1000      520     2100   
                                         GEOM     BASIS   MCVARS     RHF  

 PROGRAMS   *        TOTAL    HF-SCF       INT
 CPU TIMES  *         0.17      0.00      0.08
 REAL TIME  *         1.25 SEC
 DISK USED  *        33.25 MB
 **********************************************************************************************************************************


 PROGRAM * MP2 (Closed-shell)     Authors: C. Hampel, H.-J. Werner, 1991, M. Deegan, P.J. Knowles, 1992


 CORETYPE=SMALL

 Convergence thresholds:  THRVAR = 1.00D-08  THRDEN = 1.00D-06

 Number of closed-shell orbitals:   5 (   3   1   1   0 )
 Number of external orbitals:      23 (  10   4   7   2 )

 Molecular orbitals read from record     2100.2  Type=RHF/CANONICAL  

 Number of N-1 electron functions:               5
 Number of N-2 electron functions:              15
 Number of singly external CSFs:                41
 Number of doubly external CSFs:              1875
 Total number of CSFs:                        1917

 Length of J-op  integral file:               0.00 MB
 Length of K-op  integral file:               0.08 MB

 Integral transformation finished. Total CPU:   0.00 sec, npass=  1  Memory used:   0.07 MW

 Memory needed for MP2:                      0.00 MW

 SCS-MP2 correlation energy:           -0.242117863356   (PS=  1.200000  PT=  0.333333)
 SCS-MP2 total energy:                -76.269327737874


  Reference energy                    -76.027209874519

  Correlated core orbitals:             1.1
  Orbital energies:                   -20.5497

  MP2 core-core energy                 -0.029116523117
  MP2 core-valence energy              -0.007667005669
  MP2 valence correlation energy       -0.204567323107

  MP2 singlet pair energy              -0.159133846077
  MP2 triplet pair energy              -0.082217005816
  MP2 correlation energy               -0.241350851893

 !MP2 total energy                    -76.268560726411


 **********************************************************************************************************************************
 DATASETS  * FILE   NREC   LENGTH (MB)   RECORD NAMES
              1      20       28.78       500      610      700      900      950      970     1000      129      960     1100   
                                          VAR    BASINP    GEOM    SYMINP    ZMAT    AOBASIS   BASIS     P2S    ABASIS      S 
                                         1400     1410     1200     1210     1080     1600     1650     1300     1700     1380   
                                           T        V       H0       H01     AOSYM     SMH    MOLCAS    ERIS     OPER     JKOP   

              2       4        0.39       700     1000      520     2100   
                                         GEOM     BASIS   MCVARS     RHF  

 PROGRAMS   *        TOTAL       MP2    HF-SCF       INT
 CPU TIMES  *         0.20      0.03      0.00      0.08
 REAL TIME  *         1.89 SEC
 DISK USED  *        33.25 MB
 **********************************************************************************************************************************

 Dump information in style XML to xml output                                                                      

 Orbitals will not be exported.

 **********************************************************************************************************************************

 MP2/cc-pCVDZ energy=    -76.268560726411

             MP2          HF-SCF
    -76.26856073    -76.02720987
 **********************************************************************************************************************************
 Molpro calculation terminated
