
 Working directory              : /var/folders/2v/xbgp75_9785319ghcgb4zr4r0000gp/T//molpro.dsPZuCauea/
 Global scratch directory       : /var/folders/2v/xbgp75_9785319ghcgb4zr4r0000gp/T//molpro.dsPZuCauea/
 Wavefunction directory         : /Users/sacpjk/wfu/
 Main file repository           : /var/folders/2v/xbgp75_9785319ghcgb4zr4r0000gp/T//molpro.dsPZuCauea/

 id        : peterk

 Nodes                        nprocs
 Cardiff-University-G34YLXT77Y    1
 GA implementation: MPI file
 GA implementation (serial work in mppx): MPI file

 Using customized tuning parameters: mindgm=1; mindgv=20; mindgc=4; mindgr=1; noblas=0; minvec=7
 default implementation of scratch files=df  


 Variables initialized (1037), CPU time= 0.00 sec
 
 symmetry,nosym
 
 
 geometry={
 15
  o         -3.259503661192    0.443859510660    0.161591013800
  h         -3.778946059172    1.242390287414    0.263168462579
  h         -2.342581388459    0.760093553597    0.176031052799
  c         -0.669779996624   -1.416825242411   -0.144793561968
  h         -0.019817153222   -2.277937119598   -0.277708949315
  h         -1.350755966425   -1.339353183636   -0.988658837180
  h         -1.282796894237   -1.555621229409    0.742214800819
  c          0.084952081525   -0.118812365198   -0.012200055149
  o         -0.491763365271    0.956482490340    0.144388687027
  n          1.435585204479   -0.216315049678   -0.076818023901
  h          1.836536832298   -1.126849028520   -0.206333121983
  c          2.303827316456    0.935655410542    0.032625057766
  h          1.667333186575    1.803955853727    0.167409664787
  h          2.969416823803    0.844200212342    0.888717939052
  h          2.898293039360    1.065075899669   -0.869634129292
 }
 basis=aug-cc-pVTZ
 
 
 
 hf; hf; papt; mp2; counterpoise
 
 
 
 {put,xml;noorbitals,nobasis}
 Commands initialized (841), CPU time= 0.01 sec, 716 directives.
 Default parameters read. Elapsed time= 0.08 sec

 Checking input...
 Passed
1


                                         ***  PROGRAM SYSTEM MOLPRO  ***
                                       Copyright, TTI GmbH Stuttgart, 2015
                                    Version 2023.1 linked Fri Jul  7 12:12:39 2023


 **********************************************************************************************************************************
 LABEL *                                                                                                                                                                 
  64 bit serial version                                                                  DATE: 10-Jul-23          TIME: 07:26:50  
 **********************************************************************************************************************************

 SHA1:             0fe2fddcc441eb00bb4c7ecb49b93e22d4ddc339
 **********************************************************************************************************************************

 Memory per process:      1573 MW
 Total memory per node:   2097 MW
 Total GA space:           524 MW

 GA preallocation disabled
 GA check enabled

 Variable memory set to 1572.9 MW

 ZSYMEL=NOSYM


 Geometry recognized as XYZ

 SETTING BASIS          =    AUG-CC-PVTZ


 Recomputing integrals since basis changed


 Using spherical harmonics

 Library entry O      S aug-cc-pVTZ          selected for orbital group  1
 Library entry O      P aug-cc-pVTZ          selected for orbital group  1
 Library entry O      D aug-cc-pVTZ          selected for orbital group  1
 Library entry O      F aug-cc-pVTZ          selected for orbital group  1
 Library entry H      S aug-cc-pVTZ          selected for orbital group  2
 Library entry H      P aug-cc-pVTZ          selected for orbital group  2
 Library entry H      D aug-cc-pVTZ          selected for orbital group  2
 Library entry C      S aug-cc-pVTZ          selected for orbital group  3
 Library entry C      P aug-cc-pVTZ          selected for orbital group  3
 Library entry C      D aug-cc-pVTZ          selected for orbital group  3
 Library entry C      F aug-cc-pVTZ          selected for orbital group  3
 Library entry N      S aug-cc-pVTZ          selected for orbital group  7
 Library entry N      P aug-cc-pVTZ          selected for orbital group  7
 Library entry N      D aug-cc-pVTZ          selected for orbital group  7
 Library entry N      F aug-cc-pVTZ          selected for orbital group  7


 PROGRAM * SEWARD (Integral evaluation for generally contracted gaussian basis sets)     Author: Roland Lindh, 1990

 Geometry written to block  1 of record 700


 Point group  C1  



 ATOMIC COORDINATES

 NR  ATOM    CHARGE       X              Y              Z

   1  O       8.00   -6.159569222    0.838772913    0.305362760
   2  H       1.00   -7.141173092    2.347777383    0.497316319
   3  H       1.00   -4.426837249    1.436368645    0.332650479
   4  C       6.00   -1.265700757   -2.677411675   -0.273620177
   5  H       1.00   -0.037448992   -4.304677285   -0.524793857
   6  H       1.00   -2.552558838   -2.531010701   -1.868294433
   7  H       1.00   -2.424134804   -2.939698077    1.402582699
   8  C       6.00    0.160536168   -0.224522830   -0.023054763
   9  O       8.00   -0.929298078    1.807489950    0.272855074
  10  N       7.00    2.712862865   -0.408776201   -0.145165027
  11  H       1.00    3.470551631   -2.129436048   -0.389913091
  12  C       6.00    4.353602667    1.768132473    0.061652424
  13  H       1.00    3.150803081    3.408982504    0.316358417
  14  H       1.00    5.611384547    1.595307196    1.679433507
  15  H       1.00    5.476980073    2.012701752   -1.643370333

 Bond lengths in Bohr (Angstrom)

 1-2  1.810383058  1-3  1.833091751  4-5  2.054186940  4-6  2.054366800  4-7  2.054366004
     ( 0.958013457)     ( 0.970030380)     ( 1.087028915)     ( 1.087124093)     ( 1.087123672)

  4- 8  2.848437901   8- 9  2.324731652   8-10  2.561880518  10-11  1.895959965  10-12  2.733812709
       ( 1.507328424)       ( 1.230195012)       ( 1.355688787)       ( 1.003298806)       ( 1.446671384)

 12-13  2.050363580  12-14  2.056477441  12-15  2.056427371
       ( 1.085005681)       ( 1.088240997)       ( 1.088214501)

 Bond angles

  2- 1- 3  103.83995269   4- 8- 9  121.94937241   4- 8-10  115.63995729   5- 4- 6  109.63827190

  5-4-7  109.62066912   5-4-8  113.17461220   6-4-7  106.81163439   6-4-8  108.69676200

  7- 4- 8  108.69400884   8-10-11  118.00621069   8-10-12  122.48312985   9- 8-10  122.41067020

 10-12-13  107.13197896  10-12-14  111.07971118  10-12-15  111.09000569  11-10-12  119.51064217

 13-12-14  109.16700179  13-12-15  109.16453086  14-12-15  109.15526956

 NUCLEAR CHARGE:                   50
 NUMBER OF PRIMITIVE AOS:         645
 NUMBER OF SYMMETRY AOS:          573
 NUMBER OF CONTRACTIONS:          483   (  483A   )
 NUMBER OF INNER CORE ORBITALS:     0   (    0A   )
 NUMBER OF OUTER CORE ORBITALS:     6   (    6A   )
 NUMBER OF VALENCE ORBITALS:       33   (   33A   )


 NUCLEAR REPULSION ENERGY  246.86074335


 Eigenvalues of metric

         1 0.668E-05 0.104E-04 0.145E-04 0.211E-04 0.220E-04 0.310E-04 0.382E-04 0.466E-04


 Contracted 2-electron integrals neglected if value below      1.0D-12
 AO integral compression algorithm  1   Integral accuracy      1.0D-12

     25146.425 MB (compressed) written to integral file ( 42.9%)


 NUMBER OF SORTED TWO-ELECTRON INTEGRALS: 6831226941.     BUFFER LENGTH:  32768
 NUMBER OF SEGMENTS: 143  SEGMENT LENGTH:   47999545      RECORD LENGTH: 262144

 Memory used in sort:      48.29 MW

 SORT1 READ  7321854864. AND WROTE  5833489072. INTEGRALS IN  33449 RECORDS. CPU TIME:    51.42 SEC, REAL TIME:    69.02 SEC
 SORT2 READ  5833489072. AND WROTE  6831226941. INTEGRALS IN  95926 RECORDS. CPU TIME:    30.33 SEC, REAL TIME:    79.71 SEC

 FILE SIZES:   FILE 1: 25185.2 MBYTE,  FILE 4: 70147.7 MBYTE,   TOTAL:  95332.9 MBYTE

 OPERATOR DM      FOR CENTER  0  COORDINATES:    0.000000    0.000000    0.000000


 **********************************************************************************************************************************
 DATASETS  * FILE   NREC   LENGTH (MB)   RECORD NAMES
              1      19    22446.02       500      610      700      900      950      970     1000      129      960     1100   
                                          VAR    BASINP    GEOM    SYMINP    ZMAT    AOBASIS   BASIS     P2S    ABASIS      S 
                                         1400     1410     1200     1210     1080     1600     1650     1300     1700   
                                           T        V       H0       H01     AOSYM     SMH    MOLCAS    ERIS     OPER   

 PROGRAMS   *        TOTAL       INT
 CPU TIMES  *       194.52    194.43
 REAL TIME  *       273.02 SEC
 DISK USED  *        88.79 GB
 **********************************************************************************************************************************


 Program * Restricted Hartree-Fock

 Orbital guess generated from atomic densities. Full valence occupancy:   39

 Initial occupancy:  25

 NELEC=   50   SYM=1   MS2= 0   THRE=1.0D-08   THRD=3.2D-06   THRG=3.2D-06  HFMA2=F  DIIS_START=2   DIIS_MAX=10   DIIS_INCORE=F

 Level shifts:    0.00 (CLOSED)    0.00 (OPEN)    0.30 (GAP_MIN)

 ITER           ETOT              DE          GRAD        DDIFF     DIIS  NEXP   TIME(IT)  TIME(TOT)  DIAG
   1     -323.03167971    -323.03167971     0.00D+00     0.29D-01     0     0      24.53     46.92    start
   2     -323.12530464      -0.09362493     0.35D-02     0.43D-02     1     0      24.89     71.81    diag
   3     -323.16895750      -0.04365286     0.24D-02     0.16D-02     2     0      24.37     96.18    diag
   4     -323.17142862      -0.00247112     0.40D-03     0.46D-03     3     0      24.20    120.38    diag
   5     -323.17177192      -0.00034331     0.15D-03     0.17D-03     4     0      24.42    144.80    diag
   6     -323.17182363      -0.00005171     0.48D-04     0.66D-04     5     0      24.03    168.83    diag
   7     -323.17183198      -0.00000834     0.17D-04     0.27D-04     6     0      24.74    193.57    diag
   8     -323.17183320      -0.00000122     0.63D-05     0.93D-05     7     0      24.07    217.64    fixocc
   9     -323.17183338      -0.00000018     0.22D-05     0.42D-05     8     0      24.64    242.28    diag
  10     -323.17183340      -0.00000001     0.66D-06     0.12D-05     9     0      24.01    266.29    diag/orth
  11     -323.17183340      -0.00000000     0.26D-06     0.34D-06     9     0      24.19    290.48    diag
  12     -323.17183340      -0.00000000     0.73D-07     0.11D-06     0     0      24.04    314.52    diag

 Final occupancy:  25

 !RHF STATE 1.1 Energy               -323.171833398435
  RHF One-electron energy            -930.929419082237
  RHF Two-electron energy             360.896842333428
  RHF Kinetic energy                  322.740440411795
  RHF Nuclear energy                  246.860743350374
  RHF Virial quotient                  -1.001336656126

 !RHF STATE 1.1 Dipole moment           1.57966929    -0.60280062    -0.13982547
 Dipole moment /Debye                   4.01511885    -1.53216636    -0.35540090

 Orbital energies:

           1.1          2.1          3.1          4.1          5.1          6.1          7.1          8.1          9.1         10.1
    -20.525717   -20.522465   -15.597849   -11.360752   -11.263801   -11.235763    -1.389391    -1.309634    -1.242360    -1.025334

          11.1         12.1         13.1         14.1         15.1         16.1         17.1         18.1         19.1         20.1
     -0.940146    -0.802943    -0.699290    -0.679887    -0.665136    -0.641892    -0.591667    -0.591379    -0.563585    -0.552556

          21.1         22.1         23.1         24.1         25.1         26.1         27.1
     -0.541575    -0.514073    -0.469352    -0.436571    -0.404748     0.020857     0.034429


 HOMO     25.1    -0.404748 =     -11.0138eV
 LUMO     26.1     0.020857 =       0.5676eV
 LUMO-HOMO         0.425606 =      11.5813eV

 Orbitals saved in record  2100.2


 **********************************************************************************************************************************
 DATASETS  * FILE   NREC   LENGTH (MB)   RECORD NAMES
              1      19    22446.02       500      610      700      900      950      970     1000      129      960     1100   
                                          VAR    BASINP    GEOM    SYMINP    ZMAT    AOBASIS   BASIS     P2S    ABASIS      S 
                                         1400     1410     1200     1210     1080     1600     1650     1300     1700   
                                           T        V       H0       H01     AOSYM     SMH    MOLCAS    ERIS     OPER   

              2       4        4.25       700     1000      520     2100   
                                         GEOM     BASIS   MCVARS     RHF  

 PROGRAMS   *        TOTAL    HF-SCF       INT
 CPU TIMES  *       509.04    314.52    194.43
 REAL TIME  *       638.44 SEC
 DISK USED  *        88.79 GB
 **********************************************************************************************************************************


 Program * Restricted Hartree-Fock

 Molecular orbitals read from record     2100.2  Type=RHF/CANONICAL  

 Initial occupancy:  25

 NELEC=   50   SYM=1   MS2= 0   THRE=1.0D-08   THRD=3.2D-06   THRG=3.2D-06  HFMA2=F  DIIS_START=2   DIIS_MAX=10   DIIS_INCORE=F

 Level shifts:    0.00 (CLOSED)    0.00 (OPEN)    0.30 (GAP_MIN)

 ITER           ETOT              DE          GRAD        DDIFF     DIIS  NEXP   TIME(IT)  TIME(TOT)  DIAG
   1     -323.17183340    -323.17183340     0.00D+00     0.30D-01     0     0      24.16     24.17    start
   2     -323.17183340      -0.00000000     0.37D-07     0.46D-07     1     0      24.16     48.33    diag

 Final occupancy:  25

 !RHF STATE 1.1 Energy               -323.171833398468
  RHF One-electron energy            -930.929418551036
  RHF Two-electron energy             360.896841802194
  RHF Kinetic energy                  322.740441162092
  RHF Nuclear energy                  246.860743350374
  RHF Virial quotient                  -1.001336653798

 !RHF STATE 1.1 Dipole moment           1.57966558    -0.60279676    -0.13982487
 Dipole moment /Debye                   4.01510941    -1.53215654    -0.35539936

 Orbital energies:

           1.1          2.1          3.1          4.1          5.1          6.1          7.1          8.1          9.1         10.1
    -20.525717   -20.522464   -15.597854   -11.360751   -11.263803   -11.235758    -1.389391    -1.309634    -1.242362    -1.025333

          11.1         12.1         13.1         14.1         15.1         16.1         17.1         18.1         19.1         20.1
     -0.940146    -0.802944    -0.699290    -0.679886    -0.665136    -0.641893    -0.591666    -0.591379    -0.563585    -0.552557

          21.1         22.1         23.1         24.1         25.1         26.1         27.1
     -0.541574    -0.514072    -0.469351    -0.436572    -0.404749     0.020857     0.034429


 HOMO     25.1    -0.404749 =     -11.0138eV
 LUMO     26.1     0.020857 =       0.5676eV
 LUMO-HOMO         0.425606 =      11.5813eV

 Orbitals saved in record  2101.2


 **********************************************************************************************************************************
 DATASETS  * FILE   NREC   LENGTH (MB)   RECORD NAMES
              1      19    22446.02       500      610      700      900      950      970     1000      129      960     1100   
                                          VAR    BASINP    GEOM    SYMINP    ZMAT    AOBASIS   BASIS     P2S    ABASIS      S 
                                         1400     1410     1200     1210     1080     1600     1650     1300     1700   
                                           T        V       H0       H01     AOSYM     SMH    MOLCAS    ERIS     OPER   

              2       5       10.59       700     1000      520     2100     2101   
                                         GEOM     BASIS   MCVARS     RHF      RHF  

 PROGRAMS   *        TOTAL    HF-SCF    HF-SCF       INT
 CPU TIMES  *       557.39     48.35    314.52    194.43
 REAL TIME  *       694.13 SEC
 DISK USED  *        88.79 GB
 **********************************************************************************************************************************


 PROGRAM * PAPT (Closed-shell)     Authors: C. Hampel, H.-J. Werner, 1991, P.J. Knowles, 2021


 Convergence thresholds:  THRVAR = 1.00D-08  THRDEN = 1.00D-06

 Number of core orbitals:           6 (   6 )
 Number of closed-shell orbitals:  19 (  19 )
 Number of external orbitals:     458 ( 458 )

 Molecular orbitals read from record     2101.2  Type=RHF/CANONICAL  

 Number of N-1 electron functions:              19
 Number of N-2 electron functions:             190
 Number of singly external CSFs:              8702
 Number of doubly external CSFs:          37866753
 Total number of CSFs:                    37875456

 Length of J-op  integral file:               0.00 MB
 Length of K-op  integral file:              16.08 MB

 Integral transformation finished. Total CPU:  66.05 sec, npass=  1  Memory used:  76.95 MW

 Reference energy:                   -323.17183340

                        CORR.ENERGY   TOTAL ENERGY   ENERGY CHANGE
 MP2:                   -1.24088267  -324.41271606    -1.24088267

 SCS-MP2 correlation energy:           -1.22894448   (PS=  1.200000  PT=  0.333333)
 SCS-MP2 total energy:               -324.40077788
 Iteration:   1     0.2215D+00
 Iteration:   2     0.2961D+00
 Iteration:   3     0.9156D-01
 Iteration:   4     0.9997D-01
 Iteration:   5     0.2584D+00
 Iteration:   6     0.1104D+00
 Iteration:   7     0.7373D+00
 Iteration:   8     0.1270D+00
 Iteration:   9     0.1024D+00
 Iteration:  10     0.1347D+00
 Iteration:  11     0.4901D-01
 Iteration:  12     0.1027D+01
 Iteration:  13     0.2185D-01
 Iteration:  14     0.1900D-01
 Iteration:  15     0.1513D-01
 Iteration:  16     0.5592D-02
 Iteration:  17     0.1838D+01
 Iteration:  18     0.2728D-02
 Iteration:  19     0.7359D-02
 Iteration:  20     0.1766D-02
 Iteration:  21     0.1851D-02
 Iteration:  22     0.1138D-02
 Iteration:  23     0.5007D-03
 Iteration:  24     0.5801D-02
 Iteration:  25     0.1591D-03
 Iteration:  26     0.2885D-03
 Iteration:  27     0.9370D-04
 PAPT operator written to  7000.1
 PAPT orbitals and eigenvalues written to  7000.2

 MP3(D):                -1.26670044  -324.43853384    -0.02581778



 RESULTS
 =======

  Reference energy                   -323.171833398467
  MP3 singlet pair energy              -0.850821593059
  MP3 triplet pair energy              -0.415878851409
  MP3 correlation energy               -1.266700444468

 !MP3 total energy                   -324.438533842935

 Timing summary (sec):

 STEP                 CPU(USER)    SYS     CPU(TOT)    WALL
 Transformation         67.86      6.71     74.57     74.05
 CCSD iterations       905.87     11.76    917.63    312.30

 Program statistics:

 Available memory in ccsd:              1572862531
 Min. memory needed in ccsd:              88598334
 Max. memory used in ccsd:               124029705
 Max. memory used in cckext:              90829265 ( 1 integral passes)



 **********************************************************************************************************************************
 DATASETS  * FILE   NREC   LENGTH (MB)   RECORD NAMES
              1      21    22958.09       500      610      700      900      950      970     1000      129      960     1100   
                                          VAR    BASINP    GEOM    SYMINP    ZMAT    AOBASIS   BASIS     P2S    ABASIS      S 
                                         1400     1410     1200     1210     1080     1600     1650     1300     1700     1380   
                                           T        V       H0       H01     AOSYM     SMH    MOLCAS    ERIS     OPER     JKOP   
                                         7000   
                                        PAPT AO    

              2       6       16.04       700     1000      520     2100     2101     7000   
                                         GEOM     BASIS   MCVARS     RHF      RHF     PAPT   

 PROGRAMS   *        TOTAL      PAPT    HF-SCF    HF-SCF       INT
 CPU TIMES  *       973.65    416.26     48.35    314.52    194.43
 REAL TIME  *      1080.60 SEC
 DISK USED  *        88.79 GB
 **********************************************************************************************************************************


 PROGRAM * MP2 (Closed-shell)     Authors: C. Hampel, H.-J. Werner, 1991, M. Deegan, P.J. Knowles, 1992


 Convergence thresholds:  THRVAR = 1.00D-08  THRDEN = 1.00D-06

 Number of core orbitals:           6 (   6 )
 Number of closed-shell orbitals:  19 (  19 )
 Number of external orbitals:     458 ( 458 )

 Molecular orbitals read from record     7000.2  Type=PAPT/CANONICAL (state 1.1)

 Number of N-1 electron functions:              19
 Number of N-2 electron functions:             190
 Number of singly external CSFs:              8702
 Number of doubly external CSFs:          37866753
 Total number of CSFs:                    37875456

 Length of J-op  integral file:               0.00 MB
 Length of K-op  integral file:              16.08 MB

 Integral transformation finished. Total CPU:  66.42 sec, npass=  1  Memory used:  76.95 MW
 Orbital energies read from record       7000.2  Type=PAPT/CANONICAL (state 1.1)

 Memory needed for MP2:                      1.14 MW

 SCS-MP2 correlation energy:           -1.271346245471   (PS=  1.200000  PT=  0.333333)
 SCS-MP2 total energy:               -324.443179643938


  Reference energy                   -323.171833398467
  MP2 singlet pair energy              -0.823986716766
  MP2 triplet pair energy              -0.454117797887
  MP2 correlation energy               -1.278104514653

 !MP2 total energy                   -324.449937913120


 **********************************************************************************************************************************
 DATASETS  * FILE   NREC   LENGTH (MB)   RECORD NAMES
              1      21    22958.09       500      610      700      900      950      970     1000      129      960     1100   
                                          VAR    BASINP    GEOM    SYMINP    ZMAT    AOBASIS   BASIS     P2S    ABASIS      S 
                                         1400     1410     1200     1210     1080     1600     1650     1300     1700     1380   
                                           T        V       H0       H01     AOSYM     SMH    MOLCAS    ERIS     OPER     JKOP   
                                         7000   
                                        PAPT AO    

              2       6       16.04       700     1000      520     2100     2101     7000   
                                         GEOM     BASIS   MCVARS     RHF      RHF     PAPT   

 PROGRAMS   *        TOTAL       MP2      PAPT    HF-SCF    HF-SCF       INT
 CPU TIMES  *      1066.14     92.48    416.26     48.35    314.52    194.43
 REAL TIME  *      1182.56 SEC
 DISK USED  *        88.79 GB
 **********************************************************************************************************************************

 Counterpoise: absolute minimum monomer separation=    -1.000 Bragg radius scale factor=     1.400 Number of monomers= 2

 Counterpoise  MP2  energy

 Running default procedure: HF-SCF001  PAPT  MP2

 Assignment of unique atoms to monomers:
1-15     1     1     1     2     2     2     2     2     2     2     2     2     2     2     2

 *** Long output written to logfile /Users/sacpjk/current/PAPT/S66/9fc4930d/04.molpro/run/1.molpro/1.log ***


 Description                       ENERGY          ENERGR          ENERGC
 Raw                        -324.44993791   -323.17183340   -324.44993791
 Dimer basis, monomer 1      -76.33382473    -76.06004984    -76.33382473
 Dimer basis, monomer 2     -248.10404155   -247.10261078   -248.10404155
 Monomer basis, monomer 1    -76.33331817    -76.05996486    -76.33331817
 Monomer basis, monomer 2   -248.10347024   -247.10252881   -248.10347024
 Counterpoise correction       0.00107787      0.00016695      0.00107787
 Counterpoise corrected     -324.44886004   -323.17166645   -324.44886004


 **********************************************************************************************************************************
 DATASETS  * FILE   NREC   LENGTH (MB)   RECORD NAMES
              1      18       37.00       500      610      700      900      950      970     1000      129      960     1100   
                                          VAR    BASINP    GEOM    SYMINP    ZMAT    AOBASIS   BASIS     P2S    ABASIS      S 
                                         1400     1410     1200     1210     1080     1600     1650     1700   
                                           T        V       H0       H01     AOSYM     SMH    MOLCAS    OPER   

              2      14       41.75       700     1000      520     2100     2101     2102     2103      701     1001     2104   
                                         GEOM     BASIS   MCVARS     RHF      RHF      RHF      RHF     GEOM     BASIS     RHF  
                                          702     1002     2105     7000   
                                         GEOM     BASIS     RHF     PAPT   

 PROGRAMS   *        TOTALCOUNTERPOI      PAPT    HF-SCF       INT       MP2      PAPT    HF-SCF       INT       MP2      PAPT
 CPU TIMES  *      2425.29     33.79    122.22    130.20     85.46      0.12      0.17      0.43      0.37     79.11    246.91
 REAL TIME  *      5155.60 SEC
 DISK USED  *        88.79 GB
 **********************************************************************************************************************************

 Dump information in style XML to xml output                                                                      

 Orbitals will not be exported.

 **********************************************************************************************************************************

 MP2/aug-cc-pVTZ energy=   -324.448860040711

             MP2            PAPT          HF-SCF             MP2            PAPT          HF-SCF             MP2            PAPT
   -248.10347024   -248.09369096   -247.10252881    -76.33331817    -76.33145697    -76.05996486   -248.10404155   -248.09425493
 **********************************************************************************************************************************
 Molpro calculation terminated
