
 Working directory              : /var/folders/2v/xbgp75_9785319ghcgb4zr4r0000gp/T//molpro.8Azm6s3lqo/
 Global scratch directory       : /var/folders/2v/xbgp75_9785319ghcgb4zr4r0000gp/T//molpro.8Azm6s3lqo/
 Wavefunction directory         : /Users/sacpjk/wfu/
 Main file repository           : /var/folders/2v/xbgp75_9785319ghcgb4zr4r0000gp/T//molpro.8Azm6s3lqo/

 id        : peterk

 Nodes                        nprocs
 Cardiff-University-G34YLXT77Y    1
 GA implementation: MPI file
 GA implementation (serial work in mppx): MPI file

 Using customized tuning parameters: mindgm=1; mindgv=20; mindgc=4; mindgr=1; noblas=0; minvec=7
 default implementation of scratch files=df  


 Variables initialized (1032), CPU time= 0.01 sec
 
 symmetry,nosym
 
 
 geometry={
 3
  o          0.083626243910   -0.387641652919    0.000000000000
  h         -0.786848452432    0.044650870405    0.000000000000
  h          0.703222208469    0.342990782462    0.000000000000
 }
 basis=aug-cc-pVDZ
 
 
 
 hf; ccsd; counterpoise
 
 
 
 {put,xml;noorbitals,nobasis}
 Commands initialized (841), CPU time= 0.00 sec, 704 directives.
 Default parameters read. Elapsed time= 0.16 sec

 Checking input...
 Passed
1


                                         ***  PROGRAM SYSTEM MOLPRO  ***
                                       Copyright, TTI GmbH Stuttgart, 2015
                                    Version 2023.1 linked Tue Jun  6 09:54:11 2023


 **********************************************************************************************************************************
 LABEL *                                                                                                                                                                 
  64 bit serial version                                                                  DATE: 08-Jun-23          TIME: 14:48:49  
 **********************************************************************************************************************************

 SHA1:             8ebb0dd001088a5c915591db1a321413035db0b1
 **********************************************************************************************************************************

 Memory per process:       805 MW
 Total memory per node:   1074 MW
 Total GA space:           268 MW

 GA preallocation disabled
 GA check enabled

 Variable memory set to 805.3 MW

 ZSYMEL=NOSYM


 Geometry recognized as XYZ

 SETTING BASIS          =    AUG-CC-PVDZ


 Recomputing integrals since basis changed


 Using spherical harmonics

 Library entry O      S aug-cc-pVDZ          selected for orbital group  1
 Library entry O      P aug-cc-pVDZ          selected for orbital group  1
 Library entry O      D aug-cc-pVDZ          selected for orbital group  1
 Library entry H      S aug-cc-pVDZ          selected for orbital group  2
 Library entry H      P aug-cc-pVDZ          selected for orbital group  2


 PROGRAM * SEWARD (Integral evaluation for generally contracted gaussian basis sets)     Author: Roland Lindh, 1990

 Geometry written to block  1 of record 700


 Point group  C1  



 ATOMIC COORDINATES

 NR  ATOM    CHARGE       X              Y              Z

   1  O       8.00    0.158030698   -0.732536559    0.000000000
   2  H       1.00   -1.486928077    0.084377916    0.000000000
   3  H       1.00    1.328897379    0.648158642    0.000000000

 Bond lengths in Bohr (Angstrom)

 1-2  1.836637860  1-3  1.810317105
     ( 0.971906900)     ( 0.957978557)

 Bond angles

  2-1-3  103.88906569

 NUCLEAR CHARGE:                   10
 NUMBER OF PRIMITIVE AOS:          59
 NUMBER OF SYMMETRY AOS:           57
 NUMBER OF CONTRACTIONS:           41   (   41A   )
 NUMBER OF INNER CORE ORBITALS:     0   (    0A   )
 NUMBER OF OUTER CORE ORBITALS:     1   (    1A   )
 NUMBER OF VALENCE ORBITALS:        6   (    6A   )


 NUCLEAR REPULSION ENERGY    9.12312499

 EXTRA SYMMETRY OF AOS IN SYMMETRY 1:   1 1 1 1 1 1 2 1 1 2   1 1 2 1 1 2 1 2 1 1   2 1 2 1 1 1 1 1 2 1   1 2 1 1 1 1 1 2 1 1
                                        2

 Eigenvalues of metric

         1 0.295E-02 0.305E-02 0.113E-01 0.164E-01 0.253E-01 0.356E-01 0.764E-01 0.917E-01


 Contracted 2-electron integrals neglected if value below      1.0D-11
 AO integral compression algorithm  1   Integral accuracy      1.0D-11

     1.573 MB (compressed) written to integral file ( 37.0%)


 NUMBER OF SORTED TWO-ELECTRON INTEGRALS:     371091.     BUFFER LENGTH:  32768
 NUMBER OF SEGMENTS:   1  SEGMENT LENGTH:     371091      RECORD LENGTH: 524288

 Memory used in sort:       0.93 MW

 SORT1 READ      525861. AND WROTE      180029. INTEGRALS IN      1 RECORDS. CPU TIME:     0.01 SEC, REAL TIME:     0.00 SEC
 SORT2 READ      180029. AND WROTE      371091. INTEGRALS IN      6 RECORDS. CPU TIME:     0.01 SEC, REAL TIME:     0.01 SEC

 FILE SIZES:   FILE 1:    31.6 MBYTE,  FILE 4:     4.3 MBYTE,   TOTAL:     35.9 MBYTE

 OPERATOR DM      FOR CENTER  0  COORDINATES:    0.000000    0.000000    0.000000


 **********************************************************************************************************************************
 DATASETS  * FILE   NREC   LENGTH (MB)   RECORD NAMES
              1      19       29.66       500      610      700      900      950      970     1000      129      960     1100   
                                          VAR    BASINP    GEOM    SYMINP    ZMAT    AOBASIS   BASIS     P2S    ABASIS      S 
                                         1400     1410     1200     1210     1080     1600     1650     1300     1700   
                                           T        V       H0       H01     AOSYM     SMH    MOLCAS    ERIS     OPER   

 PROGRAMS   *        TOTAL       INT
 CPU TIMES  *         0.21      0.12
 REAL TIME  *         1.26 SEC
 DISK USED  *        34.59 MB
 **********************************************************************************************************************************


 Program * Restricted Hartree-Fock

 Orbital guess generated from atomic densities. Full valence occupancy:    7

 Initial occupancy:   5

 NELEC=   10   SYM=1   MS2= 0   THRE=1.0D-08   THRD=3.2D-06   THRG=3.2D-06  HFMA2=F  DIIS_START=2   DIIS_MAX=10   DIIS_INCORE=F

 Level shifts:    0.00 (CLOSED)    0.00 (OPEN)    0.30 (GAP_MIN)

 ITER           ETOT              DE          GRAD        DDIFF     DIIS  NEXP   TIME(IT)  TIME(TOT)  DIAG
   1      -76.00363947     -76.00363947     0.00D+00     0.15D+00     0     0       0.01      0.01    start
   2      -76.03013440      -0.02649493     0.15D-01     0.26D-01     1     0       0.00      0.01    diag
   3      -76.04054940      -0.01041500     0.92D-02     0.92D-02     2     0       0.00      0.01    diag
   4      -76.04073630      -0.00018690     0.92D-03     0.14D-02     3     0       0.00      0.01    diag
   5      -76.04075226      -0.00001596     0.23D-03     0.41D-03     4     0       0.00      0.01    diag
   6      -76.04075305      -0.00000079     0.41D-04     0.81D-04     5     0       0.01      0.02    diag
   7      -76.04075308      -0.00000003     0.75D-05     0.19D-04     6     0       0.00      0.02    diag
   8      -76.04075308      -0.00000000     0.13D-05     0.31D-05     7     0       0.00      0.02    fixocc
   9      -76.04075308      -0.00000000     0.15D-06     0.22D-06     0     0       0.00      0.02    diag

 Final occupancy:   5

 !RHF STATE 1.1 Energy                -76.040753076755
  RHF One-electron energy            -122.847231871571
  RHF Two-electron energy              37.683353803589
  RHF Kinetic energy                   75.898281891171
  RHF Nuclear energy                    9.123124991227
  RHF Virial quotient                  -1.001877133211

 !RHF STATE 1.1 Dipole moment          -0.16463619     0.77547287    -0.00000000
 Dipole moment /Debye                  -0.41846346     1.97105544    -0.00000000

 Orbital energies:

           1.1          2.1          3.1          4.1          5.1          6.1          7.1
    -20.578828    -1.353173    -0.713890    -0.585377    -0.508992     0.035249     0.057944


 HOMO      5.1    -0.508992 =     -13.8504eV
 LUMO      6.1     0.035249 =       0.9592eV
 LUMO-HOMO         0.544241 =      14.8096eV

 Orbitals saved in record  2100.2


 **********************************************************************************************************************************
 DATASETS  * FILE   NREC   LENGTH (MB)   RECORD NAMES
              1      19       29.66       500      610      700      900      950      970     1000      129      960     1100   
                                          VAR    BASINP    GEOM    SYMINP    ZMAT    AOBASIS   BASIS     P2S    ABASIS      S 
                                         1400     1410     1200     1210     1080     1600     1650     1300     1700   
                                           T        V       H0       H01     AOSYM     SMH    MOLCAS    ERIS     OPER   

              2       4        0.44       700     1000      520     2100   
                                         GEOM     BASIS   MCVARS     RHF  

 PROGRAMS   *        TOTAL    HF-SCF       INT
 CPU TIMES  *         0.23      0.02      0.12
 REAL TIME  *         1.57 SEC
 DISK USED  *        34.59 MB
 **********************************************************************************************************************************


 PROGRAM * CCSD (Closed-shell coupled cluster)     Authors: C. Hampel, H.-J. Werner, 1991, M. Deegan, P.J. Knowles, 1992


 Convergence thresholds:  THRVAR = 1.00D-08  THRDEN = 1.00D-06

 Number of core orbitals:           1 (   1 )
 Number of closed-shell orbitals:   4 (   4 )
 Number of external orbitals:      36 (  36 )

 Molecular orbitals read from record     2100.2  Type=RHF/CANONICAL  

 Number of N-1 electron functions:               4
 Number of N-2 electron functions:              10
 Number of singly external CSFs:               144
 Number of doubly external CSFs:             10440
 Total number of CSFs:                       10585

 Length of J-op  integral file:               0.00 MB
 Length of K-op  integral file:               0.18 MB
 Length of 3-ext integral record:             0.00 MB

 Integral transformation finished. Total CPU:   0.01 sec, npass=  1  Memory used:   0.29 MW

 Reference energy:                    -76.04075308

 MP2 singlet pair energy:              -0.13608586
 MP2 triplet pair energy:              -0.08397336
 MP2 correlation energy:               -0.22005921
 MP2 total energy:                    -76.26081229

 SCS-MP2 correlation energy:           -0.21555312   (PS=  1.200000  PT=  0.333333)
 SCS-MP2 total energy:                -76.25630619

 ITER.      SQ.NORM     CORR.ENERGY   TOTAL ENERGY   ENERGY CHANGE        DEN1      VAR(S)    VAR(P)  DIIS     TIME  TIME/IT
   1      1.06110035    -0.22703151   -76.26778459    -0.00697230    -0.00212214  0.12D-02  0.88D-03  1  1     0.37     0.01
   2      1.06536177    -0.22768683   -76.26843991    -0.00065532    -0.00448896  0.91D-05  0.14D-03  2  2     0.38     0.01
   3      1.06688742    -0.22782870   -76.26858178    -0.00014187    -0.00086243  0.17D-04  0.55D-05  3  3     0.39     0.02
   4      1.06735876    -0.22779308   -76.26854616     0.00003562    -0.00020556  0.77D-06  0.48D-06  4  4     0.39     0.02
   5      1.06748426    -0.22778597   -76.26853904     0.00000711    -0.00004195  0.78D-07  0.32D-07  5  5     0.40     0.03
   6      1.06750628    -0.22778432   -76.26853739     0.00000165    -0.00000280  0.83D-08  0.21D-08  6  6     0.41     0.03
   7      1.06751176    -0.22778358   -76.26853666     0.00000073    -0.00000070  0.53D-09  0.34D-09  6  2     0.41     0.03
   8      1.06751253    -0.22778367   -76.26853674    -0.00000008     0.00000013  0.58D-10  0.20D-10  6  1     0.42     0.03

 Norm of t1 vector:      0.04954612      S-energy:    -0.00000013      T1 diagnostic:  0.01238653
                                                                       D1 diagnostic:  0.02680274
                                                                       D2 diagnostic:  0.12720130 (internal)


 RESULTS
 =======

  Reference energy                    -76.040753076755
  CCSD singlet pair energy             -0.153615058926
  CCSD triplet pair energy             -0.074168473209
  CCSD correlation energy              -0.227783665512

 !CCSD total energy                   -76.268536742267

 Timing summary (sec):

 STEP                 CPU(USER)    SYS     CPU(TOT)    WALL
 Transformation          0.01      0.00      0.01      0.07
 CCSD iterations         0.41      0.01      0.42      0.39

 Program statistics:

 Available memory in ccsd:               805306299
 Min. memory needed in ccsd:                 53614
 Max. memory used in ccsd:                   59994
 Max. memory used in cckext:                 75512 ( 8 integral passes)



 **********************************************************************************************************************************
 DATASETS  * FILE   NREC   LENGTH (MB)   RECORD NAMES
              1      20       30.62       500      610      700      900      950      970     1000      129      960     1100   
                                          VAR    BASINP    GEOM    SYMINP    ZMAT    AOBASIS   BASIS     P2S    ABASIS      S 
                                         1400     1410     1200     1210     1080     1600     1650     1300     1700     1380   
                                           T        V       H0       H01     AOSYM     SMH    MOLCAS    ERIS     OPER     JKOP   

              2       4        0.44       700     1000      520     2100   
                                         GEOM     BASIS   MCVARS     RHF  

 PROGRAMS   *        TOTAL      CCSD    HF-SCF       INT
 CPU TIMES  *         0.32      0.08      0.02      0.12
 REAL TIME  *         2.11 SEC
 DISK USED  *        34.59 MB
 **********************************************************************************************************************************

 Counterpoise: absolute minimum monomer separation=    -1.000 Bragg radius scale factor=     1.400 Number of monomers= 1
 Counterpoise skipped because only a single monomer


 **********************************************************************************************************************************
 DATASETS  * FILE   NREC   LENGTH (MB)   RECORD NAMES
              1      20       30.62       500      610      700      900      950      970     1000      129      960     1100   
                                          VAR    BASINP    GEOM    SYMINP    ZMAT    AOBASIS   BASIS     P2S    ABASIS      S 
                                         1400     1410     1200     1210     1080     1600     1650     1300     1700     1380   
                                           T        V       H0       H01     AOSYM     SMH    MOLCAS    ERIS     OPER     JKOP   

              2       4        0.44       700     1000      520     2100   
                                         GEOM     BASIS   MCVARS     RHF  

 PROGRAMS   *        TOTALCOUNTERPOI      CCSD    HF-SCF       INT
 CPU TIMES  *         0.32      0.00      0.08      0.02      0.12
 REAL TIME  *         2.17 SEC
 DISK USED  *        34.59 MB
 **********************************************************************************************************************************

 Dump information in style XML to xml output                                                                      

 Orbitals will not be exported.

 **********************************************************************************************************************************

 CCSD/aug-cc-pVDZ energy=    -76.268536742267

            CCSD          HF-SCF
    -76.26853674    -76.04075308
 **********************************************************************************************************************************
 Molpro calculation terminated
