
 Working directory              : /var/folders/2v/xbgp75_9785319ghcgb4zr4r0000gp/T//molpro.4gbJ6R29Mi/
 Global scratch directory       : /var/folders/2v/xbgp75_9785319ghcgb4zr4r0000gp/T//molpro.4gbJ6R29Mi/
 Wavefunction directory         : /Users/sacpjk/wfu/
 Main file repository           : /var/folders/2v/xbgp75_9785319ghcgb4zr4r0000gp/T//molpro.4gbJ6R29Mi/

 id        : peterk

 Nodes                        nprocs
 Cardiff-University-G34YLXT77Y    1
 GA implementation: MPI file
 GA implementation (serial work in mppx): MPI file

 Using customized tuning parameters: mindgm=1; mindgv=20; mindgc=4; mindgr=1; noblas=0; minvec=7
 default implementation of scratch files=df  


 Variables initialized (1032), CPU time= 0.00 sec
 
 symmetry,nosym
 
 
 geometry={
            5
     C          0.00000000      0.00000000      0.06556637
     F          0.00000000      0.00000000     -1.31562859
     H          0.51491633     -0.89186125      0.41668741
     H          0.51491633      0.89186125      0.41668741
     H         -1.02983267      0.00000000      0.41668741
 }
 basis=cc-pVDZ
 
 
 
 hf; ccsd(t)
 
 
 
 {put,xml;noorbitals,nobasis}
 Commands initialized (841), CPU time= 0.00 sec, 704 directives.
 Default parameters read. Elapsed time= 1.03 sec

 Checking input...
 Passed
1


                                         ***  PROGRAM SYSTEM MOLPRO  ***
                                       Copyright, TTI GmbH Stuttgart, 2015
                                    Version 2023.1 linked Tue Jun  6 09:54:11 2023


 **********************************************************************************************************************************
 LABEL *                                                                                                                                                                 
  64 bit serial version                                                                  DATE: 09-Jun-23          TIME: 15:39:21  
 **********************************************************************************************************************************

 SHA1:             8ebb0dd001088a5c915591db1a321413035db0b1
 **********************************************************************************************************************************

 Memory per process:       805 MW
 Total memory per node:   1074 MW
 Total GA space:           268 MW

 GA preallocation disabled
 GA check enabled

 Variable memory set to 805.3 MW

 ZSYMEL=NOSYM


 Geometry recognized as XYZ

 SETTING BASIS          =    CC-PVDZ


 Recomputing integrals since basis changed


 Using spherical harmonics

 Library entry C      S cc-pVDZ              selected for orbital group  1
 Library entry C      P cc-pVDZ              selected for orbital group  1
 Library entry C      D cc-pVDZ              selected for orbital group  1
 Library entry F      S cc-pVDZ              selected for orbital group  2
 Library entry F      P cc-pVDZ              selected for orbital group  2
 Library entry F      D cc-pVDZ              selected for orbital group  2
 Library entry H      S cc-pVDZ              selected for orbital group  3
 Library entry H      P cc-pVDZ              selected for orbital group  3


 PROGRAM * SEWARD (Integral evaluation for generally contracted gaussian basis sets)     Author: Roland Lindh, 1990

 Geometry written to block  1 of record 700


 Point group  C1  



 ATOMIC COORDINATES

 NR  ATOM    CHARGE       X              Y              Z

   1  C       6.00    0.000000000    0.000000000    0.123902482
   2  F       9.00    0.000000000    0.000000000   -2.486177717
   3  H       1.00    0.973050841   -1.685373504    0.787425084
   4  H       1.00    0.973050841    1.685373504    0.787425084
   5  H       1.00   -1.946101700    0.000000000    0.787425084

 Bond lengths in Bohr (Angstrom)

 1-2  2.610080199  1-3  2.056106522  1-4  2.056106522  1-5  2.056106532
     ( 1.381194960)     ( 1.088044715)     ( 1.088044715)     ( 1.088044720)

 Bond angles

  2-1-3  108.82678959   2-1-4  108.82678959   2-1-5  108.82678949   3-1-4  110.10789247

  3-1-5  110.10789219   4-1-5  110.10789219

 NUCLEAR CHARGE:                   18
 NUMBER OF PRIMITIVE AOS:          75
 NUMBER OF SYMMETRY AOS:           73
 NUMBER OF CONTRACTIONS:           43   (   43A   )
 NUMBER OF INNER CORE ORBITALS:     0   (    0A   )
 NUMBER OF OUTER CORE ORBITALS:     2   (    2A   )
 NUMBER OF VALENCE ORBITALS:       11   (   11A   )


 NUCLEAR REPULSION ENERGY   37.42306171


 Eigenvalues of metric

         1 0.116E-01 0.239E-01 0.370E-01 0.370E-01 0.472E-01 0.497E-01 0.497E-01 0.107E+00


 Contracted 2-electron integrals neglected if value below      1.0D-11
 AO integral compression algorithm  1   Integral accuracy      1.0D-11

     2.097 MB (compressed) written to integral file ( 49.8%)


 NUMBER OF SORTED TWO-ELECTRON INTEGRALS:     447931.     BUFFER LENGTH:  32768
 NUMBER OF SEGMENTS:   1  SEGMENT LENGTH:     447931      RECORD LENGTH: 524288

 Memory used in sort:       1.00 MW

 SORT1 READ      553316. AND WROTE      344339. INTEGRALS IN      1 RECORDS. CPU TIME:     0.01 SEC, REAL TIME:     0.00 SEC
 SORT2 READ      344339. AND WROTE      447931. INTEGRALS IN      8 RECORDS. CPU TIME:     0.01 SEC, REAL TIME:     0.01 SEC

 FILE SIZES:   FILE 1:    32.2 MBYTE,  FILE 4:     4.3 MBYTE,   TOTAL:     36.5 MBYTE

 OPERATOR DM      FOR CENTER  0  COORDINATES:    0.000000    0.000000    0.000000


 **********************************************************************************************************************************
 DATASETS  * FILE   NREC   LENGTH (MB)   RECORD NAMES
              1      19       30.33       500      610      700      900      950      970     1000      129      960     1100   
                                          VAR    BASINP    GEOM    SYMINP    ZMAT    AOBASIS   BASIS     P2S    ABASIS      S 
                                         1400     1410     1200     1210     1080     1600     1650     1300     1700   
                                           T        V       H0       H01     AOSYM     SMH    MOLCAS    ERIS     OPER   

 PROGRAMS   *        TOTAL       INT
 CPU TIMES  *         0.20      0.12
 REAL TIME  *         2.49 SEC
 DISK USED  *        35.17 MB
 **********************************************************************************************************************************


 Program * Restricted Hartree-Fock

 Orbital guess generated from atomic densities. Full valence occupancy:   13

 Initial occupancy:   9

 NELEC=   18   SYM=1   MS2= 0   THRE=1.0D-08   THRD=3.2D-06   THRG=3.2D-06  HFMA2=F  DIIS_START=2   DIIS_MAX=10   DIIS_INCORE=F

 Level shifts:    0.00 (CLOSED)    0.00 (OPEN)    0.30 (GAP_MIN)

 ITER           ETOT              DE          GRAD        DDIFF     DIIS  NEXP   TIME(IT)  TIME(TOT)  DIAG
   1     -139.02080035    -139.02080035     0.00D+00     0.18D+00     0     0       0.00      0.01    start
   2     -139.04051972      -0.01971937     0.92D-02     0.18D-01     1     0       0.00      0.01    diag
   3     -139.04465981      -0.00414009     0.45D-02     0.57D-02     2     0       0.00      0.01    diag
   4     -139.04496185      -0.00030204     0.92D-03     0.18D-02     3     0       0.01      0.02    diag
   5     -139.04497487      -0.00001302     0.18D-03     0.45D-03     4     0       0.00      0.02    diag
   6     -139.04497553      -0.00000066     0.35D-04     0.76D-04     5     0       0.00      0.02    diag
   7     -139.04497558      -0.00000005     0.96D-05     0.27D-04     6     0       0.00      0.02    diag
   8     -139.04497558      -0.00000000     0.23D-05     0.69D-05     7     0       0.01      0.03    fixocc
   9     -139.04497558      -0.00000000     0.27D-06     0.99D-06     8     0       0.00      0.03    diag
  10     -139.04497558      -0.00000000     0.28D-07     0.93D-07     0     0       0.00      0.03    diag/orth

 Final occupancy:   9

 !RHF STATE 1.1 Energy               -139.044975582249
  RHF One-electron energy            -266.544643206929
  RHF Two-electron energy              90.076605911641
  RHF Kinetic energy                  138.994374091097
  RHF Nuclear energy                   37.423061713039
  RHF Virial quotient                  -1.000364054239

 !RHF STATE 1.1 Dipole moment           0.00000000     0.00000000     0.82714263
 Dipole moment /Debye                   0.00000001     0.00000000     2.10238687

 Orbital energies:

           1.1          2.1          3.1          4.1          5.1          6.1          7.1          8.1          9.1         10.1
    -26.268559   -11.309358    -1.579757    -0.952110    -0.687208    -0.687208    -0.663883    -0.523816    -0.523816     0.188983

          11.1
      0.257401


 HOMO      9.1    -0.523816 =     -14.2537eV
 LUMO     10.1     0.188983 =       5.1425eV
 LUMO-HOMO         0.712798 =      19.3962eV

 Orbitals saved in record  2100.2


 **********************************************************************************************************************************
 DATASETS  * FILE   NREC   LENGTH (MB)   RECORD NAMES
              1      19       30.33       500      610      700      900      950      970     1000      129      960     1100   
                                          VAR    BASINP    GEOM    SYMINP    ZMAT    AOBASIS   BASIS     P2S    ABASIS      S 
                                         1400     1410     1200     1210     1080     1600     1650     1300     1700   
                                           T        V       H0       H01     AOSYM     SMH    MOLCAS    ERIS     OPER   

              2       4        0.47       700     1000      520     2100   
                                         GEOM     BASIS   MCVARS     RHF  

 PROGRAMS   *        TOTAL    HF-SCF       INT
 CPU TIMES  *         0.23      0.03      0.12
 REAL TIME  *         3.18 SEC
 DISK USED  *        35.17 MB
 **********************************************************************************************************************************


 PROGRAM * CCSD (Closed-shell coupled cluster)     Authors: C. Hampel, H.-J. Werner, 1991, M. Deegan, P.J. Knowles, 1992


 Convergence thresholds:  THRVAR = 1.00D-08  THRDEN = 1.00D-06

 CCSD(T)     terms to be evaluated (factor= 1.000)


 Number of core orbitals:           2 (   2 )
 Number of closed-shell orbitals:   7 (   7 )
 Number of external orbitals:      34 (  34 )

 Molecular orbitals read from record     2100.2  Type=RHF/CANONICAL  

 Number of N-1 electron functions:               7
 Number of N-2 electron functions:              28
 Number of singly external CSFs:               238
 Number of doubly external CSFs:             28441
 Total number of CSFs:                       28680

 Length of J-op  integral file:               0.00 MB
 Length of K-op  integral file:               0.19 MB
 Length of 3-ext integral record:             0.00 MB

 Memory could be reduced to 0.52 Mwords without degradation in triples

 Integral transformation finished. Total CPU:   0.01 sec, npass=  1  Memory used:   0.51 MW

 Reference energy:                   -139.04497558

 MP2 singlet pair energy:              -0.21349212
 MP2 triplet pair energy:              -0.12017333
 MP2 correlation energy:               -0.33366545
 MP2 total energy:                   -139.37864104

 SCS-MP2 correlation energy:           -0.33096506   (PS=  1.200000  PT=  0.333333)
 SCS-MP2 total energy:               -139.37594065

 ITER.      SQ.NORM     CORR.ENERGY   TOTAL ENERGY   ENERGY CHANGE        DEN1      VAR(S)    VAR(P)  DIIS     TIME  TIME/IT
   1      1.09366675    -0.35393559  -139.39891117    -0.02027013    -0.01164433  0.13D-02  0.15D-02  1  1     0.37     0.02
   2      1.10107480    -0.35527749  -139.40025307    -0.00134190    -0.00852040  0.31D-04  0.18D-03  2  2     0.39     0.03
   3      1.10307440    -0.35547728  -139.40045286    -0.00019980    -0.00128294  0.14D-04  0.85D-05  3  3     0.41     0.03
   4      1.10361949    -0.35544628  -139.40042186     0.00003100    -0.00028041  0.36D-06  0.76D-06  4  4     0.43     0.03
   5      1.10373815    -0.35544097  -139.40041656     0.00000531    -0.00004235  0.78D-07  0.48D-07  5  5     0.45     0.03
   6      1.10375808    -0.35544039  -139.40041597     0.00000058    -0.00000368  0.67D-08  0.38D-08  6  6     0.47     0.04
   7      1.10376143    -0.35543968  -139.40041526     0.00000071     0.00000003  0.51D-09  0.33D-09  6  1     0.49     0.04

 Norm of t1 vector:      0.04712885      S-energy:    -0.00000051      T1 diagnostic:  0.00890652
                                                                       D1 diagnostic:  0.02323743
                                                                       D2 diagnostic:  0.13194434 (internal)


 Total CPU time for triples:      0.06 sec


 RESULTS
 =======

  Reference energy                   -139.044975582249
  CCSD singlet pair energy             -0.246051046555
  CCSD triplet pair energy             -0.109388123556
  CCSD correlation energy              -0.355439681332

  Triples (T) contribution             -0.006416822396
  Total correlation energy             -0.361856503728

  CCSD total energy                  -139.400415263581
  CCSD[T] energy                     -139.407301305951
  CCSD-T energy                      -139.406634428881
 !CCSD(T) total energy               -139.406832085977

 Timing summary (sec):

 STEP                 CPU(USER)    SYS     CPU(TOT)    WALL
 Transformation          0.01      0.00      0.01      0.10
 CCSD iterations         0.48      0.03      0.51      0.42
 Triples                 0.06      0.00      0.06      0.06

 Program statistics:

 Available memory in ccsd:               805306163
 Min. memory needed in ccsd:                106355
 Max. memory used in ccsd:                  126018
 Max. memory used in cckext:                150917 ( 7 integral passes)



 **********************************************************************************************************************************
 DATASETS  * FILE   NREC   LENGTH (MB)   RECORD NAMES
              1      20       32.04       500      610      700      900      950      970     1000      129      960     1100   
                                          VAR    BASINP    GEOM    SYMINP    ZMAT    AOBASIS   BASIS     P2S    ABASIS      S 
                                         1400     1410     1200     1210     1080     1600     1650     1300     1700     1380   
                                           T        V       H0       H01     AOSYM     SMH    MOLCAS    ERIS     OPER     JKOP   

              2       4        0.47       700     1000      520     2100   
                                         GEOM     BASIS   MCVARS     RHF  

 PROGRAMS   *        TOTAL   CCSD(T)    HF-SCF       INT
 CPU TIMES  *         0.47      0.23      0.03      0.12
 REAL TIME  *         4.06 SEC
 DISK USED  *        38.04 MB
 **********************************************************************************************************************************

 Dump information in style XML to xml output                                                                      

 Orbitals will not be exported.

 **********************************************************************************************************************************

 CCSD(T)/cc-pVDZ energy=   -139.406832085977

         CCSD(T)          HF-SCF
   -139.40683209   -139.04497558
 **********************************************************************************************************************************
 Molpro calculation terminated
