
 Working directory              : /var/folders/2v/xbgp75_9785319ghcgb4zr4r0000gp/T//molpro.TZucg2H8P5/
 Global scratch directory       : /var/folders/2v/xbgp75_9785319ghcgb4zr4r0000gp/T//molpro.TZucg2H8P5/
 Wavefunction directory         : /Users/sacpjk/wfu/
 Main file repository           : /var/folders/2v/xbgp75_9785319ghcgb4zr4r0000gp/T//molpro.TZucg2H8P5/

 id        : peterk

 Nodes                        nprocs
 Cardiff-University-G34YLXT77Y    1
 GA implementation: MPI file
 GA implementation (serial work in mppx): MPI file

 Using customized tuning parameters: mindgm=1; mindgv=20; mindgc=4; mindgr=1; noblas=0; minvec=7
 default implementation of scratch files=df  


 Variables initialized (1032), CPU time= 0.01 sec
 
 symmetry,nosym
 
 
 geometry={
            8
     N         -0.77907197      0.10994832      0.00000000
     N         -0.03149962      0.01698457      1.22272462
     N         -0.03149962      0.01698457     -1.22272462
     H          0.73807619     -0.65953384     -1.13084901
     H          0.38903766      0.93051636     -1.38896889
     H          0.73807619     -0.65953384      1.13084901
     H          0.38903766      0.93051636      1.38896889
     H         -1.41215648     -0.68588250      0.00000000
 }
 basis=cc-pVTZ
 
 
 
 hf; mp2
 
 
 
 {put,xml;noorbitals,nobasis}
 Commands initialized (841), CPU time= 0.00 sec, 704 directives.
 Default parameters read. Elapsed time= 0.23 sec

 Checking input...
 Passed
1


                                         ***  PROGRAM SYSTEM MOLPRO  ***
                                       Copyright, TTI GmbH Stuttgart, 2015
                                    Version 2023.1 linked Tue Jun  6 09:54:11 2023


 **********************************************************************************************************************************
 LABEL *                                                                                                                                                                 
  64 bit serial version                                                                  DATE: 12-Jun-23          TIME: 23:39:22  
 **********************************************************************************************************************************

 SHA1:             8ebb0dd001088a5c915591db1a321413035db0b1
 **********************************************************************************************************************************

 Memory per process:       393 MW
 Total memory per node:    524 MW
 Total GA space:           131 MW

 GA preallocation disabled
 GA check enabled

 Variable memory set to 393.2 MW

 ZSYMEL=NOSYM


 Geometry recognized as XYZ

 SETTING BASIS          =    CC-PVTZ


 Recomputing integrals since basis changed


 Using spherical harmonics

 Library entry N      S cc-pVTZ              selected for orbital group  1
 Library entry N      P cc-pVTZ              selected for orbital group  1
 Library entry N      D cc-pVTZ              selected for orbital group  1
 Library entry N      F cc-pVTZ              selected for orbital group  1
 Library entry H      S cc-pVTZ              selected for orbital group  2
 Library entry H      P cc-pVTZ              selected for orbital group  2
 Library entry H      D cc-pVTZ              selected for orbital group  2


 PROGRAM * SEWARD (Integral evaluation for generally contracted gaussian basis sets)     Author: Roland Lindh, 1990

 Geometry written to block  1 of record 700


 Point group  C1  



 ATOMIC COORDINATES

 NR  ATOM    CHARGE       X              Y              Z

   1  N       7.00   -1.472232655    0.207772213    0.000000000
   2  N       7.00   -0.059525655    0.032096186    2.310614658
   3  N       7.00   -0.059525655    0.032096186   -2.310614658
   4  H       1.00    1.394761858   -1.246338328   -2.136994917
   5  H       1.00    0.735174630    1.758421075   -2.624770798
   6  H       1.00    1.394761858   -1.246338328    2.136994917
   7  H       1.00    0.735174630    1.758421075    2.624770798
   8  H       1.00   -2.668588992   -1.296130079    0.000000000

 Bond lengths in Bohr (Angstrom)

 1-2  2.713953432  1-3  2.713953432  1-8  1.921715533  2-6  1.944091250  2-7  1.926250307
     ( 1.436162308)     ( 1.436162308)     ( 1.016928066)     ( 1.028768786)     ( 1.019327765)

 3-4  1.944091250  3-5  1.926250307
     ( 1.028768786)     ( 1.019327765)

 Bond angles

  1-2-6  110.84993942   1-2-7  107.19322767   1-3-4  110.84993942   1-3-5  107.19322767

  2-1-3  116.72489227   2-1-8  105.86666820   3-1-8  105.86666820   4-3-5  107.17509527

  6-2-7  107.17509527

 NUCLEAR CHARGE:                   26
 NUMBER OF PRIMITIVE AOS:         226
 NUMBER OF SYMMETRY AOS:          206
 NUMBER OF CONTRACTIONS:          160   (  160A   )
 NUMBER OF INNER CORE ORBITALS:     0   (    0A   )
 NUMBER OF OUTER CORE ORBITALS:     3   (    3A   )
 NUMBER OF VALENCE ORBITALS:       17   (   17A   )


 NUCLEAR REPULSION ENERGY   83.69244272


 Eigenvalues of metric

         1 0.114E-02 0.114E-02 0.191E-02 0.255E-02 0.272E-02 0.342E-02 0.356E-02 0.522E-02


 Contracted 2-electron integrals neglected if value below      1.0D-11
 AO integral compression algorithm  1   Integral accuracy      1.0D-11

     353.894 MB (compressed) written to integral file ( 47.7%)


 NUMBER OF SORTED TWO-ELECTRON INTEGRALS:   82953640.     BUFFER LENGTH:  32768
 NUMBER OF SEGMENTS:   6  SEGMENT LENGTH:   15999503      RECORD LENGTH: 524288

 Memory used in sort:      16.56 MW

 SORT1 READ    92777261. AND WROTE    79990162. INTEGRALS IN    232 RECORDS. CPU TIME:     0.58 SEC, REAL TIME:     0.75 SEC
 SORT2 READ    79990162. AND WROTE    82953640. INTEGRALS IN   1350 RECORDS. CPU TIME:     0.53 SEC, REAL TIME:     0.70 SEC

 FILE SIZES:   FILE 1:   385.0 MBYTE,  FILE 4:   973.1 MBYTE,   TOTAL:   1358.1 MBYTE

 OPERATOR DM      FOR CENTER  0  COORDINATES:    0.000000    0.000000    0.000000


 **********************************************************************************************************************************
 DATASETS  * FILE   NREC   LENGTH (MB)   RECORD NAMES
              1      19      335.59       500      610      700      900      950      970     1000      129      960     1100   
                                          VAR    BASINP    GEOM    SYMINP    ZMAT    AOBASIS   BASIS     P2S    ABASIS      S 
                                         1400     1410     1200     1210     1080     1600     1650     1300     1700   
                                           T        V       H0       H01     AOSYM     SMH    MOLCAS    ERIS     OPER   

 PROGRAMS   *        TOTAL       INT
 CPU TIMES  *         3.01      2.93
 REAL TIME  *         5.28 SEC
 DISK USED  *         1.27 GB
 **********************************************************************************************************************************


 Program * Restricted Hartree-Fock

 Orbital guess generated from atomic densities. Full valence occupancy:   20

 Initial occupancy:  13

 NELEC=   26   SYM=1   MS2= 0   THRE=1.0D-08   THRD=3.2D-06   THRG=3.2D-06  HFMA2=F  DIIS_START=2   DIIS_MAX=10   DIIS_INCORE=F

 Level shifts:    0.00 (CLOSED)    0.00 (OPEN)    0.30 (GAP_MIN)

 ITER           ETOT              DE          GRAD        DDIFF     DIIS  NEXP   TIME(IT)  TIME(TOT)  DIAG
   1     -166.20010230    -166.20010230     0.00D+00     0.59D-01     0     0       0.36      0.70    start
   2     -166.23743408      -0.03733178     0.45D-02     0.57D-02     1     0       0.37      1.07    diag
   3     -166.24067089      -0.00323681     0.14D-02     0.14D-02     2     0       0.37      1.44    diag
   4     -166.24115012      -0.00047923     0.47D-03     0.52D-03     3     0       0.37      1.81    diag
   5     -166.24119574      -0.00004561     0.14D-03     0.15D-03     4     0       0.38      2.19    diag
   6     -166.24119921      -0.00000347     0.28D-04     0.45D-04     5     0       0.36      2.55    diag
   7     -166.24119957      -0.00000036     0.99D-05     0.14D-04     6     0       0.36      2.91    diag
   8     -166.24119963      -0.00000006     0.34D-05     0.72D-05     7     0       0.37      3.28    fixocc
   9     -166.24119964      -0.00000000     0.78D-06     0.19D-05     8     0       0.36      3.64    diag
  10     -166.24119964      -0.00000000     0.13D-06     0.23D-06     0     0       0.36      4.00    diag/orth

 Final occupancy:  13

 !RHF STATE 1.1 Energy               -166.241199637023
  RHF One-electron energy            -391.807223852053
  RHF Two-electron energy             141.873581499808
  RHF Kinetic energy                  165.876215039628
  RHF Nuclear energy                   83.692442715223
  RHF Virial quotient                  -1.002200343173

 !RHF STATE 1.1 Dipole moment           0.96622153    -0.16568375    -0.00000000
 Dipole moment /Debye                   2.45589018    -0.42112608    -0.00000000

 Orbital energies:

           1.1          2.1          3.1          4.1          5.1          6.1          7.1          8.1          9.1         10.1
    -15.603194   -15.574935   -15.574904    -1.306332    -1.136451    -0.958285    -0.706288    -0.655065    -0.628249    -0.622655

          11.1         12.1         13.1         14.1         15.1
     -0.457106    -0.407846    -0.398721     0.132295     0.175037


 HOMO     13.1    -0.398721 =     -10.8498eV
 LUMO     14.1     0.132295 =       3.5999eV
 LUMO-HOMO         0.531016 =      14.4497eV

 Orbitals saved in record  2100.2


 **********************************************************************************************************************************
 DATASETS  * FILE   NREC   LENGTH (MB)   RECORD NAMES
              1      19      335.59       500      610      700      900      950      970     1000      129      960     1100   
                                          VAR    BASINP    GEOM    SYMINP    ZMAT    AOBASIS   BASIS     P2S    ABASIS      S 
                                         1400     1410     1200     1210     1080     1600     1650     1300     1700   
                                           T        V       H0       H01     AOSYM     SMH    MOLCAS    ERIS     OPER   

              2       4        0.91       700     1000      520     2100   
                                         GEOM     BASIS   MCVARS     RHF  

 PROGRAMS   *        TOTAL    HF-SCF       INT
 CPU TIMES  *         7.01      4.00      2.93
 REAL TIME  *        10.25 SEC
 DISK USED  *         1.27 GB
 **********************************************************************************************************************************


 PROGRAM * MP2 (Closed-shell)     Authors: C. Hampel, H.-J. Werner, 1991, M. Deegan, P.J. Knowles, 1992


 Convergence thresholds:  THRVAR = 1.00D-08  THRDEN = 1.00D-06

 Number of core orbitals:           3 (   3 )
 Number of closed-shell orbitals:  10 (  10 )
 Number of external orbitals:     147 ( 147 )

 Molecular orbitals read from record     2100.2  Type=RHF/CANONICAL  

 Number of N-1 electron functions:              10
 Number of N-2 electron functions:              55
 Number of singly external CSFs:              1470
 Number of doubly external CSFs:           1081185
 Total number of CSFs:                     1082656

 Length of J-op  integral file:               0.00 MB
 Length of K-op  integral file:               1.82 MB

 Integral transformation finished. Total CPU:   0.57 sec, npass=  1  Memory used:   2.91 MW

 Memory needed for MP2:                      0.12 MW

 SCS-MP2 correlation energy:           -0.645766209965   (PS=  1.200000  PT=  0.333333)
 SCS-MP2 total energy:               -166.886965846987


  Reference energy                   -166.241199637022
  MP2 singlet pair energy              -0.416645697491
  MP2 triplet pair energy              -0.234307563711
  MP2 correlation energy               -0.650953261202

 !MP2 total energy                   -166.892152898224


 **********************************************************************************************************************************
 DATASETS  * FILE   NREC   LENGTH (MB)   RECORD NAMES
              1      20      352.13       500      610      700      900      950      970     1000      129      960     1100   
                                          VAR    BASINP    GEOM    SYMINP    ZMAT    AOBASIS   BASIS     P2S    ABASIS      S 
                                         1400     1410     1200     1210     1080     1600     1650     1300     1700     1380   
                                           T        V       H0       H01     AOSYM     SMH    MOLCAS    ERIS     OPER     JKOP   

              2       4        0.91       700     1000      520     2100   
                                         GEOM     BASIS   MCVARS     RHF  

 PROGRAMS   *        TOTAL       MP2    HF-SCF       INT
 CPU TIMES  *         7.65      0.64      4.00      2.93
 REAL TIME  *        11.27 SEC
 DISK USED  *         1.27 GB
 **********************************************************************************************************************************

 Dump information in style XML to xml output                                                                      

 Orbitals will not be exported.

 **********************************************************************************************************************************

 MP2/cc-pVTZ energy=   -166.892152898224

             MP2          HF-SCF
   -166.89215290   -166.24119964
 **********************************************************************************************************************************
 Molpro calculation terminated
