
 Working directory              : /var/folders/2v/xbgp75_9785319ghcgb4zr4r0000gp/T//molpro.4BjEijiofB/
 Global scratch directory       : /var/folders/2v/xbgp75_9785319ghcgb4zr4r0000gp/T//molpro.4BjEijiofB/
 Wavefunction directory         : /Users/sacpjk/wfu/
 Main file repository           : /var/folders/2v/xbgp75_9785319ghcgb4zr4r0000gp/T//molpro.4BjEijiofB/

 id        : peterk

 Nodes                        nprocs
 Cardiff-University-G34YLXT77Y    1
 GA implementation: MPI file
 GA implementation (serial work in mppx): MPI file

 Using customized tuning parameters: mindgm=1; mindgv=20; mindgc=4; mindgr=1; noblas=0; minvec=7
 default implementation of scratch files=df  


 Variables initialized (1032), CPU time= 0.00 sec
 
 symmetry,nosym
 
 
 geometry={
           16
     H          0.81095741      2.50856646      0.26471178
     C          0.80253441      1.42547707      0.16840175
     C          0.80252841     -1.42547695     -0.16839737
     C         -0.40118102      0.70943782     -0.01417632
     C          1.98196183      0.70242881      0.10577473
     C          1.98195783     -0.70243369     -0.10577335
     C         -0.40118302     -0.70943369      0.01418969
     C         -1.74031949      1.10504796     -0.30270342
     H          2.93507017      1.21991400      0.17946275
     H          2.93506517     -1.21992187     -0.17947138
     H         -2.20864566     -0.71459569      1.19642611
     H          0.81094741     -2.50856533     -0.26471241
     H         -2.20864166      0.71458482     -1.19641974
     H         -2.18036065      2.03107829      0.07544771
     H         -2.18036665     -2.03106616     -0.07546334
     C         -1.74032449     -1.10504183      0.30270280
 }
 basis=cc-pVTZ
 
 
 
 hf; hf; papt; mp4
 
 
 
 {put,xml;noorbitals,nobasis}
 Commands initialized (841), CPU time= 0.01 sec, 704 directives.
 Default parameters read. Elapsed time= 0.83 sec

 Checking input...
 Passed
1


                                         ***  PROGRAM SYSTEM MOLPRO  ***
                                       Copyright, TTI GmbH Stuttgart, 2015
                                    Version 2023.1 linked Tue Jun  6 09:54:11 2023


 **********************************************************************************************************************************
 LABEL *                                                                                                                                                                 
  64 bit serial version                                                                  DATE: 11-Jun-23          TIME: 14:27:28  
 **********************************************************************************************************************************

 SHA1:             8ebb0dd001088a5c915591db1a321413035db0b1
 **********************************************************************************************************************************

 Memory per process:       393 MW
 Total memory per node:    524 MW
 Total GA space:           131 MW

 GA preallocation disabled
 GA check enabled

 Variable memory set to 393.2 MW

 ZSYMEL=NOSYM


 Geometry recognized as XYZ

 SETTING BASIS          =    CC-PVTZ


 Recomputing integrals since basis changed


 Using spherical harmonics

 Library entry H      S cc-pVTZ              selected for orbital group  1
 Library entry H      P cc-pVTZ              selected for orbital group  1
 Library entry H      D cc-pVTZ              selected for orbital group  1
 Library entry C      S cc-pVTZ              selected for orbital group  2
 Library entry C      P cc-pVTZ              selected for orbital group  2
 Library entry C      D cc-pVTZ              selected for orbital group  2
 Library entry C      F cc-pVTZ              selected for orbital group  2


 PROGRAM * SEWARD (Integral evaluation for generally contracted gaussian basis sets)     Author: Roland Lindh, 1990

 Geometry written to block  1 of record 700


 Point group  C1  



 ATOMIC COORDINATES

 NR  ATOM    CHARGE       X              Y              Z

   1  H       1.00    1.532487404    4.740503575    0.500232766
   2  C       6.00    1.516570240    2.693761259    0.318233186
   3  C       6.00    1.516558902   -2.693761032   -0.318224909
   4  C       6.00   -0.758122254    1.340643182   -0.026789362
   5  C       6.00    3.745365048    1.327398073    0.199885271
   6  C       6.00    3.745357489   -1.327407295   -0.199882663
   7  C       6.00   -0.758126034   -1.340635378    0.026814628
   8  C       6.00   -3.288727205    2.088237999   -0.572026561
   9  H       1.00    5.546478778    2.305303356    0.339135447
  10  H       1.00    5.546469329   -2.305318228   -0.339151755
  11  H       1.00   -4.173735404   -1.350390144    2.260917676
  12  H       1.00    1.532468506   -4.740501439   -0.500233957
  13  H       1.00   -4.173727845    1.350369603   -2.260905639
  14  H       1.00   -4.120284481    3.838181706    0.142575509
  15  H       1.00   -4.120295820   -3.838158783   -0.142605045
  16  C       6.00   -3.288736654   -2.088226415    0.572025389

 Bond lengths in Bohr (Angstrom)

 1-2  2.054879877  2-4  2.669118775  2-5  2.616960237  3-6  2.616958266  3-7  2.669118371
     ( 1.087395602)     ( 1.412436829)     ( 1.384835719)     ( 1.384834676)     ( 1.412436615)

  3-12  2.054878756   4- 7  2.681814331   4- 8  2.694465259   5- 6  2.684735730   5- 9  2.054190843
       ( 1.087395009)       ( 1.419155028)       ( 1.425849611)       ( 1.420700966)       ( 1.087030981)

  6-10  2.054193159   7-16  2.694464185   8-13  2.044502003   8-14  2.065053655  11-16  2.044500503
       ( 1.087032206)       ( 1.425849042)       ( 1.081903868)       ( 1.092779333)       ( 1.081903074)

 15-16  2.065054623
       ( 1.092779846)

 Bond angles

  1-2-4  121.53341822   1-2-5  121.16196772   2-4-7  120.28285902   2-4-8  133.30637066

  2- 5- 6  121.53566660   2- 5- 9  119.67796899   3- 6- 5  121.53575378   3- 6-10  119.67798948

  3- 7- 4  120.28288460   3- 7-16  133.30632763   4- 2- 5  117.08312408   4- 7-16  106.34645307

  4- 8-13  118.26603482   4- 8-14  122.90766015   5- 6-10  118.74038187   6- 3- 7  117.08309647

  6- 3-12  121.16194958   6- 5- 9  118.74047257   7- 3-12  121.53346689   7- 4- 8  106.34638376

  7-16-11  118.26594681   7-16-15  122.90763097  11-16-15  114.66910753  13- 8-14  114.66921017

 NUCLEAR CHARGE:                   56
 NUMBER OF PRIMITIVE AOS:         512
 NUMBER OF SYMMETRY AOS:          464
 NUMBER OF CONTRACTIONS:          352   (  352A   )
 NUMBER OF INNER CORE ORBITALS:     0   (    0A   )
 NUMBER OF OUTER CORE ORBITALS:     8   (    8A   )
 NUMBER OF VALENCE ORBITALS:       40   (   40A   )


 NUCLEAR REPULSION ENERGY  328.46081823


 Eigenvalues of metric

         1 0.370E-04 0.161E-03 0.236E-03 0.293E-03 0.423E-03 0.445E-03 0.598E-03 0.640E-03


 Contracted 2-electron integrals neglected if value below      1.0D-12
 AO integral compression algorithm  1   Integral accuracy      1.0D-12

     6546.522 MB (compressed) written to integral file ( 41.8%)


 NUMBER OF SORTED TWO-ELECTRON INTEGRALS: 1929975256.     BUFFER LENGTH:  32768
 NUMBER OF SEGMENTS:  61  SEGMENT LENGTH:   31999951      RECORD LENGTH: 524288

 Memory used in sort:      32.56 MW

 SORT1 READ  1957366398. AND WROTE  1588406933. INTEGRALS IN   4576 RECORDS. CPU TIME:    16.22 SEC, REAL TIME:    22.90 SEC
 SORT2 READ  1588406933. AND WROTE  1929975256. INTEGRALS IN  24973 RECORDS. CPU TIME:    10.52 SEC, REAL TIME:    21.87 SEC

 FILE SIZES:   FILE 1:  6581.3 MBYTE,  FILE 4: 19193.2 MBYTE,   TOTAL:  25774.5 MBYTE

 OPERATOR DM      FOR CENTER  0  COORDINATES:    0.000000    0.000000    0.000000


 **********************************************************************************************************************************
 DATASETS  * FILE   NREC   LENGTH (MB)   RECORD NAMES
              1      19     5872.36       500      610      700      900      950      970     1000      129      960     1100   
                                          VAR    BASINP    GEOM    SYMINP    ZMAT    AOBASIS   BASIS     P2S    ABASIS      S 
                                         1400     1410     1200     1210     1080     1600     1650     1300     1700   
                                           T        V       H0       H01     AOSYM     SMH    MOLCAS    ERIS     OPER   

 PROGRAMS   *        TOTAL       INT
 CPU TIMES  *        68.72     68.62
 REAL TIME  *        95.76 SEC
 DISK USED  *        24.01 GB
 **********************************************************************************************************************************


 Program * Restricted Hartree-Fock

 Orbital guess generated from atomic densities. Full valence occupancy:   48

 Initial occupancy:  28

 NELEC=   56   SYM=1   MS2= 0   THRE=1.0D-08   THRD=3.2D-06   THRG=3.2D-06  HFMA2=F  DIIS_START=2   DIIS_MAX=10   DIIS_INCORE=F

 Level shifts:    0.00 (CLOSED)    0.00 (OPEN)    0.30 (GAP_MIN)

 ITER           ETOT              DE          GRAD        DDIFF     DIIS  NEXP   TIME(IT)  TIME(TOT)  DIAG
   1     -307.49169131    -307.49169131     0.00D+00     0.40D-01     0     0       9.56     18.25    start
   2     -307.56219805      -0.07050674     0.23D-02     0.38D-02     1     0       9.71     27.96    diag
   3     -307.57196275      -0.00976471     0.99D-03     0.12D-02     2     0       9.78     37.74    diag
   4     -307.57408830      -0.00212554     0.41D-03     0.59D-03     3     0       9.61     47.35    diag
   5     -307.57417688      -0.00008859     0.71D-04     0.12D-03     4     0       9.53     56.88    diag
   6     -307.57420349      -0.00002660     0.24D-04     0.60D-04     5     0       9.45     66.33    diag
   7     -307.57421285      -0.00000936     0.13D-04     0.31D-04     6     0       9.35     75.68    diag
   8     -307.57421597      -0.00000312     0.66D-05     0.21D-04     7     0       9.82     85.50    fixocc
   9     -307.57421636      -0.00000039     0.24D-05     0.79D-05     8     0       9.43     94.93    diag
  10     -307.57421640      -0.00000004     0.92D-06     0.25D-05     9     0       9.15    104.08    diag/orth
  11     -307.57421640      -0.00000001     0.40D-06     0.10D-05     9     0       9.00    113.08    diag
  12     -307.57421640      -0.00000000     0.13D-06     0.27D-06     0     0       9.44    122.52    diag

 Final occupancy:  28

 !RHF STATE 1.1 Energy               -307.574216404033
  RHF One-electron energy           -1065.504132514327
  RHF Two-electron energy             429.469097881771
  RHF Kinetic energy                  307.026771702260
  RHF Nuclear energy                  328.460818228523
  RHF Virial quotient                  -1.001783052008

 !RHF STATE 1.1 Dipole moment          -0.08240267    -0.00000082    -0.00000709
 Dipole moment /Debye                  -0.20944670    -0.00000209    -0.00001802

 Orbital energies:

           1.1          2.1          3.1          4.1          5.1          6.1          7.1          8.1          9.1         10.1
    -11.252831   -11.252786   -11.236865   -11.236342   -11.235760   -11.235133   -11.234034   -11.233071    -1.163402    -1.063886

          11.1         12.1         13.1         14.1         15.1         16.1         17.1         18.1         19.1         20.1
     -1.024935    -0.924972    -0.899101    -0.802581    -0.774105    -0.684284    -0.641905    -0.632923    -0.605561    -0.588110

          21.1         22.1         23.1         24.1         25.1         26.1         27.1         28.1         29.1         30.1
     -0.569266    -0.554087    -0.506037    -0.482779    -0.480682    -0.365985    -0.323673    -0.277875     0.068993     0.136986


 HOMO     28.1    -0.277875 =      -7.5614eV
 LUMO     29.1     0.068993 =       1.8774eV
 LUMO-HOMO         0.346868 =       9.4388eV

 Orbitals saved in record  2100.2


 **********************************************************************************************************************************
 DATASETS  * FILE   NREC   LENGTH (MB)   RECORD NAMES
              1      19     5872.36       500      610      700      900      950      970     1000      129      960     1100   
                                          VAR    BASINP    GEOM    SYMINP    ZMAT    AOBASIS   BASIS     P2S    ABASIS      S 
                                         1400     1410     1200     1210     1080     1600     1650     1300     1700   
                                           T        V       H0       H01     AOSYM     SMH    MOLCAS    ERIS     OPER   

              2       4        2.57       700     1000      520     2100   
                                         GEOM     BASIS   MCVARS     RHF  

 PROGRAMS   *        TOTAL    HF-SCF       INT
 CPU TIMES  *       191.25    122.53     68.62
 REAL TIME  *       234.20 SEC
 DISK USED  *        24.01 GB
 **********************************************************************************************************************************


 Program * Restricted Hartree-Fock

 Molecular orbitals read from record     2100.2  Type=RHF/CANONICAL  

 Initial occupancy:  28

 NELEC=   56   SYM=1   MS2= 0   THRE=1.0D-08   THRD=3.2D-06   THRG=3.2D-06  HFMA2=F  DIIS_START=2   DIIS_MAX=10   DIIS_INCORE=F

 Level shifts:    0.00 (CLOSED)    0.00 (OPEN)    0.30 (GAP_MIN)

 ITER           ETOT              DE          GRAD        DDIFF     DIIS  NEXP   TIME(IT)  TIME(TOT)  DIAG
   1     -307.57421640    -307.57421640     0.00D+00     0.41D-01     0     0      10.03     10.04    start
   2     -307.57421640      -0.00000000     0.75D-07     0.14D-06     1     0      10.04     20.08    diag

 Final occupancy:  28

 !RHF STATE 1.1 Energy               -307.574216404240
  RHF One-electron energy           -1065.504124526884
  RHF Two-electron energy             429.469089894121
  RHF Kinetic energy                  307.026771386743
  RHF Nuclear energy                  328.460818228523
  RHF Virial quotient                  -1.001783053038

 !RHF STATE 1.1 Dipole moment          -0.08243310    -0.00000083    -0.00000709
 Dipole moment /Debye                  -0.20952403    -0.00000210    -0.00001802

 Orbital energies:

           1.1          2.1          3.1          4.1          5.1          6.1          7.1          8.1          9.1         10.1
    -11.252828   -11.252784   -11.236863   -11.236340   -11.235758   -11.235132   -11.234040   -11.233077    -1.163402    -1.063887

          11.1         12.1         13.1         14.1         15.1         16.1         17.1         18.1         19.1         20.1
     -1.024935    -0.924971    -0.899102    -0.802581    -0.774105    -0.684284    -0.641905    -0.632923    -0.605560    -0.588110

          21.1         22.1         23.1         24.1         25.1         26.1         27.1         28.1         29.1         30.1
     -0.569266    -0.554088    -0.506038    -0.482779    -0.480682    -0.365985    -0.323674    -0.277874     0.068993     0.136986


 HOMO     28.1    -0.277874 =      -7.5613eV
 LUMO     29.1     0.068993 =       1.8774eV
 LUMO-HOMO         0.346867 =       9.4387eV

 Orbitals saved in record  2101.2


 **********************************************************************************************************************************
 DATASETS  * FILE   NREC   LENGTH (MB)   RECORD NAMES
              1      19     5872.36       500      610      700      900      950      970     1000      129      960     1100   
                                          VAR    BASINP    GEOM    SYMINP    ZMAT    AOBASIS   BASIS     P2S    ABASIS      S 
                                         1400     1410     1200     1210     1080     1600     1650     1300     1700   
                                           T        V       H0       H01     AOSYM     SMH    MOLCAS    ERIS     OPER   

              2       5        5.99       700     1000      520     2100     2101   
                                         GEOM     BASIS   MCVARS     RHF      RHF  

 PROGRAMS   *        TOTAL    HF-SCF    HF-SCF       INT
 CPU TIMES  *       211.34     20.09    122.53     68.62
 REAL TIME  *       257.14 SEC
 DISK USED  *        24.01 GB
 **********************************************************************************************************************************


 PROGRAM * PAPT (Closed-shell)     Authors: C. Hampel, H.-J. Werner, 1991, P.J. Knowles, 2021


 Convergence thresholds:  THRVAR = 1.00D-08  THRDEN = 1.00D-06

 Number of core orbitals:           8 (   8 )
 Number of closed-shell orbitals:  20 (  20 )
 Number of external orbitals:     324 ( 324 )

 Molecular orbitals read from record     2101.2  Type=RHF/CANONICAL  

 Number of N-1 electron functions:              20
 Number of N-2 electron functions:             210
 Number of singly external CSFs:              6480
 Number of doubly external CSFs:          20998440
 Total number of CSFs:                    21004921

 Length of J-op  integral file:               0.00 MB
 Length of K-op  integral file:               8.57 MB

 Integral transformation finished. Total CPU:  33.54 sec, npass=  1  Memory used:  44.78 MW

 Reference energy:                   -307.57421640

                        CORR.ENERGY   TOTAL ENERGY   ENERGY CHANGE
 MP2:                   -1.29986274  -308.87407915    -1.29986274

 SCS-MP2 correlation energy:           -1.27616187   (PS=  1.200000  PT=  0.333333)
 SCS-MP2 total energy:               -308.85037827
 Iteration:   1     0.3339D+00
 Iteration:   2     0.5951D+00
 Iteration:   3     0.1046D+00
 Iteration:   4     0.1585D+00
 Iteration:   5     0.4318D-01
 Iteration:   6     0.2495D-01
 Iteration:   7     0.8249D-01
 Iteration:   8     0.7169D-02
 Iteration:   9     0.1158D-01
 Iteration:  10     0.5333D-02
 Iteration:  11     0.3535D-02
 Iteration:  12     0.5067D-02
 Iteration:  13     0.1135D-02
 Iteration:  14     0.2681D-02
 Iteration:  15     0.3288D-03
 Iteration:  16     0.2750D-03
 Iteration:  17     0.1605D-03
 Iteration:  18     0.4133D-04
 PAPT operator written to  7000.1
 PAPT orbitals and eigenvalues written to  7000.2

 MP3(D):                -1.32589902  -308.90011543    -0.02603628



 RESULTS
 =======

  Reference energy                   -307.574216404240
  MP3 singlet pair energy              -0.877521757444
  MP3 triplet pair energy              -0.448377264543
  MP3 correlation energy               -1.325899021987

 !MP3 total energy                   -308.900115426227

 Timing summary (sec):

 STEP                 CPU(USER)    SYS     CPU(TOT)    WALL
 Transformation         35.57      3.33     38.90     39.47
 CCSD iterations       475.37      8.39    483.76    252.77

 Program statistics:

 Available memory in ccsd:               393214372
 Min. memory needed in ccsd:              49443403
 Max. memory used in ccsd:                69016763
 Max. memory used in cckext:              53344230 ( 1 integral passes)



 **********************************************************************************************************************************
 DATASETS  * FILE   NREC   LENGTH (MB)   RECORD NAMES
              1      21     6172.79       500      610      700      900      950      970     1000      129      960     1100   
                                          VAR    BASINP    GEOM    SYMINP    ZMAT    AOBASIS   BASIS     P2S    ABASIS      S 
                                         1400     1410     1200     1210     1080     1600     1650     1300     1700     1380   
                                           T        V       H0       H01     AOSYM     SMH    MOLCAS    ERIS     OPER     JKOP   
                                         7000   
                                        PAPT AO    

              2       6        8.94       700     1000      520     2100     2101     7000   
                                         GEOM     BASIS   MCVARS     RHF      RHF     PAPT   

 PROGRAMS   *        TOTAL      PAPT    HF-SCF    HF-SCF       INT
 CPU TIMES  *       510.84    299.50     20.09    122.53     68.62
 REAL TIME  *       549.84 SEC
 DISK USED  *        24.01 GB
 **********************************************************************************************************************************


 PROGRAM * MP4 (Closed-shell)     Authors: C. Hampel, H.-J. Werner, 1991, M. Deegan, P.J. Knowles, 1992


 Convergence thresholds:  THRVAR = 1.00D-08  THRDEN = 1.00D-06

 MP4(T)     terms to be evaluated (factor= 0.000)


 Number of core orbitals:           8 (   8 )
 Number of closed-shell orbitals:  20 (  20 )
 Number of external orbitals:     324 ( 324 )

 Molecular orbitals read from record     7000.2  Type=PAPT/CANONICAL (state 1.1)

 Number of N-1 electron functions:              20
 Number of N-2 electron functions:             210
 Number of singly external CSFs:              6480
 Number of doubly external CSFs:          20998440
 Total number of CSFs:                    21004921

 Length of J-op  integral file:               0.00 MB
 Length of K-op  integral file:               8.57 MB

 For full I/O caching in triples, increase memory by 422.40 Mwords to 815.66 Mwords.

 Multipassing necessary in transformation. To avoid, increase memory by 110.26 Mwords.

 Integral transformation finished. Total CPU: 122.80 sec, npass=  2  Memory used: 377.95 MW
 Orbital energies read from record       7000.2  Type=PAPT/CANONICAL (state 1.1)

 Reference energy:                   -307.57421640

                        CORR.ENERGY   TOTAL ENERGY   ENERGY CHANGE
 MP2:                   -1.33839614  -308.91261254    -1.33839614

 SCS-MP2 correlation energy:           -1.32208644   (PS=  1.200000  PT=  0.333333)
 SCS-MP2 total energy:               -308.89630284

 MP3(D):                -1.33876363  -308.91298004    -0.00036750
 MP4(DQ):               -1.31357264  -308.88778904     0.02519099
 MP4(SDQ):              -1.32407752  -308.89829392    -0.01050488

 Norm of t1 vector:      0.08490059      S-energy:    -0.01050488      T1 diagnostic:  0.00949217

 Largest off-diagonal element in interal  block of Fock matrix:  0.12D+00
 Largest off-diagonal element in external block of Fock matrix:  0.17D+00

   CPU time for triples:   1808.26 sec for i =  1 - 14 / 20 (~  35.9 % done)
   CPU time for triples:   1993.50 sec for i = 15 - 18 / 20 (~  73.8 % done)
   CPU time for triples:   1335.19 sec for i = 19 - 20 / 20 (  100.0 % done)

 Total CPU time for triples:   5136.95 sec


 RESULTS
 =======

  Reference energy                   -307.574216404240
  MP4(SDQ) singlet pair energy         -0.871539346685
  MP4(SDQ) triplet pair energy         -0.442033292860
  MP4(SDQ) correlation energy          -1.324077518343

  Triples contribution                 -0.085748734454
  Total correlation energy             -1.409826252796

  MP4(SDQ) total energy              -308.898293922583
 !MP4(SDTQ) total energy             -308.984042657037

 Timing summary (sec):

 STEP                 CPU(USER)    SYS     CPU(TOT)    WALL
 Transformation        135.15     13.82    148.97    150.88
 CCSD iterations       753.08      9.73    762.81    218.41
 Triples              5136.95    174.77   5311.72   4631.33

 Program statistics:

 Available memory in ccsd:               393214372
 Min. memory needed in ccsd:              49443403
 Max. memory used in ccsd:                69016763
 Max. memory used in cckext:              53344230 ( 1 integral passes)



 **********************************************************************************************************************************
 DATASETS  * FILE   NREC   LENGTH (MB)   RECORD NAMES
              1      22     8775.73       500      610      700      900      950      970     1000      129      960     1100   
                                          VAR    BASINP    GEOM    SYMINP    ZMAT    AOBASIS   BASIS     P2S    ABASIS      S 
                                         1400     1410     1200     1210     1080     1600     1650     1300     1700     1380   
                                           T        V       H0       H01     AOSYM     SMH    MOLCAS    ERIS     OPER     JKOP   
                                         7000     1380(1)
                                        PAPT AO   JKOP   

              2       6        8.94       700     1000      520     2100     2101     7000   
                                         GEOM     BASIS   MCVARS     RHF      RHF     PAPT   

 PROGRAMS   *        TOTAL       MP4      PAPT    HF-SCF    HF-SCF       INT
 CPU TIMES  *      6025.08   5514.24    299.50     20.09    122.53     68.62
 REAL TIME  *      5550.85 SEC
 DISK USED  *        24.01 GB
 **********************************************************************************************************************************

 Dump information in style XML to xml output                                                                      

 Orbitals will not be exported.

 **********************************************************************************************************************************

 MP4/cc-pVTZ energy=   -308.984042657037

             MP4            PAPT          HF-SCF          HF-SCF
   -308.98404266   -308.90011543   -307.57421640   -307.57421640
 **********************************************************************************************************************************
 Molpro calculation terminated
