
 Working directory              : /var/folders/2v/xbgp75_9785319ghcgb4zr4r0000gp/T//molpro.ONVjzM0716/
 Global scratch directory       : /var/folders/2v/xbgp75_9785319ghcgb4zr4r0000gp/T//molpro.ONVjzM0716/
 Wavefunction directory         : /Users/sacpjk/wfu/
 Main file repository           : /var/folders/2v/xbgp75_9785319ghcgb4zr4r0000gp/T//molpro.ONVjzM0716/

 id        : peterk

 Nodes                        nprocs
 Cardiff-University-G34YLXT77Y    1
 GA implementation: MPI file
 GA implementation (serial work in mppx): MPI file

 Using customized tuning parameters: mindgm=1; mindgv=20; mindgc=4; mindgr=1; noblas=0; minvec=7
 default implementation of scratch files=df  


 Variables initialized (1032), CPU time= 0.00 sec
 
 core,small
 angstrom
 
 geometry={
 C1;H4,C1,1.08637390;H1,C1,1.08637390,H4,109.47122063;H2,C1,1.08637390,H4,109.47122063,H1,120;H3,C1,1.08637390,H4,109.47122063,H2,120
 }
 basis=cc-pCVQZ
 
 
 
 hf; mp2
 
 
 
 {put,xml;noorbitals,nobasis}
 Commands initialized (841), CPU time= 0.01 sec, 704 directives.
 Default parameters read. Elapsed time= 1.23 sec

 Checking input...
 Passed
1


                                         ***  PROGRAM SYSTEM MOLPRO  ***
                                       Copyright, TTI GmbH Stuttgart, 2015
                                    Version 2023.1 linked Tue Jun  6 09:54:11 2023


 **********************************************************************************************************************************
 LABEL *                                                                                                                                                                 
  64 bit serial version                                                                  DATE: 12-Jun-23          TIME: 10:39:52  
 **********************************************************************************************************************************

 SHA1:             8ebb0dd001088a5c915591db1a321413035db0b1
 **********************************************************************************************************************************

 Memory per process:       393 MW
 Total memory per node:    524 MW
 Total GA space:           131 MW

 GA preallocation disabled
 GA check enabled

 Variable memory set to 393.2 MW

 ZUNIT=ANG

 SETTING BASIS          =    CC-PCVQZ


 Recomputing integrals since basis changed


 Using spherical harmonics

 Library entry C      S cc-pCVQZ             selected for orbital group  1
 Library entry C      P cc-pCVQZ             selected for orbital group  1
 Library entry C      D cc-pCVQZ             selected for orbital group  1
 Library entry C      F cc-pCVQZ             selected for orbital group  1
 Library entry C      G cc-pCVQZ             selected for orbital group  1
 Library entry H      S cc-pVQZ              selected for orbital group  2
 Library entry H      P cc-pVQZ              selected for orbital group  2
 Library entry H      D cc-pVQZ              selected for orbital group  2
 Library entry H      F cc-pVQZ              selected for orbital group  2


 PROGRAM * SEWARD (Integral evaluation for generally contracted gaussian basis sets)     Author: Roland Lindh, 1990

 Geometry written to block  1 of record 700

 Orientation using atomic masses  
 Molecule type: Spherical top,     Neighbour degeneracy = 4
 Symmetry elements: X,Y
 Rotational constants:     159.3144359    159.3144359    159.3144358 GHz  (calculated with average atomic masses)

 Point group  C2v 



 ATOMIC COORDINATES

 NR  ATOM    CHARGE       X              Y              Z

   1  C1      6.00    0.000000000    0.000000000   -0.000000000
   2  H4      1.00    1.676225954    0.000000000    1.185270739
   3  H1      1.00   -1.676225954    0.000000000    1.185270739
   4  H2      1.00    0.000000000    1.676225954   -1.185270739
   5  H3      1.00    0.000000000   -1.676225954   -1.185270739

 Bond lengths in Bohr (Angstrom)

 1-2  2.052949140  1-3  2.052949140  1-4  2.052949140  1-5  2.052949140
     ( 1.086373900)     ( 1.086373900)     ( 1.086373900)     ( 1.086373900)

 Bond angles

  2-1-3  109.47122063   2-1-4  109.47122063   2-1-5  109.47122063   3-1-4  109.47122063

  3-1-5  109.47122063   4-1-5  109.47122064

 NUCLEAR CHARGE:                   10
 NUMBER OF PRIMITIVE AOS:         265
 NUMBER OF SYMMETRY AOS:          225
 NUMBER OF CONTRACTIONS:          204   (   74A1  +   50B1  +   50B2  +   30A2  )
 NUMBER OF INNER CORE ORBITALS:     0   (    0A1  +    0B1  +    0B2  +    0A2  )
 NUMBER OF OUTER CORE ORBITALS:     1   (    1A1  +    0B1  +    0B2  +    0A2  )
 NUMBER OF VALENCE ORBITALS:        8   (    4A1  +    2B1  +    2B2  +    0A2  )


 NUCLEAR REPULSION ENERGY   13.48023391


 Eigenvalues of metric

         1 0.244E-04 0.182E-03 0.239E-03 0.807E-03 0.115E-02 0.168E-02 0.171E-02 0.362E-02
         2 0.239E-03 0.115E-02 0.168E-02 0.737E-02 0.103E-01 0.108E-01 0.128E-01 0.258E-01
         3 0.239E-03 0.115E-02 0.168E-02 0.737E-02 0.103E-01 0.108E-01 0.128E-01 0.258E-01
         4 0.465E-02 0.108E-01 0.183E-01 0.663E-01 0.139E+00 0.149E+00 0.163E+00 0.248E+00


 Contracted 2-electron integrals neglected if value below      1.0D-12
 AO integral compression algorithm  1   Integral accuracy      1.0D-12

     343.933 MB (compressed) written to integral file ( 61.8%)


 NUMBER OF SORTED TWO-ELECTRON INTEGRALS:   55770945.     BUFFER LENGTH:  32768
 NUMBER OF SEGMENTS:   4  SEGMENT LENGTH:   15998700      RECORD LENGTH: 524288

 Memory used in sort:      16.56 MW

 SORT1 READ    69530883. AND WROTE    54204413. INTEGRALS IN    157 RECORDS. CPU TIME:     0.73 SEC, REAL TIME:     0.90 SEC
 SORT2 READ    54204413. AND WROTE    55770945. INTEGRALS IN   1312 RECORDS. CPU TIME:     0.51 SEC, REAL TIME:     0.65 SEC

 FILE SIZES:   FILE 1:   374.9 MBYTE,  FILE 4:   658.6 MBYTE,   TOTAL:   1033.5 MBYTE

 OPERATOR DM      FOR CENTER  0  COORDINATES:    0.000000    0.000000    0.000000


 **********************************************************************************************************************************
 DATASETS  * FILE   NREC   LENGTH (MB)   RECORD NAMES
              1      19      297.38       500      610      700      900      950      970     1000      129      960     1100   
                                          VAR    BASINP    GEOM    SYMINP    ZMAT    AOBASIS   BASIS     P2S    ABASIS      S 
                                         1400     1410     1200     1210     1080     1600     1650     1300     1700   
                                           T        V       H0       H01     AOSYM     SMH    MOLCAS    ERIS     OPER   

 PROGRAMS   *        TOTAL       INT
 CPU TIMES  *         3.39      3.29
 REAL TIME  *         6.61 SEC
 DISK USED  *       985.98 MB
 **********************************************************************************************************************************


 Program * Restricted Hartree-Fock

 Orbital guess generated from atomic densities. Full valence occupancy:    5   2   2   0

 Initial occupancy:   3   1   1   0

 NELEC=   10   SYM=1   MS2= 0   THRE=1.0D-08   THRD=3.2D-06   THRG=3.2D-06  HFMA2=F  DIIS_START=2   DIIS_MAX=10   DIIS_INCORE=F

 Level shifts:    0.00 (CLOSED)    0.00 (OPEN)    0.30 (GAP_MIN)

 ITER           ETOT              DE          GRAD        DDIFF     DIIS  NEXP   TIME(IT)  TIME(TOT)  DIAG
   1      -40.19741054     -40.19741054     0.00D+00     0.61D-01     0     0       0.12      0.23    start
   2      -40.21383621      -0.01642567     0.65D-02     0.60D-02     1     0       0.11      0.34    diag
   3      -40.21600858      -0.00217237     0.25D-02     0.17D-02     2     0       0.12      0.46    diag
   4      -40.21632376      -0.00031518     0.65D-03     0.66D-03     3     0       0.11      0.57    diag
   5      -40.21632912      -0.00000536     0.84D-04     0.14D-03     4     0       0.12      0.69    diag
   6      -40.21632916      -0.00000004     0.69D-05     0.21D-04     5     0       0.12      0.81    diag
   7      -40.21632916      -0.00000000     0.56D-06     0.21D-05     6     0       0.11      0.92    diag
   8      -40.21632916      -0.00000000     0.37D-07     0.94D-07     0     0       0.12      1.04    fixocc

 Final occupancy:   3   1   1   0

 !RHF STATE 1.1 Energy                -40.216329161448
  RHF One-electron energy             -79.822430895046
  RHF Two-electron energy              26.125867822416
  RHF Kinetic energy                   40.186199138322
  RHF Nuclear energy                   13.480233911183
  RHF Virial quotient                  -1.000749760459

 !RHF STATE 1.1 Dipole moment           0.00000000     0.00000000     0.00000000
 Dipole moment /Debye                   0.00000000     0.00000000     0.00000000

 Orbital energies:

           1.1          2.1          3.1          4.1          5.1
    -11.204584    -0.943795    -0.545657     0.115496     0.199692

           1.2          2.2          3.2
     -0.545657     0.199692     0.276548

           1.3          2.3          3.3
     -0.545657     0.199692     0.276548

           1.4          2.4
      0.540723     0.828357


 HOMO      1.3    -0.545657 =     -14.8481eV
 LUMO      4.1     0.115496 =       3.1428eV
 LUMO-HOMO         0.661152 =      17.9909eV

 Orbitals saved in record  2100.2


 **********************************************************************************************************************************
 DATASETS  * FILE   NREC   LENGTH (MB)   RECORD NAMES
              1      19      297.38       500      610      700      900      950      970     1000      129      960     1100   
                                          VAR    BASINP    GEOM    SYMINP    ZMAT    AOBASIS   BASIS     P2S    ABASIS      S 
                                         1400     1410     1200     1210     1080     1600     1650     1300     1700   
                                           T        V       H0       H01     AOSYM     SMH    MOLCAS    ERIS     OPER   

              2       4        0.61       700     1000      520     2100   
                                         GEOM     BASIS   MCVARS     RHF  

 PROGRAMS   *        TOTAL    HF-SCF       INT
 CPU TIMES  *         4.43      1.03      3.29
 REAL TIME  *         8.36 SEC
 DISK USED  *       985.98 MB
 **********************************************************************************************************************************


 PROGRAM * MP2 (Closed-shell)     Authors: C. Hampel, H.-J. Werner, 1991, M. Deegan, P.J. Knowles, 1992


 CORETYPE=SMALL

 Convergence thresholds:  THRVAR = 1.00D-08  THRDEN = 1.00D-06

 Number of closed-shell orbitals:   5 (   3   1   1   0 )
 Number of external orbitals:     199 (  71  49  49  30 )

 Molecular orbitals read from record     2100.2  Type=RHF/CANONICAL  

 Number of N-1 electron functions:               5
 Number of N-2 electron functions:              15
 Number of singly external CSFs:               311
 Number of doubly external CSFs:            128034
 Total number of CSFs:                      128346

 Length of J-op  integral file:               0.00 MB
 Length of K-op  integral file:               0.84 MB

 Integral transformation finished. Total CPU:   0.22 sec, npass=  1  Memory used:   0.30 MW

 Memory needed for MP2:                      0.06 MW

 SCS-MP2 correlation energy:           -0.278515196786   (PS=  1.200000  PT=  0.333333)
 SCS-MP2 total energy:                -40.494844358234


  Reference energy                    -40.216329161448

  Correlated core orbitals:             1.1
  Orbital energies:                   -11.2046

  MP2 core-core energy                 -0.039350755729
  MP2 core-valence energy              -0.012941998275
  MP2 valence correlation energy       -0.210532585491

  MP2 singlet pair energy              -0.199002859596
  MP2 triplet pair energy              -0.063822479899
  MP2 correlation energy               -0.262825339495

 !MP2 total energy                    -40.479154500943


 **********************************************************************************************************************************
 DATASETS  * FILE   NREC   LENGTH (MB)   RECORD NAMES
              1      20      299.43       500      610      700      900      950      970     1000      129      960     1100   
                                          VAR    BASINP    GEOM    SYMINP    ZMAT    AOBASIS   BASIS     P2S    ABASIS      S 
                                         1400     1410     1200     1210     1080     1600     1650     1300     1700     1380   
                                           T        V       H0       H01     AOSYM     SMH    MOLCAS    ERIS     OPER     JKOP   

              2       4        0.61       700     1000      520     2100   
                                         GEOM     BASIS   MCVARS     RHF  

 PROGRAMS   *        TOTAL       MP2    HF-SCF       INT
 CPU TIMES  *         4.68      0.25      1.03      3.29
 REAL TIME  *         9.12 SEC
 DISK USED  *       985.98 MB
 **********************************************************************************************************************************

 Dump information in style XML to xml output                                                                      

 Orbitals will not be exported.

 **********************************************************************************************************************************

 MP2/cc-pCVQZ energy=    -40.479154500943

             MP2          HF-SCF
    -40.47915450    -40.21632916
 **********************************************************************************************************************************
 Molpro calculation terminated
