
 Working directory              : /tmp/peterk/molpro.CjePty8L6D/
 Global scratch directory       : /tmp/peterk/molpro.CjePty8L6D/
 Wavefunction directory         : /home/peterk/wfu/
 Main file repository           : /tmp/peterk/molpro.CjePty8L6D/

 id        : peterk

 Nodes     nprocs
 marat        1
 GA implementation: MPI file
 GA implementation (serial work in mppx): MPI file

 Using customized tuning parameters: mindgm=1; mindgv=20; mindgc=4; mindgr=1; noblas=0; minvec=7
 default implementation of scratch files=df  


 Variables initialized (1032), CPU time= 0.00 sec
 
 core,small
 angstrom
 
 geometry={
 C;H,C,1.10678917;H,C,1.10678917,H,102.02249921
 }
 basis=cc-pCVTZ
 
 
 
 hf; mp4
 
 
 
 {put,xml;noorbitals,nobasis}
 Commands initialized (841), CPU time= 0.01 sec, 708 directives.
 Default parameters read. Elapsed time= 0.05 sec

 Checking input...
 Passed
1


                                         ***  PROGRAM SYSTEM MOLPRO  ***
                                       Copyright, TTI GmbH Stuttgart, 2015
                                    Version 2023.1 linked Sat Jun 10 08:01:27 2023


 **********************************************************************************************************************************
 LABEL *                                                                                                                                                                 
  (16 PROC) 64 bit serial version                                                        DATE: 12-Jun-23          TIME: 10:25:26  
 **********************************************************************************************************************************

 SHA1:             8376d659ba1296ca7ee514c57770fe2c96af278c
 **********************************************************************************************************************************

 Memory per process:      1074 MW
 Total memory per node:   1074 MW

 GA preallocation disabled
 GA check disabled

 Variable memory set to 1073.7 MW

 ZUNIT=ANG

 SETTING BASIS          =    CC-PCVTZ


 Recomputing integrals since basis changed


 Using spherical harmonics

 Library entry C      S cc-pCVTZ             selected for orbital group  1
 Library entry C      P cc-pCVTZ             selected for orbital group  1
 Library entry C      D cc-pCVTZ             selected for orbital group  1
 Library entry C      F cc-pCVTZ             selected for orbital group  1
 Library entry H      S cc-pVTZ              selected for orbital group  2
 Library entry H      P cc-pVTZ              selected for orbital group  2
 Library entry H      D cc-pVTZ              selected for orbital group  2


 PROGRAM * SEWARD (Integral evaluation for generally contracted gaussian basis sets)     Author: Roland Lindh, 1990

 Geometry written to block  1 of record 700

 Orientation using atomic masses  
 Molecule type: Asymmetric top,     Order of principal axis = 2
 Symmetry elements: X,Y
 Rotational constants:     217.0003324    603.7701822    338.7501129 GHz  (calculated with average atomic masses)

 Point group  C2v 



 ATOMIC COORDINATES

 NR  ATOM    CHARGE       X              Y              Z

   1  C       6.00    0.000000000    0.000000000   -0.189118426
   2  H       1.00    0.000000000    1.625681259    1.126803885
   3  H       1.00    0.000000000   -1.625681259    1.126803885

 Bond lengths in Bohr (Angstrom)

 1-2  2.091528409  1-3  2.091528409
     ( 1.106789170)     ( 1.106789170)

 Bond angles

  2-1-3  102.02249921

 NUCLEAR CHARGE:                    8
 NUMBER OF PRIMITIVE AOS:          95
 NUMBER OF SYMMETRY AOS:           87
 NUMBER OF CONTRACTIONS:           71   (   29A1  +   14B1  +   20B2  +    8A2  )
 NUMBER OF INNER CORE ORBITALS:     0   (    0A1  +    0B1  +    0B2  +    0A2  )
 NUMBER OF OUTER CORE ORBITALS:     1   (    1A1  +    0B1  +    0B2  +    0A2  )
 NUMBER OF VALENCE ORBITALS:        6   (    3A1  +    1B1  +    2B2  +    0A2  )


 NUCLEAR REPULSION ENERGY    6.04499440

 Eigenvalues of metric

         1 0.900E-03 0.476E-02 0.122E-01 0.125E-01 0.232E-01 0.520E-01 0.637E-01 0.109E+00
         2 0.225E-01 0.104E+00 0.256E+00 0.410E+00 0.443E+00 0.475E+00 0.594E+00 0.994E+00
         3 0.209E-02 0.101E-01 0.301E-01 0.325E-01 0.987E-01 0.150E+00 0.255E+00 0.329E+00
         4 0.101E+00 0.327E+00 0.456E+00 0.892E+00 0.100E+01 0.126E+01 0.133E+01 0.247E+01


 Contracted 2-electron integrals neglected if value below      1.0D-11
 AO integral compression algorithm  1   Integral accuracy      1.0D-11

     5.505 MB (compressed) written to integral file ( 58.8%)


 NUMBER OF SORTED TWO-ELECTRON INTEGRALS:     876321.     BUFFER LENGTH:  32768
 NUMBER OF SEGMENTS:   1  SEGMENT LENGTH:     876321      RECORD LENGTH: 524288

 Memory used in sort:       1.43 MW

 SORT1 READ     1186197. AND WROTE      793646. INTEGRALS IN      3 RECORDS. CPU TIME:     0.01 SEC, REAL TIME:     0.02 SEC
 SORT2 READ      793646. AND WROTE      876321. INTEGRALS IN     21 RECORDS. CPU TIME:     0.03 SEC, REAL TIME:     0.04 SEC

 FILE SIZES:   FILE 1:    35.6 MBYTE,  FILE 4:    12.6 MBYTE,   TOTAL:     48.3 MBYTE

 OPERATOR DM      FOR CENTER  0  COORDINATES:    0.000000    0.000000    0.000000


 **********************************************************************************************************************************
 DATASETS  * FILE   NREC   LENGTH (MB)   RECORD NAMES
              1      19       32.34       500      610      700      900      950      970     1000      129      960     1100   
                                          VAR    BASINP    GEOM    SYMINP    ZMAT    AOBASIS   BASIS     P2S    ABASIS      S 
                                         1400     1410     1200     1210     1080     1600     1650     1300     1700   
                                           T        V       H0       H01     AOSYM     SMH    MOLCAS    ERIS     OPER   

 PROGRAMS   *        TOTAL       INT
 CPU TIMES  *         0.68      0.56
 REAL TIME  *         1.33 SEC
 DISK USED  *        46.37 MB
 **********************************************************************************************************************************


 Program * Restricted Hartree-Fock

 Orbital guess generated from atomic densities. Full valence occupancy:    4   1   2   0

 Initial occupancy:   3   0   1   0

 NELEC=    8   SYM=1   MS2= 0   THRE=1.0D-08   THRD=3.2D-06   THRG=3.2D-06  HFMA2=F  DIIS_START=2   DIIS_MAX=10   DIIS_INCORE=F

 Level shifts:    0.00 (CLOSED)    0.00 (OPEN)    0.30 (GAP_MIN)

 ITER           ETOT              DE          GRAD        DDIFF     DIIS  NEXP   TIME(IT)  TIME(TOT)  DIAG
   1      -38.88141989     -38.88141989     0.00D+00     0.13D+00     0     0       0.01      0.01    start
   2      -38.89207022      -0.01065032     0.95D-02     0.11D-01     1     0       0.00      0.01    diag
   3      -38.89245889      -0.00038867     0.18D-02     0.22D-02     2     0       0.00      0.01    diag
   4      -38.89250333      -0.00004443     0.49D-03     0.63D-03     3     0       0.01      0.02    diag
   5      -38.89250699      -0.00000366     0.12D-03     0.21D-03     4     0       0.00      0.02    diag
   6      -38.89250721      -0.00000022     0.29D-04     0.68D-04     5     0       0.00      0.02    diag
   7      -38.89250722      -0.00000000     0.34D-05     0.12D-04     6     0       0.01      0.03    diag
   8      -38.89250722      -0.00000000     0.89D-06     0.36D-05     7     0       0.00      0.03    fixocc
   9      -38.89250722      -0.00000000     0.13D-06     0.41D-06     8     0       0.00      0.03    diag
  10      -38.89250722      -0.00000000     0.25D-07     0.45D-07     0     0       0.00      0.03    diag/orth

 Final occupancy:   3   0   1   0

 !RHF STATE 1.1 Energy                -38.892507218299
  RHF One-electron energy             -63.594366574729
  RHF Two-electron energy              18.656864957630
  RHF Kinetic energy                   38.869163716279
  RHF Nuclear energy                    6.044994398800
  RHF Virial quotient                  -1.000600566099

 !RHF STATE 1.1 Dipole moment           0.00000000     0.00000000     0.75890231
 Dipole moment /Debye                   0.00000000     0.00000000     1.92893727

 Orbital energies:

           1.1          2.1          3.1          4.1          5.1
    -11.289483    -0.891980    -0.394961     0.150127     0.439032

           1.2          2.2
      0.049238     0.497576

           1.3          2.3          3.3
     -0.563895     0.217685     0.372892

           1.4          2.4
      0.747808     1.219508


 HOMO      3.1    -0.394961 =     -10.7474eV
 LUMO      1.2     0.049238 =       1.3398eV
 LUMO-HOMO         0.444199 =      12.0873eV

 Orbitals saved in record  2100.2


 **********************************************************************************************************************************
 DATASETS  * FILE   NREC   LENGTH (MB)   RECORD NAMES
              1      19       32.34       500      610      700      900      950      970     1000      129      960     1100   
                                          VAR    BASINP    GEOM    SYMINP    ZMAT    AOBASIS   BASIS     P2S    ABASIS      S 
                                         1400     1410     1200     1210     1080     1600     1650     1300     1700   
                                           T        V       H0       H01     AOSYM     SMH    MOLCAS    ERIS     OPER   

              2       4        0.42       700     1000      520     2100   
                                         GEOM     BASIS   MCVARS     RHF  

 PROGRAMS   *        TOTAL    HF-SCF       INT
 CPU TIMES  *         0.71      0.03      0.56
 REAL TIME  *         1.37 SEC
 DISK USED  *        46.37 MB
 **********************************************************************************************************************************


 PROGRAM * MP4 (Closed-shell)     Authors: C. Hampel, H.-J. Werner, 1991, M. Deegan, P.J. Knowles, 1992


 CORETYPE=SMALL

 Convergence thresholds:  THRVAR = 1.00D-08  THRDEN = 1.00D-06

 MP4(T)     terms to be evaluated (factor= 0.000)


 Number of closed-shell orbitals:   4 (   3   0   1   0 )
 Number of external orbitals:      67 (  26  14  19   8 )

 Molecular orbitals read from record     2100.2  Type=RHF/CANONICAL  

 Number of N-1 electron functions:               4
 Number of N-2 electron functions:              10
 Number of singly external CSFs:                97
 Number of doubly external CSFs:             10255
 Total number of CSFs:                       10353

 Length of J-op  integral file:               0.00 MB
 Length of K-op  integral file:               0.17 MB

 Memory could be reduced to 0.56 Mwords without degradation in triples

 Integral transformation finished. Total CPU:   0.01 sec, npass=  1  Memory used:   0.18 MW

 Reference energy:                    -38.89250722

                        CORR.ENERGY   TOTAL ENERGY   ENERGY CHANGE
 MP2:                   -0.18640746   -39.07891468    -0.18640746

 SCS-MP2 correlation energy:           -0.20263693   (PS=  1.200000  PT=  0.333333)
 SCS-MP2 total energy:                -39.09514415

 MP3(D):                -0.20809376   -39.10060098    -0.02168630
 MP4(DQ):               -0.21061798   -39.10312519    -0.00252421
 MP4(SDQ):              -0.21136119   -39.10386841    -0.00074321

 Norm of t1 vector:      0.02034711      S-energy:    -0.00074321      T1 diagnostic:  0.00508678


 Total CPU time for triples:      0.03 sec


 RESULTS
 =======

  Reference energy                    -38.892507218299

  Correlated core orbitals:             1.1
  Orbital energies:                   -11.2895

  MP4(SDQ) core-core energy            -0.038651220903
  MP4(SDQ) core-valence energy         -0.010384177222
  MP4(SDQ) valence correlation ener    -0.162325792017

  MP4(SDQ) singlet pair energy         -0.173141300192
  MP4(SDQ) triplet pair energy         -0.037476675312
  MP4(SDQ) correlation energy          -0.211361190142

  Triples contribution                 -0.003604735328
  Total correlation energy             -0.214965925470

  MP4(SDQ) total energy               -39.103868408441
 !MP4(SDTQ) total energy              -39.107473143769

 Timing summary (sec):

 STEP                 CPU(USER)    SYS     CPU(TOT)    WALL
 Transformation          0.01      0.01      0.02      0.02
 CCSD iterations         1.07      0.00      1.07      0.01
 Triples                 0.03      0.00      0.03      0.03

 Program statistics:

 Available memory in ccsd:              1073741757
 Min. memory needed in ccsd:                 50247
 Max. memory used in ccsd:                   57172
 Max. memory used in cckext:                 87718 ( 1 integral passes)



 **********************************************************************************************************************************
 DATASETS  * FILE   NREC   LENGTH (MB)   RECORD NAMES
              1      20       33.76       500      610      700      900      950      970     1000      129      960     1100   
                                          VAR    BASINP    GEOM    SYMINP    ZMAT    AOBASIS   BASIS     P2S    ABASIS      S 
                                         1400     1410     1200     1210     1080     1600     1650     1300     1700     1380   
                                           T        V       H0       H01     AOSYM     SMH    MOLCAS    ERIS     OPER     JKOP   

              2       4        0.42       700     1000      520     2100   
                                         GEOM     BASIS   MCVARS     RHF  

 PROGRAMS   *        TOTAL       MP4    HF-SCF       INT
 CPU TIMES  *         0.79      0.06      0.03      0.56
 REAL TIME  *         1.45 SEC
 DISK USED  *        46.37 MB
 **********************************************************************************************************************************

 Dump information in style XML to xml output                                                                      

 Orbitals will not be exported.

 **********************************************************************************************************************************

 MP4/cc-pCVTZ energy=    -39.107473143769

             MP4          HF-SCF
    -39.10747314    -38.89250722
 **********************************************************************************************************************************
 Molpro calculation terminated
