
 Working directory              : /var/folders/2v/xbgp75_9785319ghcgb4zr4r0000gp/T//molpro.Zfm0p9zbdN/
 Global scratch directory       : /var/folders/2v/xbgp75_9785319ghcgb4zr4r0000gp/T//molpro.Zfm0p9zbdN/
 Wavefunction directory         : /Users/sacpjk/wfu/
 Main file repository           : /var/folders/2v/xbgp75_9785319ghcgb4zr4r0000gp/T//molpro.Zfm0p9zbdN/

 id        : peterk

 Nodes                        nprocs
 Cardiff-University-G34YLXT77Y    1
 GA implementation: MPI file
 GA implementation (serial work in mppx): MPI file

 Using customized tuning parameters: mindgm=1; mindgv=20; mindgc=4; mindgr=1; noblas=0; minvec=7
 default implementation of scratch files=df  


 Variables initialized (1032), CPU time= 0.00 sec
 
 symmetry,nosym
 
 
 geometry={
           13
     C         -1.29962070     -0.75666794      0.01298435
     C         -1.20594574      0.65400536      0.01972533
     C          0.00000158      1.33155015      0.18644040
     C          1.20594891      0.65400218      0.01971734
     C          1.29962915     -0.75666265      0.01299234
     H          2.16879749     -1.17936414     -0.48255765
     H          1.03204539     -1.30619735      0.90630825
     H          2.03713290      1.23377407     -0.36536500
     H          0.00000258      2.41110349      0.11904438
     H         -2.03712974      1.23377407     -0.36534172
     H         -2.16879433     -1.17935356     -0.48257670
     H         -0.00000942     -1.03375573     -0.48766898
     H         -1.03205810     -1.30620793      0.90629767
 }
 basis=cc-pVDZ
 
 
 
 hf; hf; papt; mp3
 
 
 
 {put,xml;noorbitals,nobasis}
 Commands initialized (841), CPU time= 0.00 sec, 704 directives.
 Default parameters read. Elapsed time= 0.08 sec

 Checking input...
 Passed
1


                                         ***  PROGRAM SYSTEM MOLPRO  ***
                                       Copyright, TTI GmbH Stuttgart, 2015
                                    Version 2023.1 linked Tue Jun  6 09:54:11 2023


 **********************************************************************************************************************************
 LABEL *                                                                                                                                                                 
  64 bit serial version                                                                  DATE: 09-Jun-23          TIME: 16:41:05  
 **********************************************************************************************************************************

 SHA1:             8ebb0dd001088a5c915591db1a321413035db0b1
 **********************************************************************************************************************************

 Memory per process:       805 MW
 Total memory per node:   1074 MW
 Total GA space:           268 MW

 GA preallocation disabled
 GA check enabled

 Variable memory set to 805.3 MW

 ZSYMEL=NOSYM


 Geometry recognized as XYZ

 SETTING BASIS          =    CC-PVDZ


 Recomputing integrals since basis changed


 Using spherical harmonics

 Library entry C      S cc-pVDZ              selected for orbital group  1
 Library entry C      P cc-pVDZ              selected for orbital group  1
 Library entry C      D cc-pVDZ              selected for orbital group  1
 Library entry H      S cc-pVDZ              selected for orbital group  2
 Library entry H      P cc-pVDZ              selected for orbital group  2


 PROGRAM * SEWARD (Integral evaluation for generally contracted gaussian basis sets)     Author: Roland Lindh, 1990

 Geometry written to block  1 of record 700


 Point group  C1  



 ATOMIC COORDINATES

 NR  ATOM    CHARGE       X              Y              Z

   1  C       6.00   -2.455927189   -1.429895174    0.024536865
   2  C       6.00   -2.278907170    1.235891014    0.037275471
   3  C       6.00    0.000002986    2.516265105    0.352321295
   4  C       6.00    2.278913160    1.235885005    0.037260373
   5  C       6.00    2.455943157   -1.429885177    0.024551964
   6  H       1.00    4.098433276   -2.228675226   -0.911901798
   7  H       1.00    1.950283135   -2.468355256    1.712674377
   8  H       1.00    3.849623260    2.331495092   -0.690439786
   9  H       1.00    0.000004875    4.556325254    0.224961275
  10  H       1.00   -3.849617289    2.331495092   -0.690395793
  11  H       1.00   -4.098427304   -2.228655233   -0.911937797
  12  H       1.00   -0.000017801   -1.953515209   -0.921560812
  13  H       1.00   -1.950307154   -2.468375250    1.712654384

 Bond lengths in Bohr (Angstrom)

  1- 2  2.671687549   1-11  2.052512863   1-12  2.683424990   1-13  2.045442065   2- 3  2.632877357
       ( 1.413796166)       ( 1.086143032)       ( 1.420007352)       ( 1.082401327)       ( 1.393258697)

  2-10  2.048654203   3- 4  2.632882103   3- 9  2.044031797   4- 5  2.671672096   4- 8  2.048667665
       ( 1.084101117)       ( 1.393261208)       ( 1.081655045)       ( 1.413787988)       ( 1.084108241)

  5- 6  2.052506999   5- 7  2.045450914   5-12  2.683479462
       ( 1.086139929)       ( 1.082406010)       ( 1.420036177)

 Bond angles

  1- 2- 3  122.89823323   1- 2-10  118.75839401   1-12- 5  132.47249780   2- 1-11  116.32740106

  2- 1-12   97.80148335   2- 1-13  119.09567834   2- 3- 4  119.89296999   2- 3- 9  118.54849417

  3- 2-10  116.49106900   3- 4- 5  122.89846759   3- 4- 8  116.49089871   4- 3- 9  118.54845887

  4- 5- 6  116.32826666   4- 5- 7  119.09567108   4- 5-12   97.80101654   5- 4- 8  118.75842205

  6- 5- 7  112.13487529   6- 5-12  119.70854042   7- 5-12   88.03195583  11- 1-12  119.70860643

 11- 1-13  112.13480985  12- 1-13   88.03294460

 NUCLEAR CHARGE:                   38
 NUMBER OF PRIMITIVE AOS:         191
 NUMBER OF SYMMETRY AOS:          186
 NUMBER OF CONTRACTIONS:          110   (  110A   )
 NUMBER OF INNER CORE ORBITALS:     0   (    0A   )
 NUMBER OF OUTER CORE ORBITALS:     5   (    5A   )
 NUMBER OF VALENCE ORBITALS:       28   (   28A   )


 NUCLEAR REPULSION ENERGY  164.93661840


 Eigenvalues of metric

         1 0.148E-02 0.265E-02 0.302E-02 0.446E-02 0.121E-01 0.128E-01 0.143E-01 0.168E-01


 Contracted 2-electron integrals neglected if value below      1.0D-11
 AO integral compression algorithm  1   Integral accuracy      1.0D-11

     83.362 MB (compressed) written to integral file ( 51.6%)


 NUMBER OF SORTED TWO-ELECTRON INTEGRALS:   18638565.     BUFFER LENGTH:  32768
 NUMBER OF SEGMENTS:   2  SEGMENT LENGTH:   15997996      RECORD LENGTH: 524288

 Memory used in sort:      16.56 MW

 SORT1 READ    20258867. AND WROTE    18165224. INTEGRALS IN     53 RECORDS. CPU TIME:     0.14 SEC, REAL TIME:     0.19 SEC
 SORT2 READ    18165224. AND WROTE    18638565. INTEGRALS IN    318 RECORDS. CPU TIME:     0.16 SEC, REAL TIME:     0.20 SEC

 FILE SIZES:   FILE 1:   114.0 MBYTE,  FILE 4:   222.4 MBYTE,   TOTAL:    336.4 MBYTE

 OPERATOR DM      FOR CENTER  0  COORDINATES:    0.000000    0.000000    0.000000


 **********************************************************************************************************************************
 DATASETS  * FILE   NREC   LENGTH (MB)   RECORD NAMES
              1      19      100.95       500      610      700      900      950      970     1000      129      960     1100   
                                          VAR    BASINP    GEOM    SYMINP    ZMAT    AOBASIS   BASIS     P2S    ABASIS      S 
                                         1400     1410     1200     1210     1080     1600     1650     1300     1700   
                                           T        V       H0       H01     AOSYM     SMH    MOLCAS    ERIS     OPER   

 PROGRAMS   *        TOTAL       INT
 CPU TIMES  *         1.24      1.15
 REAL TIME  *         2.15 SEC
 DISK USED  *       321.34 MB
 **********************************************************************************************************************************


 Program * Restricted Hartree-Fock

 Orbital guess generated from atomic densities. Full valence occupancy:   33

 Initial occupancy:  19

 NELEC=   38   SYM=1   MS2= 0   THRE=1.0D-08   THRD=3.2D-06   THRG=3.2D-06  HFMA2=F  DIIS_START=2   DIIS_MAX=10   DIIS_INCORE=F

 Level shifts:    0.00 (CLOSED)    0.00 (OPEN)    0.30 (GAP_MIN)

 ITER           ETOT              DE          GRAD        DDIFF     DIIS  NEXP   TIME(IT)  TIME(TOT)  DIAG
   1     -193.82442043    -193.82442043     0.00D+00     0.10D+00     0     0       0.08      0.15    start
   2     -193.87524940      -0.05082897     0.43D-02     0.98D-02     1     0       0.08      0.23    diag
   3     -193.88101519      -0.00576580     0.16D-02     0.34D-02     2     0       0.08      0.31    diag
   4     -193.88201955      -0.00100435     0.59D-03     0.14D-02     3     0       0.08      0.39    diag
   5     -193.88207109      -0.00005154     0.15D-03     0.29D-03     4     0       0.07      0.46    diag
   6     -193.88207936      -0.00000827     0.43D-04     0.12D-03     5     0       0.08      0.54    diag
   7     -193.88208077      -0.00000141     0.16D-04     0.41D-04     6     0       0.08      0.62    diag
   8     -193.88208115      -0.00000038     0.66D-05     0.26D-04     7     0       0.08      0.70    fixocc
   9     -193.88208121      -0.00000006     0.24D-05     0.10D-04     8     0       0.07      0.77    diag
  10     -193.88208122      -0.00000001     0.12D-05     0.52D-05     9     0       0.08      0.85    diag/orth
  11     -193.88208122      -0.00000000     0.37D-06     0.15D-05     9     0       0.08      0.93    diag
  12     -193.88208122      -0.00000000     0.12D-06     0.25D-06     0     0       0.07      1.00    diag

 Final occupancy:  19

 !RHF STATE 1.1 Energy               -193.882081219666
  RHF One-electron energy            -586.866821979880
  RHF Two-electron energy             228.048122363010
  RHF Kinetic energy                  193.708559558696
  RHF Nuclear energy                  164.936618397205
  RHF Virial quotient                  -1.000895787266

 !RHF STATE 1.1 Dipole moment           0.00000003     0.01278986    -0.08091968
 Dipole moment /Debye                   0.00000008     0.03250859    -0.20567731

 Orbital energies:

           1.1          2.1          3.1          4.1          5.1          6.1          7.1          8.1          9.1         10.1
    -11.244599   -11.244561   -11.230612   -11.230612   -11.229814    -1.116242    -1.006727    -0.941964    -0.806816    -0.725833

          11.1         12.1         13.1         14.1         15.1         16.1         17.1         18.1         19.1         20.1
     -0.675190    -0.589468    -0.576403    -0.568335    -0.533138    -0.515424    -0.495829    -0.351158    -0.302566     0.112113

          21.1
      0.167261


 HOMO     19.1    -0.302566 =      -8.2333eV
 LUMO     20.1     0.112113 =       3.0508eV
 LUMO-HOMO         0.414680 =      11.2840eV

 Orbitals saved in record  2100.2


 **********************************************************************************************************************************
 DATASETS  * FILE   NREC   LENGTH (MB)   RECORD NAMES
              1      19      100.95       500      610      700      900      950      970     1000      129      960     1100   
                                          VAR    BASINP    GEOM    SYMINP    ZMAT    AOBASIS   BASIS     P2S    ABASIS      S 
                                         1400     1410     1200     1210     1080     1600     1650     1300     1700   
                                           T        V       H0       H01     AOSYM     SMH    MOLCAS    ERIS     OPER   

              2       4        0.77       700     1000      520     2100   
                                         GEOM     BASIS   MCVARS     RHF  

 PROGRAMS   *        TOTAL    HF-SCF       INT
 CPU TIMES  *         2.24      1.00      1.15
 REAL TIME  *         3.64 SEC
 DISK USED  *       321.34 MB
 **********************************************************************************************************************************


 Program * Restricted Hartree-Fock

 Molecular orbitals read from record     2100.2  Type=RHF/CANONICAL  

 Initial occupancy:  19

 NELEC=   38   SYM=1   MS2= 0   THRE=1.0D-08   THRD=3.2D-06   THRG=3.2D-06  HFMA2=F  DIIS_START=2   DIIS_MAX=10   DIIS_INCORE=F

 Level shifts:    0.00 (CLOSED)    0.00 (OPEN)    0.30 (GAP_MIN)

 ITER           ETOT              DE          GRAD        DDIFF     DIIS  NEXP   TIME(IT)  TIME(TOT)  DIAG
   1     -193.88208122    -193.88208122     0.00D+00     0.10D+00     0     0       0.07      0.07    start
   2     -193.88208122      -0.00000000     0.53D-07     0.12D-06     1     0       0.08      0.15    diag

 Final occupancy:  19

 !RHF STATE 1.1 Energy               -193.882081219686
  RHF One-electron energy            -586.866818538315
  RHF Two-electron energy             228.048118921425
  RHF Kinetic energy                  193.708558942962
  RHF Nuclear energy                  164.936618397205
  RHF Virial quotient                  -1.000895790448

 !RHF STATE 1.1 Dipole moment          -0.00000000     0.01279922    -0.08091804
 Dipole moment /Debye                  -0.00000001     0.03253238    -0.20567315

 Orbital energies:

           1.1          2.1          3.1          4.1          5.1          6.1          7.1          8.1          9.1         10.1
    -11.244598   -11.244560   -11.230613   -11.230612   -11.229815    -1.116242    -1.006727    -0.941964    -0.806816    -0.725833

          11.1         12.1         13.1         14.1         15.1         16.1         17.1         18.1         19.1         20.1
     -0.675190    -0.589468    -0.576403    -0.568335    -0.533138    -0.515424    -0.495829    -0.351158    -0.302566     0.112113

          21.1
      0.167262


 HOMO     19.1    -0.302566 =      -8.2333eV
 LUMO     20.1     0.112113 =       3.0508eV
 LUMO-HOMO         0.414680 =      11.2840eV

 Orbitals saved in record  2101.2


 **********************************************************************************************************************************
 DATASETS  * FILE   NREC   LENGTH (MB)   RECORD NAMES
              1      19      100.95       500      610      700      900      950      970     1000      129      960     1100   
                                          VAR    BASINP    GEOM    SYMINP    ZMAT    AOBASIS   BASIS     P2S    ABASIS      S 
                                         1400     1410     1200     1210     1080     1600     1650     1300     1700   
                                           T        V       H0       H01     AOSYM     SMH    MOLCAS    ERIS     OPER   

              2       5        1.20       700     1000      520     2100     2101   
                                         GEOM     BASIS   MCVARS     RHF      RHF  

 PROGRAMS   *        TOTAL    HF-SCF    HF-SCF       INT
 CPU TIMES  *         2.40      0.16      1.00      1.15
 REAL TIME  *         4.04 SEC
 DISK USED  *       321.34 MB
 **********************************************************************************************************************************


 PROGRAM * PAPT (Closed-shell)     Authors: C. Hampel, H.-J. Werner, 1991, P.J. Knowles, 2021


 Convergence thresholds:  THRVAR = 1.00D-08  THRDEN = 1.00D-06

 Number of core orbitals:           5 (   5 )
 Number of closed-shell orbitals:  14 (  14 )
 Number of external orbitals:      91 (  91 )

 Molecular orbitals read from record     2101.2  Type=RHF/CANONICAL  

 Number of N-1 electron functions:              14
 Number of N-2 electron functions:             105
 Number of singly external CSFs:              1274
 Number of doubly external CSFs:            812175
 Total number of CSFs:                      813450

 Length of J-op  integral file:               0.00 MB
 Length of K-op  integral file:               0.89 MB

 Integral transformation finished. Total CPU:   0.20 sec, npass=  1  Memory used:   2.36 MW

 Reference energy:                   -193.88208122

                        CORR.ENERGY   TOTAL ENERGY   ENERGY CHANGE
 MP2:                   -0.71553021  -194.59761143    -0.71553021

 SCS-MP2 correlation energy:           -0.70217621   (PS=  1.200000  PT=  0.333333)
 SCS-MP2 total energy:               -194.58425743
 Iteration:   1     0.2873D+00
 Iteration:   2     0.2981D+01
 Iteration:   3     0.8595D-01
 Iteration:   4     0.1469D+01
 Iteration:   5     0.2394D-01
 Iteration:   6     0.3637D-01
 Iteration:   7     0.1278D-01
 Iteration:   8     0.4835D-02
 Iteration:   9     0.6908D-01
 Iteration:  10     0.1347D-02
 Iteration:  11     0.1528D-02
 Iteration:  12     0.6318D-03
 Iteration:  13     0.3478D-03
 Iteration:  14     0.9515D-03
 Iteration:  15     0.1150D-03
 Iteration:  16     0.2531D-03
 Iteration:  17     0.3884D-04
 PAPT operator written to  7000.1
 PAPT orbitals and eigenvalues written to  7000.2

 MP3(D):                -0.75315231  -194.63523353    -0.03762210



 RESULTS
 =======

  Reference energy                   -193.882081219686
  MP3 singlet pair energy              -0.500028750894
  MP3 triplet pair energy              -0.253123560929
  MP3 correlation energy               -0.753152311823

 !MP3 total energy                   -194.635233531509

 Timing summary (sec):

 STEP                 CPU(USER)    SYS     CPU(TOT)    WALL
 Transformation          0.22      0.03      0.25      0.36
 CCSD iterations         5.29      0.11      5.40      3.47

 Program statistics:

 Available memory in ccsd:               805305565
 Min. memory needed in ccsd:               2197782
 Max. memory used in ccsd:                 2899161
 Max. memory used in cckext:               2693716 ( 1 integral passes)



 **********************************************************************************************************************************
 DATASETS  * FILE   NREC   LENGTH (MB)   RECORD NAMES
              1      21      115.76       500      610      700      900      950      970     1000      129      960     1100   
                                          VAR    BASINP    GEOM    SYMINP    ZMAT    AOBASIS   BASIS     P2S    ABASIS      S 
                                         1400     1410     1200     1210     1080     1600     1650     1300     1700     1380   
                                           T        V       H0       H01     AOSYM     SMH    MOLCAS    ERIS     OPER     JKOP   
                                         7000   
                                        PAPT AO    

              2       6        1.57       700     1000      520     2100     2101     7000   
                                         GEOM     BASIS   MCVARS     RHF      RHF     PAPT   

 PROGRAMS   *        TOTAL      PAPT    HF-SCF    HF-SCF       INT
 CPU TIMES  *         5.43      3.03      0.16      1.00      1.15
 REAL TIME  *         8.04 SEC
 DISK USED  *       321.34 MB
 **********************************************************************************************************************************


 PROGRAM * MP3 (Closed-shell)     Authors: C. Hampel, H.-J. Werner, 1991, M. Deegan, P.J. Knowles, 1992


 Convergence thresholds:  THRVAR = 1.00D-08  THRDEN = 1.00D-06

 Number of core orbitals:           5 (   5 )
 Number of closed-shell orbitals:  14 (  14 )
 Number of external orbitals:      91 (  91 )

 Molecular orbitals read from record     7000.2  Type=PAPT/CANONICAL (state 1.1)

 Number of N-1 electron functions:              14
 Number of N-2 electron functions:             105
 Number of singly external CSFs:              1274
 Number of doubly external CSFs:            812175
 Total number of CSFs:                      813450

 Length of J-op  integral file:               0.00 MB
 Length of K-op  integral file:               0.89 MB

 Integral transformation finished. Total CPU:   0.19 sec, npass=  1  Memory used:   2.36 MW
 Orbital energies read from record       7000.2  Type=PAPT/CANONICAL (state 1.1)

 Reference energy:                   -193.88208122

                        CORR.ENERGY   TOTAL ENERGY   ENERGY CHANGE
 MP2:                   -0.76167303  -194.64375425    -0.76167303

 SCS-MP2 correlation energy:           -0.75282303   (PS=  1.200000  PT=  0.333333)
 SCS-MP2 total energy:               -194.63490425

 MP3(D):                -0.76189461  -194.64397583    -0.00022158



 RESULTS
 =======

  Reference energy                   -193.882081219686
  MP3 singlet pair energy              -0.509702459804
  MP3 triplet pair energy              -0.252192148768
  MP3 correlation energy               -0.761894608572

 !MP3 total energy                   -194.643975828257

 Timing summary (sec):

 STEP                 CPU(USER)    SYS     CPU(TOT)    WALL
 Transformation          0.29      0.04      0.33      0.45
 CCSD iterations         6.31      0.03      6.34      1.03

 Program statistics:

 Available memory in ccsd:               805305565
 Min. memory needed in ccsd:               2197782
 Max. memory used in ccsd:                 2899161
 Max. memory used in cckext:               2693716 ( 1 integral passes)



 **********************************************************************************************************************************
 DATASETS  * FILE   NREC   LENGTH (MB)   RECORD NAMES
              1      21      115.76       500      610      700      900      950      970     1000      129      960     1100   
                                          VAR    BASINP    GEOM    SYMINP    ZMAT    AOBASIS   BASIS     P2S    ABASIS      S 
                                         1400     1410     1200     1210     1080     1600     1650     1300     1700     1380   
                                           T        V       H0       H01     AOSYM     SMH    MOLCAS    ERIS     OPER     JKOP   
                                         7000   
                                        PAPT AO    

              2       6        1.57       700     1000      520     2100     2101     7000   
                                         GEOM     BASIS   MCVARS     RHF      RHF     PAPT   

 PROGRAMS   *        TOTAL       MP3      PAPT    HF-SCF    HF-SCF       INT
 CPU TIMES  *         6.52      1.09      3.03      0.16      1.00      1.15
 REAL TIME  *         9.65 SEC
 DISK USED  *       321.34 MB
 **********************************************************************************************************************************

 Dump information in style XML to xml output                                                                      

 Orbitals will not be exported.

 **********************************************************************************************************************************

 MP3/cc-pVDZ energy=   -194.643975828257

             MP3            PAPT          HF-SCF          HF-SCF
   -194.64397583   -194.63523353   -193.88208122   -193.88208122
 **********************************************************************************************************************************
 Molpro calculation terminated
