
 Working directory              : /tmp/peterk/molpro.KIwTglM7su/
 Global scratch directory       : /tmp/peterk/molpro.KIwTglM7su/
 Wavefunction directory         : /home/peterk/wfu/
 Main file repository           : /tmp/peterk/molpro.KIwTglM7su/

 id        : peterk

 Nodes     nprocs
 marat        1
 GA implementation: MPI file
 GA implementation (serial work in mppx): MPI file

 Using customized tuning parameters: mindgm=1; mindgv=20; mindgc=4; mindgr=1; noblas=0; minvec=7
 default implementation of scratch files=df  


 Variables initialized (1032), CPU time= 0.00 sec
 
 symmetry,nosym
 
 
 geometry={
           10
     N          0.26705172      0.69636738     -0.56173710
     N          1.35510702      0.81253986      0.35870941
     H          1.84787308     -0.08681106      0.41533588
     H          0.95114425      1.00024418      1.27451809
     H          0.69417443      0.79066305     -1.48682628
     N         -0.26705172     -0.69636738     -0.56173710
     N         -1.35510702     -0.81253986      0.35870941
     H         -0.69417443     -0.79066305     -1.48682628
     H         -0.95114425     -1.00024418      1.27451809
     H         -1.84787308      0.08681106      0.41533588
 }
 basis=cc-pVTZ
 
 
 
 hf; ccsd(t)
 
 
 
 {put,xml;noorbitals,nobasis}
 Commands initialized (841), CPU time= 0.01 sec, 708 directives.
 Default parameters read. Elapsed time= 0.06 sec

 Checking input...
 Passed
1


                                         ***  PROGRAM SYSTEM MOLPRO  ***
                                       Copyright, TTI GmbH Stuttgart, 2015
                                    Version 2023.1 linked Sat Jun 10 08:01:27 2023


 **********************************************************************************************************************************
 LABEL *                                                                                                                                                                 
  (16 PROC) 64 bit serial version                                                        DATE: 13-Jun-23          TIME: 16:22:01  
 **********************************************************************************************************************************

 SHA1:             8376d659ba1296ca7ee514c57770fe2c96af278c
 **********************************************************************************************************************************

 Memory per process:      1074 MW
 Total memory per node:   1074 MW

 GA preallocation disabled
 GA check disabled

 Variable memory set to 1073.7 MW

 ZSYMEL=NOSYM


 Geometry recognized as XYZ

 SETTING BASIS          =    CC-PVTZ


 Recomputing integrals since basis changed


 Using spherical harmonics

 Library entry N      S cc-pVTZ              selected for orbital group  1
 Library entry N      P cc-pVTZ              selected for orbital group  1
 Library entry N      D cc-pVTZ              selected for orbital group  1
 Library entry N      F cc-pVTZ              selected for orbital group  1
 Library entry H      S cc-pVTZ              selected for orbital group  2
 Library entry H      P cc-pVTZ              selected for orbital group  2
 Library entry H      D cc-pVTZ              selected for orbital group  2


 PROGRAM * SEWARD (Integral evaluation for generally contracted gaussian basis sets)     Author: Roland Lindh, 1990

 Geometry written to block  1 of record 700


 Point group  C1  



 ATOMIC COORDINATES

 NR  ATOM    CHARGE       X              Y              Z

   1  N       7.00    0.504654612    1.315943630   -1.061529273
   2  N       7.00    2.560781137    1.535477801    0.677862543
   3  H       1.00    3.491974034   -0.164049128    0.784871063
   4  H       1.00    1.797402138    1.890187558    2.408490131
   5  H       1.00    1.311799555    1.494136621   -2.809694464
   6  N       7.00   -0.504654612   -1.315943630   -1.061529273
   7  N       7.00   -2.560781137   -1.535477801    0.677862543
   8  H       1.00   -1.311799555   -1.494136621   -2.809694464
   9  H       1.00   -1.797402138   -1.890187558    2.408490131
  10  H       1.00   -3.491974034    0.164049128    0.784871063

 Bond lengths in Bohr (Angstrom)

 1-2  2.702098339  1-5  1.933731428  1-6  2.818782656  2-3  1.940866512  2-4  1.924483920
     ( 1.429888862)     ( 1.023286604)     ( 1.491635544)     ( 1.027062327)     ( 1.018393033)

  6- 7  2.702098339   6- 8  1.933731428   7- 9  1.924483920   7-10  1.940866512
       ( 1.429888862)       ( 1.023286604)       ( 1.018393033)       ( 1.027062327)

 Bond angles

  1-2-3  109.23428917   1-2-4  106.97847166   1-6-7  110.38485651   1-6-8  103.62095394

  2-1-5  104.88275036   2-1-6  110.38485651   3-2-4  107.58548703   5-1-6  103.62095394

  6- 7- 9  106.97847166   6- 7-10  109.23428917   7- 6- 8  104.88275036   9- 7-10  107.58548703

 NUCLEAR CHARGE:                   34
 NUMBER OF PRIMITIVE AOS:         290
 NUMBER OF SYMMETRY AOS:          264
 NUMBER OF CONTRACTIONS:          204   (  204A   )
 NUMBER OF INNER CORE ORBITALS:     0   (    0A   )
 NUMBER OF OUTER CORE ORBITALS:     4   (    4A   )
 NUMBER OF VALENCE ORBITALS:       22   (   22A   )


 NUCLEAR REPULSION ENERGY  135.83614119


 Eigenvalues of metric

         1 0.760E-03 0.101E-02 0.138E-02 0.195E-02 0.240E-02 0.265E-02 0.326E-02 0.338E-02


 Contracted 2-electron integrals neglected if value below      1.0D-11
 AO integral compression algorithm  1   Integral accuracy      1.0D-11

     846.725 MB (compressed) written to integral file ( 44.1%)


 NUMBER OF SORTED TWO-ELECTRON INTEGRALS:  218624505.     BUFFER LENGTH:  32768
 NUMBER OF SEGMENTS:  14  SEGMENT LENGTH:   15999503      RECORD LENGTH: 524288

 Memory used in sort:      16.56 MW

 SORT1 READ   240011254. AND WROTE   202344567. INTEGRALS IN    586 RECORDS. CPU TIME:     2.14 SEC, REAL TIME:     3.78 SEC
 SORT2 READ   202344567. AND WROTE   218624505. INTEGRALS IN   3230 RECORDS. CPU TIME:     1.89 SEC, REAL TIME:     2.73 SEC

 FILE SIZES:   FILE 1:   878.4 MBYTE,  FILE 4:  2457.9 MBYTE,   TOTAL:   3336.4 MBYTE

 OPERATOR DM      FOR CENTER  0  COORDINATES:    0.000000    0.000000    0.000000


 **********************************************************************************************************************************
 DATASETS  * FILE   NREC   LENGTH (MB)   RECORD NAMES
              1      19      767.08       500      610      700      900      950      970     1000      129      960     1100   
                                          VAR    BASINP    GEOM    SYMINP    ZMAT    AOBASIS   BASIS     P2S    ABASIS      S 
                                         1400     1410     1200     1210     1080     1600     1650     1300     1700   
                                           T        V       H0       H01     AOSYM     SMH    MOLCAS    ERIS     OPER   

 PROGRAMS   *        TOTAL       INT
 CPU TIMES  *        11.85     11.75
 REAL TIME  *        17.54 SEC
 DISK USED  *         3.11 GB
 **********************************************************************************************************************************


 Program * Restricted Hartree-Fock

 Orbital guess generated from atomic densities. Full valence occupancy:   26

 Initial occupancy:  17

 NELEC=   34   SYM=1   MS2= 0   THRE=1.0D-08   THRD=3.2D-06   THRG=3.2D-06  HFMA2=F  DIIS_START=2   DIIS_MAX=10   DIIS_INCORE=F

 Level shifts:    0.00 (CLOSED)    0.00 (OPEN)    0.30 (GAP_MIN)

 ITER           ETOT              DE          GRAD        DDIFF     DIIS  NEXP   TIME(IT)  TIME(TOT)  DIAG
   1     -221.20254521    -221.20254521     0.00D+00     0.53D-01     0     0       1.19      2.33    start
   2     -221.24861465      -0.04606944     0.40D-02     0.49D-02     1     0       1.21      3.54    diag
   3     -221.25373939      -0.00512474     0.14D-02     0.15D-02     2     0       1.18      4.72    diag
   4     -221.25477843      -0.00103904     0.56D-03     0.57D-03     3     0       1.21      5.93    diag
   5     -221.25485423      -0.00007580     0.11D-03     0.16D-03     4     0       1.18      7.11    diag
   6     -221.25486070      -0.00000647     0.26D-04     0.52D-04     5     0       1.22      8.33    diag
   7     -221.25486137      -0.00000067     0.83D-05     0.18D-04     6     0       1.18      9.51    diag
   8     -221.25486142      -0.00000005     0.24D-05     0.51D-05     7     0       1.23     10.74    fixocc
   9     -221.25486142      -0.00000000     0.80D-06     0.12D-05     8     0       1.18     11.92    diag
  10     -221.25486142      -0.00000000     0.16D-06     0.28D-06     0     0       1.21     13.13    diag/orth

 Final occupancy:  17

 !RHF STATE 1.1 Energy               -221.254861423937
  RHF One-electron energy            -570.440955972612
  RHF Two-electron energy             213.349953354613
  RHF Kinetic energy                  220.745900718068
  RHF Nuclear energy                  135.836141194062
  RHF Virial quotient                  -1.002305640577

 !RHF STATE 1.1 Dipole moment           0.00000000     0.00000000     0.08630121
 Dipole moment /Debye                   0.00000000     0.00000000     0.21935580

 Orbital energies:

           1.1          2.1          3.1          4.1          5.1          6.1          7.1          8.1          9.1         10.1
    -15.610343   -15.609942   -15.573003   -15.573003    -1.328393    -1.217683    -1.055816    -0.925911    -0.698244    -0.688227

          11.1         12.1         13.1         14.1         15.1         16.1         17.1         18.1         19.1
     -0.665470    -0.629523    -0.582898    -0.484947    -0.450667    -0.400291    -0.376179     0.139488     0.150526


 HOMO     17.1    -0.376179 =     -10.2364eV
 LUMO     18.1     0.139488 =       3.7957eV
 LUMO-HOMO         0.515667 =      14.0320eV

 Orbitals saved in record  2100.2


 **********************************************************************************************************************************
 DATASETS  * FILE   NREC   LENGTH (MB)   RECORD NAMES
              1      19      767.08       500      610      700      900      950      970     1000      129      960     1100   
                                          VAR    BASINP    GEOM    SYMINP    ZMAT    AOBASIS   BASIS     P2S    ABASIS      S 
                                         1400     1410     1200     1210     1080     1600     1650     1300     1700   
                                           T        V       H0       H01     AOSYM     SMH    MOLCAS    ERIS     OPER   

              2       4        1.19       700     1000      520     2100   
                                         GEOM     BASIS   MCVARS     RHF  

 PROGRAMS   *        TOTAL    HF-SCF       INT
 CPU TIMES  *        24.99     13.14     11.75
 REAL TIME  *        32.50 SEC
 DISK USED  *         3.11 GB
 **********************************************************************************************************************************


 PROGRAM * CCSD (Closed-shell coupled cluster)     Authors: C. Hampel, H.-J. Werner, 1991, M. Deegan, P.J. Knowles, 1992


 Convergence thresholds:  THRVAR = 1.00D-08  THRDEN = 1.00D-06

 CCSD(T)     terms to be evaluated (factor= 1.000)


 Number of core orbitals:           4 (   4 )
 Number of closed-shell orbitals:  13 (  13 )
 Number of external orbitals:     187 ( 187 )

 Molecular orbitals read from record     2100.2  Type=RHF/CANONICAL  

 Number of N-1 electron functions:              13
 Number of N-2 electron functions:              91
 Number of singly external CSFs:              2431
 Number of doubly external CSFs:           2956096
 Total number of CSFs:                     2958528

 Length of J-op  integral file:               0.00 MB
 Length of K-op  integral file:               2.92 MB
 Length of 3-ext integral record:             0.00 MB

 Memory could be reduced to 109.03 Mwords without degradation in triples

 Integral transformation finished. Total CPU:   8.36 sec, npass=  1  Memory used:  66.89 MW

 Reference energy:                   -221.25486142

 MP2 singlet pair energy:              -0.54864023
 MP2 triplet pair energy:              -0.31433971
 MP2 correlation energy:               -0.86297994
 MP2 total energy:                   -222.11784137

 SCS-MP2 correlation energy:           -0.85395743   (PS=  1.200000  PT=  0.333333)
 SCS-MP2 total energy:               -222.10881885

 ITER.      SQ.NORM     CORR.ENERGY   TOTAL ENERGY   ENERGY CHANGE        DEN1      VAR(S)    VAR(P)  DIIS     TIME  TIME/IT
   1      1.24612342    -0.88618227  -222.14104369    -0.02320233    -0.00164477  0.30D-02  0.41D-02  1  1    49.51    15.90
   2      1.26230485    -0.88844164  -222.14330307    -0.00225937    -0.01913846  0.64D-04  0.52D-03  2  2    65.37    16.06
   3      1.26851831    -0.88862267  -222.14348409    -0.00018102    -0.00381505  0.50D-04  0.29D-04  3  3    80.67    15.94
   4      1.27050744    -0.88867483  -222.14353625    -0.00005216    -0.00087350  0.56D-05  0.45D-05  4  4    96.05    15.90
   5      1.27117997    -0.88869099  -222.14355242    -0.00001617    -0.00018003  0.21D-05  0.43D-06  5  5   111.51    15.89
   6      1.27144349    -0.88868062  -222.14354204     0.00001037    -0.00004106  0.28D-06  0.70D-07  6  6   127.51    15.97
   7      1.27151835    -0.88867872  -222.14354014     0.00000190    -0.00000437  0.29D-07  0.15D-07  6  2   143.52    16.03
   8      1.27154082    -0.88867772  -222.14353914     0.00000100    -0.00000131  0.47D-08  0.18D-08  6  1   159.68    16.09
   9      1.27154830    -0.88867756  -222.14353899     0.00000015     0.00000012  0.67D-09  0.22D-09  6  3   175.78    16.17
  10      1.27154916    -0.88867762  -222.14353905    -0.00000006     0.00000008  0.14D-09  0.41D-10  6  4   191.42    16.15

 Norm of t1 vector:      0.07714348      S-energy:     0.00000026      T1 diagnostic:  0.01069788
                                                                       D1 diagnostic:  0.02807257
                                                                       D2 diagnostic:  0.15635780 (internal)


 Total CPU time for triples:    259.59 sec


 RESULTS
 =======

  Reference energy                   -221.254861423937
  CCSD singlet pair energy             -0.607915011356
  CCSD triplet pair energy             -0.280762873998
  CCSD correlation energy              -0.888677623862

  Triples (T) contribution             -0.036725132716
  Total correlation energy             -0.925402756577

  CCSD total energy                  -222.143539047799
  CCSD[T] energy                     -222.181232512363
  CCSD-T energy                      -222.179748072717
 !CCSD(T) total energy               -222.180264180515

 Timing summary (sec):

 STEP                 CPU(USER)    SYS     CPU(TOT)    WALL
 Transformation          8.51      0.88      9.39      9.39
 CCSD iterations       183.14      3.70    186.84    161.72
 Triples               259.59      5.00    264.59    264.61

 Program statistics:

 Available memory in ccsd:              1073741131
 Min. memory needed in ccsd:               7623489
 Max. memory used in ccsd:                10267091
 Max. memory used in cckext:               7977282 (10 integral passes)



 **********************************************************************************************************************************
 DATASETS  * FILE   NREC   LENGTH (MB)   RECORD NAMES
              1      20     1137.15       500      610      700      900      950      970     1000      129      960     1100   
                                          VAR    BASINP    GEOM    SYMINP    ZMAT    AOBASIS   BASIS     P2S    ABASIS      S 
                                         1400     1410     1200     1210     1080     1600     1650     1300     1700     1380   
                                           T        V       H0       H01     AOSYM     SMH    MOLCAS    ERIS     OPER     JKOP   

              2       4        1.19       700     1000      520     2100   
                                         GEOM     BASIS   MCVARS     RHF  

 PROGRAMS   *        TOTAL   CCSD(T)    HF-SCF       INT
 CPU TIMES  *       450.88    425.89     13.14     11.75
 REAL TIME  *       468.32 SEC
 DISK USED  *         3.11 GB
 **********************************************************************************************************************************

 Dump information in style XML to xml output                                                                      

 Orbitals will not be exported.

 **********************************************************************************************************************************

 CCSD(T)/cc-pVTZ energy=   -222.180264180515

         CCSD(T)          HF-SCF
   -222.18026418   -221.25486142
 **********************************************************************************************************************************
 Molpro calculation terminated
