
 Working directory              : /var/folders/2v/xbgp75_9785319ghcgb4zr4r0000gp/T//molpro.q8zXPi7zox/
 Global scratch directory       : /var/folders/2v/xbgp75_9785319ghcgb4zr4r0000gp/T//molpro.q8zXPi7zox/
 Wavefunction directory         : /Users/sacpjk/wfu/
 Main file repository           : /var/folders/2v/xbgp75_9785319ghcgb4zr4r0000gp/T//molpro.q8zXPi7zox/

 id        : peterk

 Nodes                        nprocs
 Cardiff-University-G34YLXT77Y    1
 GA implementation: MPI file
 GA implementation (serial work in mppx): MPI file

 Using customized tuning parameters: mindgm=1; mindgv=20; mindgc=4; mindgr=1; noblas=0; minvec=7
 default implementation of scratch files=df  


 Variables initialized (1032), CPU time= 0.00 sec
 
 core,small
 angstrom
 
 geometry={
 H1;C1,H1,1.06209557;C2,C1,1.20366063,H1,180;H2,C2,1.06209557,C1,180,H1,0
 }
 basis=cc-pCVQZ
 
 
 
 hf; hf; papt; mp2
 
 
 
 {put,xml;noorbitals,nobasis}
 Commands initialized (841), CPU time= 0.01 sec, 704 directives.
 Default parameters read. Elapsed time= 2.04 sec

 Checking input...
 Passed
1


                                         ***  PROGRAM SYSTEM MOLPRO  ***
                                       Copyright, TTI GmbH Stuttgart, 2015
                                    Version 2023.1 linked Tue Jun  6 09:54:11 2023


 **********************************************************************************************************************************
 LABEL *                                                                                                                                                                 
  64 bit serial version                                                                  DATE: 12-Jun-23          TIME: 10:48:45  
 **********************************************************************************************************************************

 SHA1:             8ebb0dd001088a5c915591db1a321413035db0b1
 **********************************************************************************************************************************

 Memory per process:       393 MW
 Total memory per node:    524 MW
 Total GA space:           131 MW

 GA preallocation disabled
 GA check enabled

 Variable memory set to 393.2 MW

 ZUNIT=ANG

 SETTING BASIS          =    CC-PCVQZ


 Recomputing integrals since basis changed


 Using spherical harmonics

 Library entry H      S cc-pVQZ              selected for orbital group  1
 Library entry H      P cc-pVQZ              selected for orbital group  1
 Library entry H      D cc-pVQZ              selected for orbital group  1
 Library entry H      F cc-pVQZ              selected for orbital group  1
 Library entry C      S cc-pCVQZ             selected for orbital group  2
 Library entry C      P cc-pCVQZ             selected for orbital group  2
 Library entry C      D cc-pCVQZ             selected for orbital group  2
 Library entry C      F cc-pCVQZ             selected for orbital group  2
 Library entry C      G cc-pCVQZ             selected for orbital group  2


 PROGRAM * SEWARD (Integral evaluation for generally contracted gaussian basis sets)     Author: Roland Lindh, 1990

 Geometry written to block  1 of record 700

 Orientation using atomic masses  
 Molecule type: Linear
 Symmetry elements: X,Y,Z
 Rotational constants:      35.3856639     35.3856639      0.0000000 GHz  (calculated with average atomic masses)

 Point group  D2h 



 ATOMIC COORDINATES

 NR  ATOM    CHARGE       X              Y              Z

   1  H1      1.00    0.000000000    0.000000000   -3.144364214
   2  H2      1.00    0.000000000    0.000000000    3.144364214
   3  C1      6.00    0.000000000    0.000000000   -1.137294469
   4  C2      6.00    0.000000000    0.000000000    1.137294469

 Bond lengths in Bohr (Angstrom)

 1-3  2.007069745  2-4  2.007069745  3-4  2.274588938
     ( 1.062095570)     ( 1.062095570)     ( 1.203660630)

 Bond angles

  1-3-4  179.99999879   2-4-3  179.99999879

 NUCLEAR CHARGE:                   14
 NUMBER OF PRIMITIVE AOS:         308
 NUMBER OF SYMMETRY AOS:          258
 NUMBER OF CONTRACTIONS:          228   (   47Ag  +   27B3u +   27B2u +   13B1g +   47B1u +   27B2g +   27B3g +   13Au  )
 NUMBER OF INNER CORE ORBITALS:     0   (    0Ag  +    0B3u +    0B2u +    0B1g +    0B1u +    0B2g +    0B3g +    0Au  )
 NUMBER OF OUTER CORE ORBITALS:     2   (    1Ag  +    0B3u +    0B2u +    0B1g +    1B1u +    0B2g +    0B3g +    0Au  )
 NUMBER OF VALENCE ORBITALS:       10   (    3Ag  +    1B3u +    1B2u +    0B1g +    3B1u +    1B2g +    1B3g +    0Au  )


 NUCLEAR REPULSION ENERGY   24.76756786

 EXTRA SYMMETRY OF AOS IN SYMMETRY 1:   1 1 1 1 1 1 1 1 2 1   2 1 2 1 1 1 1 1 1 1   1 1 1 1 1 1 1 1 1 2   1 2 1 2 1 2 1 2 1 2
                                        1 2 1 2 1 3 2
 EXTRA SYMMETRY OF AOS IN SYMMETRY 2:   1 1 1 1 1 1 2 1 1 1   1 1 1 1 1 1 1 1 1 1   2 1 2 1 2 1 2
 EXTRA SYMMETRY OF AOS IN SYMMETRY 3:   1 1 1 1 1 1 2 1 1 1   1 1 1 1 1 1 1 1 1 1   2 1 2 1 2 1 2
 EXTRA SYMMETRY OF AOS IN SYMMETRY 4:   1 1 1 1 1 1 1 1 1 1   1 1 2
 EXTRA SYMMETRY OF AOS IN SYMMETRY 5:   1 1 1 1 1 1 1 1 2 1   2 1 2 1 1 1 1 1 1 1   1 1 1 1 1 1 1 1 1 2   1 2 1 2 1 2 1 2 1 2
                                        1 2 1 2 1 3 2
 EXTRA SYMMETRY OF AOS IN SYMMETRY 6:   1 1 1 1 1 1 2 1 1 1   1 1 1 1 1 1 1 1 1 1   2 1 2 1 2 1 2
 EXTRA SYMMETRY OF AOS IN SYMMETRY 7:   1 1 1 1 1 1 2 1 1 1   1 1 1 1 1 1 1 1 1 1   2 1 2 1 2 1 2
 EXTRA SYMMETRY OF AOS IN SYMMETRY 8:   1 1 1 1 1 1 1 1 1 1   1 1 2

 Eigenvalues of metric

         1 0.278E-04 0.167E-03 0.511E-03 0.102E-02 0.179E-02 0.227E-02 0.309E-02 0.672E-02
         2 0.189E-02 0.664E-02 0.279E-01 0.648E-01 0.130E+00 0.140E+00 0.200E+00 0.251E+00
         3 0.189E-02 0.664E-02 0.279E-01 0.648E-01 0.130E+00 0.140E+00 0.200E+00 0.251E+00
         4 0.152E+00 0.224E+00 0.406E+00 0.461E+00 0.572E+00 0.902E+00 0.100E+01 0.107E+01
         5 0.138E-04 0.295E-04 0.119E-03 0.153E-03 0.614E-03 0.997E-03 0.198E-02 0.286E-02
         6 0.766E-03 0.210E-02 0.461E-02 0.157E-01 0.475E-01 0.909E-01 0.136E+00 0.161E+00
         7 0.766E-03 0.210E-02 0.461E-02 0.157E-01 0.475E-01 0.909E-01 0.136E+00 0.161E+00
         8 0.521E-01 0.924E-01 0.157E+00 0.340E+00 0.465E+00 0.615E+00 0.724E+00 0.927E+00


 Contracted 2-electron integrals neglected if value below      1.0D-12
 AO integral compression algorithm  1   Integral accuracy      1.0D-12

     284.688 MB (compressed) written to integral file ( 51.9%)


 NUMBER OF SORTED TWO-ELECTRON INTEGRALS:   44078573.     BUFFER LENGTH:  32768
 NUMBER OF SEGMENTS:   3  SEGMENT LENGTH:   15999926      RECORD LENGTH: 524288

 Memory used in sort:      16.56 MW

 SORT1 READ    68603104. AND WROTE    35311796. INTEGRALS IN    102 RECORDS. CPU TIME:     1.27 SEC, REAL TIME:     1.73 SEC
 SORT2 READ    35311796. AND WROTE    44078573. INTEGRALS IN   1086 RECORDS. CPU TIME:     0.62 SEC, REAL TIME:     0.74 SEC

 FILE SIZES:   FILE 1:   316.0 MBYTE,  FILE 4:   427.9 MBYTE,   TOTAL:    743.8 MBYTE

 OPERATOR DM      FOR CENTER  0  COORDINATES:    0.000000    0.000000    0.000000


 **********************************************************************************************************************************
 DATASETS  * FILE   NREC   LENGTH (MB)   RECORD NAMES
              1      19      210.50       500      610      700      900      950      970     1000      129      960     1100   
                                          VAR    BASINP    GEOM    SYMINP    ZMAT    AOBASIS   BASIS     P2S    ABASIS      S 
                                         1400     1410     1200     1210     1080     1600     1650     1300     1700   
                                           T        V       H0       H01     AOSYM     SMH    MOLCAS    ERIS     OPER   

 PROGRAMS   *        TOTAL       INT
 CPU TIMES  *         6.20      6.10
 REAL TIME  *        11.40 SEC
 DISK USED  *       709.79 MB
 **********************************************************************************************************************************


 Program * Restricted Hartree-Fock

 Orbital guess generated from atomic densities. Full valence occupancy:    4   1   1   0   4   1   1   0


 Initial occupancy:   3   1   1   0   2   0   0   0

 NELEC=   14   SYM=1   MS2= 0   THRE=1.0D-08   THRD=3.2D-06   THRG=3.2D-06  HFMA2=F  DIIS_START=2   DIIS_MAX=10   DIIS_INCORE=F

 Level shifts:    0.00 (CLOSED)    0.00 (OPEN)    0.30 (GAP_MIN)

 ITER           ETOT              DE          GRAD        DDIFF     DIIS  NEXP   TIME(IT)  TIME(TOT)  DIAG
   1      -76.83882204     -76.83882204     0.00D+00     0.86D-01     0     0       0.06      0.11    start
   2      -76.85302889      -0.01420685     0.75D-02     0.69D-02     1     0       0.05      0.16    diag
   3      -76.85438510      -0.00135621     0.23D-02     0.16D-02     2     0       0.05      0.21    diag
   4      -76.85450869      -0.00012359     0.47D-03     0.60D-03     3     0       0.05      0.26    diag
   5      -76.85451393      -0.00000524     0.97D-04     0.12D-03     4     0       0.06      0.32    diag
   6      -76.85451412      -0.00000019     0.17D-04     0.30D-04     5     0       0.05      0.37    diag
   7      -76.85451413      -0.00000000     0.23D-05     0.40D-05     6     0       0.05      0.42    diag
   8      -76.85451413      -0.00000000     0.32D-06     0.54D-06     7     0       0.06      0.48    fixocc
   9      -76.85451413      -0.00000000     0.29D-07     0.60D-07     0     0       0.05      0.53    diag

 Final occupancy:   3   1   1   0   2   0   0   0

 !RHF STATE 1.1 Energy                -76.854514126538
  RHF One-electron energy            -151.684632125385
  RHF Two-electron energy              50.062550139931
  RHF Kinetic energy                   76.703043402729
  RHF Nuclear energy                   24.767567858915
  RHF Virial quotient                  -1.001974768107

 !RHF STATE 1.1 Dipole moment           0.00000000     0.00000000     0.00000000
 Dipole moment /Debye                   0.00000000     0.00000000     0.00000000

 Orbital energies:

           1.1          2.1          3.1          4.1          5.1
    -11.242230    -1.029519    -0.681094     0.137596     0.229859

           1.2          2.2          3.2
     -0.410515     0.324533     0.637120

           1.3          2.3          3.3
     -0.410515     0.324533     0.637120

           1.4          2.4
      0.577212     1.842937

           1.5          2.5          3.5          4.5
    -11.238425    -0.767466     0.129187     0.353937

           1.6          2.6
      0.161113     0.433164

           1.7          2.7
      0.161113     0.433164

           1.8          2.8
      0.817084     2.128191


 HOMO      1.3    -0.410515 =     -11.1707eV
 LUMO      3.5     0.129187 =       3.5154eV
 LUMO-HOMO         0.539702 =      14.6860eV

 Orbitals saved in record  2100.2


 **********************************************************************************************************************************
 DATASETS  * FILE   NREC   LENGTH (MB)   RECORD NAMES
              1      19      210.50       500      610      700      900      950      970     1000      129      960     1100   
                                          VAR    BASINP    GEOM    SYMINP    ZMAT    AOBASIS   BASIS     P2S    ABASIS      S 
                                         1400     1410     1200     1210     1080     1600     1650     1300     1700   
                                           T        V       H0       H01     AOSYM     SMH    MOLCAS    ERIS     OPER   

              2       4        0.55       700     1000      520     2100   
                                         GEOM     BASIS   MCVARS     RHF  

 PROGRAMS   *        TOTAL    HF-SCF       INT
 CPU TIMES  *         6.74      0.54      6.10
 REAL TIME  *        12.62 SEC
 DISK USED  *       709.79 MB
 **********************************************************************************************************************************


 Program * Restricted Hartree-Fock

 Molecular orbitals read from record     2100.2  Type=RHF/CANONICAL  

 Initial occupancy:   3   1   1   0   2   0   0   0

 NELEC=   14   SYM=1   MS2= 0   THRE=1.0D-08   THRD=3.2D-06   THRG=3.2D-06  HFMA2=F  DIIS_START=2   DIIS_MAX=10   DIIS_INCORE=F

 Level shifts:    0.00 (CLOSED)    0.00 (OPEN)    0.30 (GAP_MIN)

 ITER           ETOT              DE          GRAD        DDIFF     DIIS  NEXP   TIME(IT)  TIME(TOT)  DIAG
   1      -76.85451413     -76.85451413     0.00D+00     0.87D-01     0     0       0.06      0.06    start
   2      -76.85451413      -0.00000000     0.89D-08     0.16D-07     1     0       0.05      0.11    diag

 Final occupancy:   3   1   1   0   2   0   0   0

 !RHF STATE 1.1 Energy                -76.854514126538
  RHF One-electron energy            -151.684632342159
  RHF Two-electron energy              50.062550356706
  RHF Kinetic energy                   76.703043641572
  RHF Nuclear energy                   24.767567858915
  RHF Virial quotient                  -1.001974764987

 !RHF STATE 1.1 Dipole moment           0.00000000     0.00000000     0.00000000
 Dipole moment /Debye                   0.00000000     0.00000000     0.00000000

 Orbital energies:

           1.1          2.1          3.1          4.1          5.1
    -11.242230    -1.029520    -0.681094     0.137596     0.229859

           1.2          2.2          3.2
     -0.410515     0.324533     0.637120

           1.3          2.3          3.3
     -0.410515     0.324533     0.637120

           1.4          2.4
      0.577212     1.842937

           1.5          2.5          3.5          4.5
    -11.238425    -0.767466     0.129187     0.353937

           1.6          2.6
      0.161113     0.433164

           1.7          2.7
      0.161113     0.433164

           1.8          2.8
      0.817084     2.128191


 HOMO      1.3    -0.410515 =     -11.1707eV
 LUMO      3.5     0.129187 =       3.5154eV
 LUMO-HOMO         0.539702 =      14.6860eV

 Orbitals saved in record  2101.2


 **********************************************************************************************************************************
 DATASETS  * FILE   NREC   LENGTH (MB)   RECORD NAMES
              1      19      210.50       500      610      700      900      950      970     1000      129      960     1100   
                                          VAR    BASINP    GEOM    SYMINP    ZMAT    AOBASIS   BASIS     P2S    ABASIS      S 
                                         1400     1410     1200     1210     1080     1600     1650     1300     1700   
                                           T        V       H0       H01     AOSYM     SMH    MOLCAS    ERIS     OPER   

              2       5        0.87       700     1000      520     2100     2101   
                                         GEOM     BASIS   MCVARS     RHF      RHF  

 PROGRAMS   *        TOTAL    HF-SCF    HF-SCF       INT
 CPU TIMES  *         6.85      0.11      0.54      6.10
 REAL TIME  *        13.02 SEC
 DISK USED  *       709.79 MB
 **********************************************************************************************************************************


 PROGRAM * PAPT (Closed-shell)     Authors: C. Hampel, H.-J. Werner, 1991, P.J. Knowles, 2021


 CORETYPE=SMALL

 Convergence thresholds:  THRVAR = 1.00D-08  THRDEN = 1.00D-06

 Number of closed-shell orbitals:   7 (   3   1   1   0   2   0   0   0 )
 Number of external orbitals:     221 (  44  26  26  13  45  27  27  13 )

 Molecular orbitals read from record     2101.2  Type=RHF/CANONICAL  

 Number of N-1 electron functions:               7
 Number of N-2 electron functions:              28
 Number of singly external CSFs:               274
 Number of doubly external CSFs:            162803
 Total number of CSFs:                      163078

 Length of J-op  integral file:               0.00 MB
 Length of K-op  integral file:               0.59 MB

 Integral transformation finished. Total CPU:   0.15 sec, npass=  1  Memory used:   0.30 MW

 Reference energy:                    -76.85451413

                        CORR.ENERGY   TOTAL ENERGY   ENERGY CHANGE
 MP2:                   -0.43474199   -77.28925612    -0.43474199

 SCS-MP2 correlation energy:           -0.44881137   (PS=  1.200000  PT=  0.333333)
 SCS-MP2 total energy:                -77.30332550
 Iteration:   1     0.4779D+00
 Iteration:   2     0.6247D+00
 Iteration:   3     0.1908D+00
 Iteration:   4     0.1331D+00
 Iteration:   5     0.7742D+00
 Iteration:   6     0.3493D-01
 Iteration:   7     0.6081D-01
 Iteration:   8     0.1399D-01
 Iteration:   9     0.6528D-02
 Iteration:  10     0.9794D-01
 Iteration:  11     0.2141D-02
 Iteration:  12     0.6872D-03
 Iteration:  13     0.1965D-02
 Iteration:  14     0.1584D-03
 Iteration:  15     0.5646D-04
 PAPT operator written to  7000.1
 PAPT orbitals and eigenvalues written to  7000.2

 MP3(D):                -0.44437276   -77.29888689    -0.00963077



 RESULTS
 =======

  Reference energy                    -76.854514126538

  Correlated core orbitals:             1.1       1.5
  Orbital energies:                   -11.2422  -11.2384

  MP3 core-core energy                 -0.081785984302
  MP3 core-valence energy              -0.026981949285
  MP3 valence correlation energy       -0.335604830237

  MP3 singlet pair energy              -0.327796828580
  MP3 triplet pair energy              -0.116575935244
  MP3 correlation energy               -0.444372763824

 !MP3 total energy                    -77.298886890362

 Timing summary (sec):

 STEP                 CPU(USER)    SYS     CPU(TOT)    WALL
 Transformation          0.15      0.02      0.17      0.38
 CCSD iterations         7.32      0.06      7.38      1.67

 Program statistics:

 Available memory in ccsd:               393215801
 Min. memory needed in ccsd:                523895
 Max. memory used in ccsd:                  659760
 Max. memory used in cckext:                587734 ( 1 integral passes)



 **********************************************************************************************************************************
 DATASETS  * FILE   NREC   LENGTH (MB)   RECORD NAMES
              1      21      212.97       500      610      700      900      950      970     1000      129      960     1100   
                                          VAR    BASINP    GEOM    SYMINP    ZMAT    AOBASIS   BASIS     P2S    ABASIS      S 
                                         1400     1410     1200     1210     1080     1600     1650     1300     1700     1380   
                                           T        V       H0       H01     AOSYM     SMH    MOLCAS    ERIS     OPER     JKOP   
                                         7000   
                                        PAPT AO    

              2       6        1.15       700     1000      520     2100     2101     7000   
                                         GEOM     BASIS   MCVARS     RHF      RHF     PAPT   

 PROGRAMS   *        TOTAL      PAPT    HF-SCF    HF-SCF       INT
 CPU TIMES  *         7.38      0.52      0.11      0.54      6.10
 REAL TIME  *        15.54 SEC
 DISK USED  *       709.79 MB
 **********************************************************************************************************************************


 PROGRAM * MP2 (Closed-shell)     Authors: C. Hampel, H.-J. Werner, 1991, M. Deegan, P.J. Knowles, 1992


 CORETYPE=SMALL

 Convergence thresholds:  THRVAR = 1.00D-08  THRDEN = 1.00D-06

 Number of closed-shell orbitals:   7 (   3   1   1   0   2   0   0   0 )
 Number of external orbitals:     221 (  44  26  26  13  45  27  27  13 )

 Molecular orbitals read from record     7000.2  Type=PAPT/CANONICAL (state 1.1)

 Number of N-1 electron functions:               7
 Number of N-2 electron functions:              28
 Number of singly external CSFs:               274
 Number of doubly external CSFs:            162803
 Total number of CSFs:                      163078

 Length of J-op  integral file:               0.00 MB
 Length of K-op  integral file:               0.59 MB

 Integral transformation finished. Total CPU:   0.16 sec, npass=  1  Memory used:   0.30 MW
 Orbital energies read from record       7000.2  Type=PAPT/CANONICAL (state 1.1)

 Memory needed for MP2:                      0.04 MW

 SCS-MP2 correlation energy:           -0.464820373900   (PS=  1.200000  PT=  0.333333)
 SCS-MP2 total energy:                -77.319334500438


  Reference energy                    -76.854514126538

  Correlated core orbitals:             1.1       1.5
  Orbital energies:                   -10.2575  -10.2438

  MP2 core-core energy                 -0.082372048638
  MP2 core-valence energy              -0.026648365194
  MP2 valence correlation energy       -0.339478317492

  MP2 singlet pair energy              -0.321498167247
  MP2 triplet pair energy              -0.127000564077
  MP2 correlation energy               -0.448498731324

 !MP2 total energy                    -77.303012857862


 **********************************************************************************************************************************
 DATASETS  * FILE   NREC   LENGTH (MB)   RECORD NAMES
              1      21      212.97       500      610      700      900      950      970     1000      129      960     1100   
                                          VAR    BASINP    GEOM    SYMINP    ZMAT    AOBASIS   BASIS     P2S    ABASIS      S 
                                         1400     1410     1200     1210     1080     1600     1650     1300     1700     1380   
                                           T        V       H0       H01     AOSYM     SMH    MOLCAS    ERIS     OPER     JKOP   
                                         7000   
                                        PAPT AO    

              2       6        1.15       700     1000      520     2100     2101     7000   
                                         GEOM     BASIS   MCVARS     RHF      RHF     PAPT   

 PROGRAMS   *        TOTAL       MP2      PAPT    HF-SCF    HF-SCF       INT
 CPU TIMES  *         7.63      0.25      0.52      0.11      0.54      6.10
 REAL TIME  *        16.83 SEC
 DISK USED  *       709.79 MB
 **********************************************************************************************************************************

 Dump information in style XML to xml output                                                                      

 Orbitals will not be exported.

 **********************************************************************************************************************************

 MP2/cc-pCVQZ energy=    -77.303012857862

             MP2            PAPT          HF-SCF          HF-SCF
    -77.30301286    -77.29888689    -76.85451413    -76.85451413
 **********************************************************************************************************************************
 Molpro calculation terminated
