
 Working directory              : /tmp/peterk/molpro.2whw1ux5aM/
 Global scratch directory       : /tmp/peterk/molpro.2whw1ux5aM/
 Wavefunction directory         : /home/peterk/wfu/
 Main file repository           : /tmp/peterk/molpro.2whw1ux5aM/

 id        : peterk

 Nodes     nprocs
 marat        1
 GA implementation: MPI file
 GA implementation (serial work in mppx): MPI file

 Using customized tuning parameters: mindgm=1; mindgv=20; mindgc=4; mindgr=1; noblas=0; minvec=7
 default implementation of scratch files=df  


 Variables initialized (1032), CPU time= 0.00 sec
 
 core,small
 angstrom
 
 geometry={
 H1;O1,H1,0.9619;O2,O1,1.4497,H1,99.99;H2,O2,0.9619,O1,99.99,H1,112.7
 }
 basis=cc-pCVTZ
 
 
 
 hf; ccsd
 
 
 
 {put,xml;noorbitals,nobasis}
 Commands initialized (841), CPU time= 0.01 sec, 708 directives.
 Default parameters read. Elapsed time= 0.05 sec

 Checking input...
 Passed
1


                                         ***  PROGRAM SYSTEM MOLPRO  ***
                                       Copyright, TTI GmbH Stuttgart, 2015
                                    Version 2023.1 linked Sat Jun 10 08:01:27 2023


 **********************************************************************************************************************************
 LABEL *                                                                                                                                                                 
  (16 PROC) 64 bit serial version                                                        DATE: 12-Jun-23          TIME: 10:27:07  
 **********************************************************************************************************************************

 SHA1:             8376d659ba1296ca7ee514c57770fe2c96af278c
 **********************************************************************************************************************************

 Memory per process:      1074 MW
 Total memory per node:   1074 MW

 GA preallocation disabled
 GA check disabled

 Variable memory set to 1073.7 MW

 ZUNIT=ANG

 SETTING BASIS          =    CC-PCVTZ


 Recomputing integrals since basis changed


 Using spherical harmonics

 Library entry H      S cc-pVTZ              selected for orbital group  1
 Library entry H      P cc-pVTZ              selected for orbital group  1
 Library entry H      D cc-pVTZ              selected for orbital group  1
 Library entry O      S cc-pCVTZ             selected for orbital group  2
 Library entry O      P cc-pCVTZ             selected for orbital group  2
 Library entry O      D cc-pCVTZ             selected for orbital group  2
 Library entry O      F cc-pCVTZ             selected for orbital group  2


 PROGRAM * SEWARD (Integral evaluation for generally contracted gaussian basis sets)     Author: Roland Lindh, 1990

 Geometry written to block  1 of record 700

 Orientation using atomic masses  
 Molecule type: Asymmetric top,     Order of principal axis = 2
 Symmetry elements: XY
 Rotational constants:      26.5232282    304.4736754     25.6942510 GHz  (calculated with average atomic masses)

 Point group  C2  



 ATOMIC COORDINATES

 NR  ATOM    CHARGE       X              Y              Z

   1  H1      1.00    1.347424735   -1.801309636   -0.933175495
   2  H2      1.00   -1.347424735    1.801309636   -0.933175495
   3  O1      8.00   -0.112004019   -1.365181095    0.058788761
   4  O2      8.00    0.112004019    1.365181095    0.058788761

 Bond lengths in Bohr (Angstrom)

 1-3  1.817727559  2-4  1.817727559  3-4  2.739535963
     ( 0.961900000)     ( 0.961900000)     ( 1.449700000)

 Bond angles

  1-3-4   99.99000000   2-4-3   99.99000000

 NUCLEAR CHARGE:                   18
 NUMBER OF PRIMITIVE AOS:         156
 NUMBER OF SYMMETRY AOS:          142
 NUMBER OF CONTRACTIONS:          114   (   57A   +   57B   )
 NUMBER OF INNER CORE ORBITALS:     0   (    0A   +    0B   )
 NUMBER OF OUTER CORE ORBITALS:     2   (    1A   +    1B   )
 NUMBER OF VALENCE ORBITALS:       10   (    5A   +    5B   )


 NUCLEAR REPULSION ENERGY   36.90490578

 Eigenvalues of metric

         1 0.256E-02 0.404E-02 0.899E-02 0.140E-01 0.258E-01 0.273E-01 0.325E-01 0.702E-01
         2 0.291E-02 0.321E-02 0.804E-02 0.106E-01 0.145E-01 0.257E-01 0.312E-01 0.391E-01


 Contracted 2-electron integrals neglected if value below      1.0D-11
 AO integral compression algorithm  1   Integral accuracy      1.0D-11

     66.847 MB (compressed) written to integral file ( 44.2%)


 NUMBER OF SORTED TWO-ELECTRON INTEGRALS:   10931289.     BUFFER LENGTH:  32768
 NUMBER OF SEGMENTS:   1  SEGMENT LENGTH:   10931289      RECORD LENGTH: 524288

 Memory used in sort:      11.49 MW

 SORT1 READ    18931808. AND WROTE     9156465. INTEGRALS IN     27 RECORDS. CPU TIME:     0.09 SEC, REAL TIME:     0.16 SEC
 SORT2 READ     9156465. AND WROTE    10931289. INTEGRALS IN    255 RECORDS. CPU TIME:     0.16 SEC, REAL TIME:     0.19 SEC

 FILE SIZES:   FILE 1:    97.2 MBYTE,  FILE 4:   113.3 MBYTE,   TOTAL:    210.5 MBYTE

 OPERATOR DM      FOR CENTER  0  COORDINATES:    0.000000    0.000000    0.000000


 **********************************************************************************************************************************
 DATASETS  * FILE   NREC   LENGTH (MB)   RECORD NAMES
              1      19       67.97       500      610      700      900      950      970     1000      129      960     1100   
                                          VAR    BASINP    GEOM    SYMINP    ZMAT    AOBASIS   BASIS     P2S    ABASIS      S 
                                         1400     1410     1200     1210     1080     1600     1650     1300     1700   
                                           T        V       H0       H01     AOSYM     SMH    MOLCAS    ERIS     OPER   

 PROGRAMS   *        TOTAL       INT
 CPU TIMES  *         1.31      1.20
 REAL TIME  *         2.08 SEC
 DISK USED  *       201.12 MB
 **********************************************************************************************************************************


 Program * Restricted Hartree-Fock

 Orbital guess generated from atomic densities. Full valence occupancy:    6   6

 Initial occupancy:   5   4

 NELEC=   18   SYM=1   MS2= 0   THRE=1.0D-08   THRD=3.2D-06   THRG=3.2D-06  HFMA2=F  DIIS_START=2   DIIS_MAX=10   DIIS_INCORE=F

 Level shifts:    0.00 (CLOSED)    0.00 (OPEN)    0.30 (GAP_MIN)

 ITER           ETOT              DE          GRAD        DDIFF     DIIS  NEXP   TIME(IT)  TIME(TOT)  DIAG
   1     -150.80900028    -150.80900028     0.00D+00     0.10D+00     0     0       0.03      0.07    start
   2     -150.83549921      -0.02649892     0.89D-02     0.98D-02     1     0       0.04      0.11    diag
   3     -150.83663760      -0.00113839     0.20D-02     0.14D-02     2     0       0.04      0.15    diag
   4     -150.83676497      -0.00012737     0.48D-03     0.58D-03     3     0       0.03      0.18    diag
   5     -150.83678012      -0.00001515     0.18D-03     0.17D-03     4     0       0.04      0.22    diag
   6     -150.83678158      -0.00000146     0.42D-04     0.47D-04     5     0       0.04      0.26    diag
   7     -150.83678166      -0.00000008     0.85D-05     0.11D-04     6     0       0.04      0.30    diag
   8     -150.83678166      -0.00000001     0.20D-05     0.34D-05     7     0       0.04      0.34    fixocc
   9     -150.83678166      -0.00000000     0.56D-06     0.83D-06     8     0       0.04      0.38    diag
  10     -150.83678166      -0.00000000     0.89D-07     0.10D-06     0     0       0.04      0.42    diag/orth

 Final occupancy:   5   4

 !RHF STATE 1.1 Energy               -150.836781662027
  RHF One-electron energy            -281.557486093998
  RHF Two-electron energy              93.815798648379
  RHF Kinetic energy                  150.670024177961
  RHF Nuclear energy                   36.904905783591
  RHF Virial quotient                  -1.001106772797

 !RHF STATE 1.1 Dipole moment           0.00000000     0.00000000    -0.75053142
 Dipole moment /Debye                   0.00000000     0.00000000    -1.90766059

 Orbital energies:

           1.1          2.1          3.1          4.1          5.1          6.1          7.1
    -20.625151    -1.473612    -0.711321    -0.606577    -0.516043     0.146558     0.580337

           1.2          2.2          3.2          4.2          5.2          6.2
    -20.624863    -1.212320    -0.708693    -0.484365     0.157619     0.280403


 HOMO      4.2    -0.484365 =     -13.1802eV
 LUMO      6.1     0.146558 =       3.9880eV
 LUMO-HOMO         0.630922 =      17.1683eV

 Orbitals saved in record  2100.2


 **********************************************************************************************************************************
 DATASETS  * FILE   NREC   LENGTH (MB)   RECORD NAMES
              1      19       67.97       500      610      700      900      950      970     1000      129      960     1100   
                                          VAR    BASINP    GEOM    SYMINP    ZMAT    AOBASIS   BASIS     P2S    ABASIS      S 
                                         1400     1410     1200     1210     1080     1600     1650     1300     1700   
                                           T        V       H0       H01     AOSYM     SMH    MOLCAS    ERIS     OPER   

              2       4        0.51       700     1000      520     2100   
                                         GEOM     BASIS   MCVARS     RHF  

 PROGRAMS   *        TOTAL    HF-SCF       INT
 CPU TIMES  *         1.73      0.42      1.20
 REAL TIME  *         2.55 SEC
 DISK USED  *       201.12 MB
 **********************************************************************************************************************************


 PROGRAM * CCSD (Closed-shell coupled cluster)     Authors: C. Hampel, H.-J. Werner, 1991, M. Deegan, P.J. Knowles, 1992


 CORETYPE=SMALL

 Convergence thresholds:  THRVAR = 1.00D-08  THRDEN = 1.00D-06

 Number of closed-shell orbitals:   9 (   5   4 )
 Number of external orbitals:     105 (  52  53 )

 Molecular orbitals read from record     2100.2  Type=RHF/CANONICAL  

 Number of N-1 electron functions:               9
 Number of N-2 electron functions:              45
 Number of singly external CSFs:               472
 Number of doubly external CSFs:            223729
 Total number of CSFs:                      224202

 Length of J-op  integral file:               0.00 MB
 Length of K-op  integral file:               0.51 MB
 Length of 3-ext integral record:             0.00 MB

 Integral transformation finished. Total CPU:   0.24 sec, npass=  1  Memory used:   3.14 MW

 Reference energy:                   -150.83678166

 MP2 singlet pair energy:              -0.40121637
 MP2 triplet pair energy:              -0.20689190
 MP2 correlation energy:               -0.60810827
 MP2 total energy:                   -151.44488993

 SCS-MP2 correlation energy:           -0.61019238   (PS=  1.200000  PT=  0.333333)
 SCS-MP2 total energy:               -151.44697404

 ITER.      SQ.NORM     CORR.ENERGY   TOTAL ENERGY   ENERGY CHANGE        DEN1      VAR(S)    VAR(P)  DIIS     TIME  TIME/IT
   1      1.11907509    -0.61633286  -151.45311452    -0.00822459     0.00563548  0.17D-02  0.22D-02  1  1     2.54     0.25
   2      1.12728405    -0.61679307  -151.45357473    -0.00046021    -0.01152867  0.39D-04  0.31D-03  2  2     2.77     0.25
   3      1.13040202    -0.61693976  -151.45372142    -0.00014669    -0.00197219  0.16D-04  0.27D-04  3  3     3.00     0.25
   4      1.13194836    -0.61695470  -151.45373636    -0.00001494    -0.00088016  0.15D-05  0.21D-05  4  4     3.22     0.25
   5      1.13225682    -0.61695873  -151.45374039    -0.00000403    -0.00009723  0.52D-06  0.18D-06  5  5     3.47     0.25
   6      1.13232789    -0.61695865  -151.45374031     0.00000008    -0.00000448  0.97D-07  0.27D-07  6  6     3.72     0.26
   7      1.13234899    -0.61695862  -151.45374028     0.00000003    -0.00000324  0.17D-07  0.43D-08  6  2     3.98     0.26
   8      1.13235453    -0.61695789  -151.45373955     0.00000072     0.00000042  0.34D-08  0.84D-09  6  1     4.23     0.26

 Norm of t1 vector:      0.05282132      S-energy:    -0.00000042      T1 diagnostic:  0.00880355
                                                                       D1 diagnostic:  0.02305304
                                                                       D2 diagnostic:  0.17560664 (internal)

 Doubles amplitudes (print threshold =  0.500E-01):

         I         J         SYM. A    SYM. B    A         B      T(IJ, AB)

         4         4         2         2         2         2     -0.05969688


 RESULTS
 =======

  Reference energy                   -150.836781662027

  Correlated core orbitals:             1.1       1.2
  Orbital energies:                   -20.6252  -20.6249

  CCSD core-core energy                -0.073809376001
  CCSD core-valence energy             -0.034490400778
  CCSD valence correlation energy      -0.508658115959

  CCSD singlet pair energy             -0.433786106530
  CCSD triplet pair energy             -0.183171365338
  CCSD correlation energy              -0.616957892738

 !CCSD total energy                  -151.453739554765

 Timing summary (sec):

 STEP                 CPU(USER)    SYS     CPU(TOT)    WALL
 Transformation          0.25      0.05      0.30      0.30
 CCSD iterations         4.00      0.14      4.14      2.10

 Program statistics:

 Available memory in ccsd:              1073741495
 Min. memory needed in ccsd:                654669
 Max. memory used in ccsd:                  844724
 Max. memory used in cckext:                841658 ( 8 integral passes)



 **********************************************************************************************************************************
 DATASETS  * FILE   NREC   LENGTH (MB)   RECORD NAMES
              1      20       91.49       500      610      700      900      950      970     1000      129      960     1100   
                                          VAR    BASINP    GEOM    SYMINP    ZMAT    AOBASIS   BASIS     P2S    ABASIS      S 
                                         1400     1410     1200     1210     1080     1600     1650     1300     1700     1380   
                                           T        V       H0       H01     AOSYM     SMH    MOLCAS    ERIS     OPER     JKOP   

              2       4        0.51       700     1000      520     2100   
                                         GEOM     BASIS   MCVARS     RHF  

 PROGRAMS   *        TOTAL      CCSD    HF-SCF       INT
 CPU TIMES  *         3.96      2.22      0.42      1.20
 REAL TIME  *         4.98 SEC
 DISK USED  *       201.12 MB
 **********************************************************************************************************************************

 Dump information in style XML to xml output                                                                      

 Orbitals will not be exported.

 **********************************************************************************************************************************

 CCSD/cc-pCVTZ energy=   -151.453739554765

            CCSD          HF-SCF
   -151.45373955   -150.83678166
 **********************************************************************************************************************************
 Molpro calculation terminated
