
 Working directory              : /var/folders/2v/xbgp75_9785319ghcgb4zr4r0000gp/T//molpro.xKYjqbdheu/
 Global scratch directory       : /var/folders/2v/xbgp75_9785319ghcgb4zr4r0000gp/T//molpro.xKYjqbdheu/
 Wavefunction directory         : /Users/sacpjk/wfu/
 Main file repository           : /var/folders/2v/xbgp75_9785319ghcgb4zr4r0000gp/T//molpro.xKYjqbdheu/

 id        : peterk

 Nodes                        nprocs
 Cardiff-University-G34YLXT77Y    1
 GA implementation: MPI file
 GA implementation (serial work in mppx): MPI file

 Using customized tuning parameters: mindgm=1; mindgv=20; mindgc=4; mindgr=1; noblas=0; minvec=7
 default implementation of scratch files=df  


 Variables initialized (1032), CPU time= 0.00 sec
 
 symmetry,nosym
 
 
 geometry={
           11
     O         -1.72343769     -1.30912299      0.48350889
     S         -1.53520809      0.24396861      0.17220872
     O         -2.42759105      0.64613872     -0.87222356
     O         -1.41356005      0.89035686      1.43698347
     O         -0.06586720      0.24573953     -0.59351787
     S          1.36137596      0.12591622      0.27091158
     O          2.27548608     -0.13523733     -1.00931930
     O          1.65008964      1.41502733      0.82289528
     O          1.33946097     -1.08526604      1.02361624
     H         -1.98448233     -1.76592022     -0.34043223
     H          2.52373377      0.72839930     -1.39463122
 }
 basis=cc-pVTZ
 
 
 
 hf; ccsd
 
 
 
 {put,xml;noorbitals,nobasis}
 Commands initialized (841), CPU time= 0.01 sec, 704 directives.
 Default parameters read. Elapsed time= 0.35 sec

 Checking input...
 Passed
1


                                         ***  PROGRAM SYSTEM MOLPRO  ***
                                       Copyright, TTI GmbH Stuttgart, 2015
                                    Version 2023.1 linked Tue Jun  6 09:54:11 2023


 **********************************************************************************************************************************
 LABEL *                                                                                                                                                                 
  64 bit serial version                                                                  DATE: 13-Jun-23          TIME: 04:32:23  
 **********************************************************************************************************************************

 SHA1:             8ebb0dd001088a5c915591db1a321413035db0b1
 **********************************************************************************************************************************

 Memory per process:       393 MW
 Total memory per node:    524 MW
 Total GA space:           131 MW

 GA preallocation disabled
 GA check enabled

 Variable memory set to 393.2 MW

 ZSYMEL=NOSYM


 Geometry recognized as XYZ

 SETTING BASIS          =    CC-PVTZ


 Recomputing integrals since basis changed


 Using spherical harmonics

 Library entry O      S cc-pVTZ              selected for orbital group  1
 Library entry O      P cc-pVTZ              selected for orbital group  1
 Library entry O      D cc-pVTZ              selected for orbital group  1
 Library entry O      F cc-pVTZ              selected for orbital group  1
 Library entry S      S cc-pVTZ              selected for orbital group  2
 Library entry S      P cc-pVTZ              selected for orbital group  2
 Library entry S      D cc-pVTZ              selected for orbital group  2
 Library entry S      F cc-pVTZ              selected for orbital group  2
 Library entry H      S cc-pVTZ              selected for orbital group  6
 Library entry H      P cc-pVTZ              selected for orbital group  6
 Library entry H      D cc-pVTZ              selected for orbital group  6


 PROGRAM * SEWARD (Integral evaluation for generally contracted gaussian basis sets)     Author: Roland Lindh, 1990

 Geometry written to block  1 of record 700


 Point group  C1  



 ATOMIC COORDINATES

 NR  ATOM    CHARGE       X              Y              Z

   1  O       8.00   -3.256825227   -2.473883915    0.913699381
   2  S      16.00   -2.901122834    0.461033856    0.325427317
   3  O       8.00   -4.587482227    1.221025219   -1.648263648
   4  O       8.00   -2.671241355    1.682530619    2.715505204
   5  O       8.00   -0.124470969    0.464380410   -1.121586224
   6  S      16.00    2.572627717    0.237947170    0.511948690
   7  O       8.00    4.300045492   -0.255561516   -1.907337049
   8  O       8.00    3.118217501    2.674014113    1.555046708
   9  O       8.00    2.531214388   -2.050855588    1.934354350
  10  H       1.00   -3.750128103   -3.337105574   -0.643323679
  11  H       1.00    4.769165637    1.376475186   -2.635471051

 Bond lengths in Bohr (Angstrom)

  1- 2  3.014354082   1-10  1.847381977   2- 3  2.704967818   2- 4  2.693951028   2- 5  3.131078883
       ( 1.595127486)       ( 0.977592442)       ( 1.431407326)       ( 1.425577491)       ( 1.656895590)

 2-6  5.481469054  5-6  3.161336687  6-7  3.013381237  6-8  2.705576433  6-9  2.695101295
     ( 2.900668506)     ( 1.672907331)     ( 1.594612678)     ( 1.431729391)     ( 1.426186187)

  7-11  1.847646241
       ( 0.977732284)

 Bond angles

  1-2-3  110.02241419   1-2-4  106.16467976   1-2-5  101.29595230   1-2-6   94.10417589

  2- 1-10  108.78273303   2- 5- 6  121.17810035   2- 6- 5   29.25563704   2- 6- 7  123.48976877

  2-6-8  100.24423133   2-6-9   92.13059237   3-2-4  124.97054042   3-2-5  102.43628489

  3-2-6  131.20961239   4-2-5  109.50313118   4-2-6   84.43654180   5-2-6   29.56626262

  5- 6- 7   94.93058748   5- 6- 8  107.86442379   5- 6- 9  108.68901387   6- 7-11  108.49849330

  7-6-8  109.96144082   7-6-9  107.06450119   8-6-9  124.35178048

 NUCLEAR CHARGE:                   90
 NUMBER OF PRIMITIVE AOS:         491
 NUMBER OF SYMMETRY AOS:          444
 NUMBER OF CONTRACTIONS:          306   (  306A   )
 NUMBER OF INNER CORE ORBITALS:     2   (    2A   )
 NUMBER OF OUTER CORE ORBITALS:    15   (   15A   )
 NUMBER OF VALENCE ORBITALS:       38   (   38A   )


 NUCLEAR REPULSION ENERGY  794.22121979


 Eigenvalues of metric

         1 0.132E-02 0.194E-02 0.199E-02 0.204E-02 0.235E-02 0.243E-02 0.248E-02 0.255E-02


 Contracted 2-electron integrals neglected if value below      1.0D-11
 AO integral compression algorithm  1   Integral accuracy      1.0D-11

     2798.387 MB (compressed) written to integral file ( 32.1%)


 NUMBER OF SORTED TWO-ELECTRON INTEGRALS: 1103160906.     BUFFER LENGTH:  32768
 NUMBER OF SEGMENTS:  35  SEGMENT LENGTH:   31998710      RECORD LENGTH: 524288

 Memory used in sort:      32.56 MW

 SORT1 READ  1090985160. AND WROTE   769282779. INTEGRALS IN   2217 RECORDS. CPU TIME:     7.82 SEC, REAL TIME:    10.28 SEC
 SORT2 READ   769282779. AND WROTE  1103160906. INTEGRALS IN  10675 RECORDS. CPU TIME:     6.18 SEC, REAL TIME:     8.07 SEC

 FILE SIZES:   FILE 1:  2832.0 MBYTE,  FILE 4:  9298.8 MBYTE,   TOTAL:  12130.9 MBYTE

 OPERATOR DM      FOR CENTER  0  COORDINATES:    0.000000    0.000000    0.000000


 **********************************************************************************************************************************
 DATASETS  * FILE   NREC   LENGTH (MB)   RECORD NAMES
              1      19     2397.21       500      610      700      900      950      970     1000      129      960     1100   
                                          VAR    BASINP    GEOM    SYMINP    ZMAT    AOBASIS   BASIS     P2S    ABASIS      S 
                                         1400     1410     1200     1210     1080     1600     1650     1300     1700   
                                           T        V       H0       H01     AOSYM     SMH    MOLCAS    ERIS     OPER   

 PROGRAMS   *        TOTAL       INT
 CPU TIMES  *        37.24     37.14
 REAL TIME  *        45.98 SEC
 DISK USED  *        11.30 GB
 **********************************************************************************************************************************


 Program * Restricted Hartree-Fock

 Orbital guess generated from atomic densities. Full valence occupancy:   55

 Initial occupancy:  45

 NELEC=   90   SYM=1   MS2= 0   THRE=1.0D-08   THRD=3.2D-06   THRG=3.2D-06  HFMA2=F  DIIS_START=2   DIIS_MAX=10   DIIS_INCORE=F

 Level shifts:    0.00 (CLOSED)    0.00 (OPEN)    0.30 (GAP_MIN)

 ITER           ETOT              DE          GRAD        DDIFF     DIIS  NEXP   TIME(IT)  TIME(TOT)  DIAG
   1    -1319.99315052   -1319.99315052     0.00D+00     0.57D-01     0     0       4.93      9.44    start
   2    -1320.18724694      -0.19409642     0.67D-02     0.10D-01     1     0       4.80     14.24    diag
   3    -1320.39107001      -0.20382307     0.51D-02     0.42D-02     2     0       5.08     19.32    diag
   4    -1320.39372228      -0.00265227     0.55D-03     0.66D-03     3     0       5.25     24.57    diag
   5    -1320.39419310      -0.00047082     0.22D-03     0.27D-03     4     0       5.28     29.85    diag
   6    -1320.39422955      -0.00003645     0.54D-04     0.68D-04     5     0       4.99     34.84    diag
   7    -1320.39423365      -0.00000410     0.13D-04     0.25D-04     6     0       5.05     39.89    diag
   8    -1320.39423404      -0.00000038     0.50D-05     0.75D-05     7     0       5.02     44.91    fixocc
   9    -1320.39423410      -0.00000006     0.19D-05     0.30D-05     8     0       5.00     49.91    diag
  10    -1320.39423411      -0.00000001     0.55D-06     0.96D-06     9     0       4.76     54.67    diag/orth
  11    -1320.39423411      -0.00000000     0.16D-06     0.24D-06     0     0       4.73     59.40    diag

 Final occupancy:  45

 !RHF STATE 1.1 Energy              -1320.394234106567
  RHF One-electron energy           -3401.599962066455
  RHF Two-electron energy            1286.984508171085
  RHF Kinetic energy                 1318.680500748130
  RHF Nuclear energy                  794.221219788802
  RHF Virial quotient                  -1.001299581936

 !RHF STATE 1.1 Dipole moment           0.39484304    -0.60561213    -1.51870784
 Dipole moment /Debye                   1.00359091    -1.53931250    -3.86017030

 Orbital energies:

           1.1          2.1          3.1          4.1          5.1          6.1          7.1          8.1          9.1         10.1
    -92.305044   -92.303067   -20.690716   -20.681799   -20.677642   -20.611991   -20.610732   -20.609149   -20.608257    -9.263788

          11.1         12.1         13.1         14.1         15.1         16.1         17.1         18.1         19.1         20.1
     -9.261595    -6.950050    -6.949168    -6.947894    -6.947886    -6.946981    -6.945854    -1.596584    -1.559708    -1.450083

          21.1         22.1         23.1         24.1         25.1         26.1         27.1         28.1         29.1         30.1
     -1.440731    -1.425057    -1.413468    -1.412233    -0.991457    -0.908492    -0.847935    -0.796195    -0.767875    -0.752395

          31.1         32.1         33.1         34.1         35.1         36.1         37.1         38.1         39.1         40.1
     -0.743425    -0.717109    -0.686683    -0.669537    -0.650654    -0.636660    -0.604145    -0.589328    -0.580429    -0.562936

          41.1         42.1         43.1         44.1         45.1         46.1         47.1
     -0.556119    -0.545467    -0.541614    -0.529805    -0.527782     0.103841     0.117265


 HOMO     45.1    -0.527782 =     -14.3617eV
 LUMO     46.1     0.103841 =       2.8257eV
 LUMO-HOMO         0.631623 =      17.1873eV

 Orbitals saved in record  2100.2


 **********************************************************************************************************************************
 DATASETS  * FILE   NREC   LENGTH (MB)   RECORD NAMES
              1      19     2397.21       500      610      700      900      950      970     1000      129      960     1100   
                                          VAR    BASINP    GEOM    SYMINP    ZMAT    AOBASIS   BASIS     P2S    ABASIS      S 
                                         1400     1410     1200     1210     1080     1600     1650     1300     1700   
                                           T        V       H0       H01     AOSYM     SMH    MOLCAS    ERIS     OPER   

              2       4        2.03       700     1000      520     2100   
                                         GEOM     BASIS   MCVARS     RHF  

 PROGRAMS   *        TOTAL    HF-SCF       INT
 CPU TIMES  *        96.64     59.40     37.14
 REAL TIME  *       113.83 SEC
 DISK USED  *        11.30 GB
 **********************************************************************************************************************************


 PROGRAM * CCSD (Closed-shell coupled cluster)     Authors: C. Hampel, H.-J. Werner, 1991, M. Deegan, P.J. Knowles, 1992


 Convergence thresholds:  THRVAR = 1.00D-08  THRDEN = 1.00D-06

 Number of core orbitals:          17 (  17 )
 Number of closed-shell orbitals:  28 (  28 )
 Number of external orbitals:     261 ( 261 )

 Molecular orbitals read from record     2100.2  Type=RHF/CANONICAL  

 Number of N-1 electron functions:              28
 Number of N-2 electron functions:             406
 Number of singly external CSFs:              7308
 Number of doubly external CSFs:          26707086
 Total number of CSFs:                    26714395

 Length of J-op  integral file:               0.00 MB
 Length of K-op  integral file:               6.49 MB
 Length of 3-ext integral record:             0.00 MB

 Multipassing necessary in transformation. To avoid, increase memory by 85.72 Mwords.

 Integral transformation finished. Total CPU:  66.28 sec, npass=  2  Memory used: 389.20 MW

 Reference energy:                  -1320.39423411

 MP2 singlet pair energy:              -1.21257775
 MP2 triplet pair energy:              -0.82818636
 MP2 correlation energy:               -2.04076411
 MP2 total energy:                  -1322.43499822

 SCS-MP2 correlation energy:           -1.97040926   (PS=  1.200000  PT=  0.333333)
 SCS-MP2 total energy:              -1322.36464337

 ITER.      SQ.NORM     CORR.ENERGY   TOTAL ENERGY   ENERGY CHANGE        DEN1      VAR(S)    VAR(P)  DIIS     TIME  TIME/IT
   1      1.48480130    -2.02674813 -1322.42098223     0.01401599     0.07755541  0.18D-01  0.12D-01  1  1   403.21   234.17
   2      1.51967254    -2.02225497 -1322.41648907     0.00449316    -0.04821786  0.29D-03  0.14D-02  2  2   655.57   242.02
   3      1.53460930    -2.02287786 -1322.41711196    -0.00062289    -0.00693985  0.36D-03  0.67D-04  3  3   901.81   242.57
   4      1.54136378    -2.02231039 -1322.41654450     0.00056746    -0.00285911  0.31D-04  0.12D-04  4  4  1131.09   239.98
   5      1.54436663    -2.02221312 -1322.41644723     0.00009727    -0.00084841  0.43D-05  0.11D-05  5  5  1369.83   239.21
   6      1.54496800    -2.02216639 -1322.41640050     0.00004673    -0.00006183  0.50D-06  0.21D-06  6  6  1617.84   239.84
   7      1.54514481    -2.02215129 -1322.41638539     0.00001510    -0.00000626  0.66D-07  0.32D-07  6  1  1862.64   239.95
   8      1.54518571    -2.02215121 -1322.41638531     0.00000008    -0.00001527  0.75D-08  0.41D-08  6  2  2103.17   239.55
   9      1.54518256    -2.02215214 -1322.41638625    -0.00000093     0.00000827  0.15D-08  0.60D-09  6  3  2349.13   239.70

 Norm of t1 vector:      0.17466880      S-energy:    -0.00000194      T1 diagnostic:  0.01650465
                                                                       D1 diagnostic:  0.05311829
                                                                       D2 diagnostic:  0.15191908 (external, symmetry=1)


 RESULTS
 =======

  Reference energy                  -1320.394234106558
  CCSD singlet pair energy             -1.299283796982
  CCSD triplet pair energy             -0.722866397431
  CCSD correlation energy              -2.022152138847

 !CCSD total energy                 -1322.416386245405

 Timing summary (sec):

 STEP                 CPU(USER)    SYS     CPU(TOT)    WALL
 Transformation         68.67      9.22     77.89     80.63
 CCSD iterations      2281.91     87.13   2369.04   2159.73

 Program statistics:

 Available memory in ccsd:               393212819
 Min. memory needed in ccsd:              62260081
 Max. memory used in ccsd:                87302707
 Max. memory used in cckext:              77431986 ( 9 integral passes)



 **********************************************************************************************************************************
 DATASETS  * FILE   NREC   LENGTH (MB)   RECORD NAMES
              1      20     4740.53       500      610      700      900      950      970     1000      129      960     1100   
                                          VAR    BASINP    GEOM    SYMINP    ZMAT    AOBASIS   BASIS     P2S    ABASIS      S 
                                         1400     1410     1200     1210     1080     1600     1650     1300     1700     1380   
                                           T        V       H0       H01     AOSYM     SMH    MOLCAS    ERIS     OPER     JKOP   

              2       4        2.03       700     1000      520     2100   
                                         GEOM     BASIS   MCVARS     RHF  

 PROGRAMS   *        TOTAL      CCSD    HF-SCF       INT
 CPU TIMES  *      2350.50   2253.86     59.40     37.14
 REAL TIME  *      2355.00 SEC
 DISK USED  *        11.30 GB
 **********************************************************************************************************************************

 Dump information in style XML to xml output                                                                      

 Orbitals will not be exported.

 **********************************************************************************************************************************

 CCSD/cc-pVTZ energy=  -1322.416386245405

            CCSD          HF-SCF
  -1322.41638625  -1320.39423411
 **********************************************************************************************************************************
 Molpro calculation terminated
