
 Working directory              : /var/folders/2v/xbgp75_9785319ghcgb4zr4r0000gp/T//molpro.h9ZQrvohdw/
 Global scratch directory       : /var/folders/2v/xbgp75_9785319ghcgb4zr4r0000gp/T//molpro.h9ZQrvohdw/
 Wavefunction directory         : /Users/sacpjk/wfu/
 Main file repository           : /var/folders/2v/xbgp75_9785319ghcgb4zr4r0000gp/T//molpro.h9ZQrvohdw/

 id        : peterk

 Nodes                        nprocs
 Cardiff-University-G34YLXT77Y    1
 GA implementation: MPI file
 GA implementation (serial work in mppx): MPI file

 Using customized tuning parameters: mindgm=1; mindgv=20; mindgc=4; mindgr=1; noblas=0; minvec=7
 default implementation of scratch files=df  


 Variables initialized (1032), CPU time= 0.00 sec
 
 symmetry,nosym
 
 
 geometry={
           11
     C         -1.14801349     -0.57975568      0.03120696
     C         -1.08021984      0.78192529      0.02639005
     N          1.30543743      1.13121591      0.11743732
     N          1.57534155     -0.09591016      0.00445069
     C          1.06337833     -1.19481227      0.00478589
     H         -1.31347505     -1.11800370      0.95840071
     H         -1.34813898     -1.12998002     -0.87963506
     H         -1.11376040      1.35419025      0.94257550
     H         -1.16281172      1.34381802     -0.89587363
     H          1.77093124      1.66037919     -0.62483756
     H          1.45133094     -2.15306682      0.31509914
 }
 basis=cc-pVTZ
 
 
 
 hf; mp2
 
 
 
 {put,xml;noorbitals,nobasis}
 Commands initialized (841), CPU time= 0.01 sec, 704 directives.
 Default parameters read. Elapsed time= 1.34 sec

 Checking input...
 Passed
1


                                         ***  PROGRAM SYSTEM MOLPRO  ***
                                       Copyright, TTI GmbH Stuttgart, 2015
                                    Version 2023.1 linked Tue Jun  6 09:54:11 2023


 **********************************************************************************************************************************
 LABEL *                                                                                                                                                                 
  64 bit serial version                                                                  DATE: 10-Jun-23          TIME: 15:09:10  
 **********************************************************************************************************************************

 SHA1:             8ebb0dd001088a5c915591db1a321413035db0b1
 **********************************************************************************************************************************

 Memory per process:       805 MW
 Total memory per node:   1074 MW
 Total GA space:           268 MW

 GA preallocation disabled
 GA check enabled

 Variable memory set to 805.3 MW

 ZSYMEL=NOSYM


 Geometry recognized as XYZ

 SETTING BASIS          =    CC-PVTZ


 Recomputing integrals since basis changed


 Using spherical harmonics

 Library entry C      S cc-pVTZ              selected for orbital group  1
 Library entry C      P cc-pVTZ              selected for orbital group  1
 Library entry C      D cc-pVTZ              selected for orbital group  1
 Library entry C      F cc-pVTZ              selected for orbital group  1
 Library entry N      S cc-pVTZ              selected for orbital group  2
 Library entry N      P cc-pVTZ              selected for orbital group  2
 Library entry N      D cc-pVTZ              selected for orbital group  2
 Library entry N      F cc-pVTZ              selected for orbital group  2
 Library entry H      S cc-pVTZ              selected for orbital group  4
 Library entry H      P cc-pVTZ              selected for orbital group  4
 Library entry H      D cc-pVTZ              selected for orbital group  4


 PROGRAM * SEWARD (Integral evaluation for generally contracted gaussian basis sets)     Author: Roland Lindh, 1990

 Geometry written to block  1 of record 700


 Point group  C1  



 ATOMIC COORDINATES

 NR  ATOM    CHARGE       X              Y              Z

   1  C       6.00   -2.169431083   -1.095579454    0.058972608
   2  C       6.00   -2.041319652    1.477624648    0.049869967
   3  N       7.00    2.466919216    2.137688258    0.221924372
   4  N       7.00    2.976964082   -0.181243935    0.008410585
   5  C       6.00    2.009493811   -2.257867961    0.009044021
   6  H       1.00   -2.482108116   -2.112720799    1.811114860
   7  H       1.00   -2.547613450   -2.135352764   -1.662269353
   8  H       1.00   -2.104702124    2.559048693    1.781209547
   9  H       1.00   -2.197395685    2.539448019   -1.692955803
  10  H       1.00    3.346575029    3.137661932   -1.180771861
  11  H       1.00    2.742617993   -4.068706618    0.595451077

 Bond lengths in Bohr (Angstrom)

 1-2  2.576407334  1-6  2.049962418  1-7  2.046173093  2-8  2.042310467  2-9  2.046770692
     ( 1.363376047)     ( 1.084793395)     ( 1.082788170)     ( 1.080744157)     ( 1.083104406)

  3- 4  2.383942201   3-10  1.934243630   4- 5  2.290931355   5-11  2.039725703
       ( 1.261527885)       ( 1.023557649)       ( 1.212308665)       ( 1.079376359)

 Bond angles

  1-2-8  121.62203767   1-2-9  121.15476259   2-1-6  120.40858136   2-1-7  120.91338229

  3- 4- 5  142.31262266   4- 3-10  109.91558835   4- 5-11  130.77046409   6- 1- 7  116.01874710

  8-2-9  116.40935928

 NUCLEAR CHARGE:                   38
 NUMBER OF PRIMITIVE AOS:         337
 NUMBER OF SYMMETRY AOS:          306
 NUMBER OF CONTRACTIONS:          234   (  234A   )
 NUMBER OF INNER CORE ORBITALS:     0   (    0A   )
 NUMBER OF OUTER CORE ORBITALS:     5   (    5A   )
 NUMBER OF VALENCE ORBITALS:       26   (   26A   )


 NUCLEAR REPULSION ENERGY  160.16494666


 Eigenvalues of metric

         1 0.369E-03 0.870E-03 0.924E-03 0.125E-02 0.133E-02 0.142E-02 0.145E-02 0.157E-02


 Contracted 2-electron integrals neglected if value below      1.0D-11
 AO integral compression algorithm  1   Integral accuracy      1.0D-11

     1346.109 MB (compressed) written to integral file ( 41.4%)


 NUMBER OF SORTED TWO-ELECTRON INTEGRALS:  378001260.     BUFFER LENGTH:  32768
 NUMBER OF SEGMENTS:  24  SEGMENT LENGTH:   15999762      RECORD LENGTH: 524288

 Memory used in sort:      16.56 MW

 SORT1 READ   406016940. AND WROTE   339133609. INTEGRALS IN    981 RECORDS. CPU TIME:     2.94 SEC, REAL TIME:     6.90 SEC
 SORT2 READ   339133609. AND WROTE   378001260. INTEGRALS IN   5135 RECORDS. CPU TIME:     2.32 SEC, REAL TIME:    11.74 SEC

 FILE SIZES:   FILE 1:  1378.3 MBYTE,  FILE 4:  4114.7 MBYTE,   TOTAL:   5493.0 MBYTE

 OPERATOR DM      FOR CENTER  0  COORDINATES:    0.000000    0.000000    0.000000


 **********************************************************************************************************************************
 DATASETS  * FILE   NREC   LENGTH (MB)   RECORD NAMES
              1      19     1204.12       500      610      700      900      950      970     1000      129      960     1100   
                                          VAR    BASINP    GEOM    SYMINP    ZMAT    AOBASIS   BASIS     P2S    ABASIS      S 
                                         1400     1410     1200     1210     1080     1600     1650     1300     1700   
                                           T        V       H0       H01     AOSYM     SMH    MOLCAS    ERIS     OPER   

 PROGRAMS   *        TOTAL       INT
 CPU TIMES  *        13.72     13.63
 REAL TIME  *        37.37 SEC
 DISK USED  *         5.12 GB
 **********************************************************************************************************************************


 Program * Restricted Hartree-Fock

 Orbital guess generated from atomic densities. Full valence occupancy:   31

 Initial occupancy:  19

 NELEC=   38   SYM=1   MS2= 0   THRE=1.0D-08   THRD=3.2D-06   THRG=3.2D-06  HFMA2=F  DIIS_START=2   DIIS_MAX=10   DIIS_INCORE=F

 Level shifts:    0.00 (CLOSED)    0.00 (OPEN)    0.30 (GAP_MIN)

 ITER           ETOT              DE          GRAD        DDIFF     DIIS  NEXP   TIME(IT)  TIME(TOT)  DIAG
   1     -225.79282088    -225.79282088     0.00D+00     0.49D-01     0     0       1.57      3.08    start
   2     -225.84541360      -0.05259272     0.37D-02     0.53D-02     1     0       1.61      4.69    diag
   3     -225.86693415      -0.02152055     0.24D-02     0.22D-02     2     0       1.60      6.29    diag
   4     -225.86953806      -0.00260391     0.63D-03     0.80D-03     3     0       1.59      7.88    diag
   5     -225.87022926      -0.00069120     0.31D-03     0.37D-03     4     0       1.62      9.50    diag
   6     -225.87050916      -0.00027989     0.13D-03     0.20D-03     5     0       1.62     11.12    diag
   7     -225.87068973      -0.00018058     0.80D-04     0.21D-03     6     0       1.65     12.77    diag
   8     -225.87076378      -0.00007405     0.48D-04     0.17D-03     7     0       1.67     14.44    fixocc
   9     -225.87077565      -0.00001188     0.18D-04     0.77D-04     8     0       1.64     16.08    diag
  10     -225.87077660      -0.00000094     0.72D-05     0.19D-04     9     0       1.62     17.70    diag/orth
  11     -225.87077677      -0.00000017     0.28D-05     0.79D-05     9     0       1.66     19.36    diag
  12     -225.87077682      -0.00000005     0.15D-05     0.45D-05     9     0       1.72     21.08    diag
  13     -225.87077683      -0.00000001     0.63D-06     0.22D-05     9     0       1.71     22.79    diag
  14     -225.87077684      -0.00000000     0.40D-06     0.13D-05     9     0       1.78     24.57    diag
  15     -225.87077684      -0.00000000     0.25D-06     0.43D-06     0     0       1.85     26.42    diag

 Final occupancy:  19

 !RHF STATE 1.1 Energy               -225.870776836602
  RHF One-electron energy            -622.556154459802
  RHF Two-electron energy             236.520430960297
  RHF Kinetic energy                  225.493929365342
  RHF Nuclear energy                  160.164946662903
  RHF Virial quotient                  -1.001671208943

 !RHF STATE 1.1 Dipole moment           0.31251565    -0.52200807    -0.25004041
 Dipole moment /Debye                   0.79433554    -1.32681217    -0.63553934

 Orbital energies:

           1.1          2.1          3.1          4.1          5.1          6.1          7.1          8.1          9.1         10.1
    -15.670264   -15.589769   -11.293115   -11.223567   -11.218985    -1.365068    -1.107368    -1.016183    -0.790349    -0.783082

          11.1         12.1         13.1         14.1         15.1         16.1         17.1         18.1         19.1         20.1
     -0.704085    -0.639304    -0.626052    -0.586764    -0.569741    -0.497920    -0.400541    -0.359006    -0.316470     0.101818

          21.1
      0.139590


 HOMO     19.1    -0.316470 =      -8.6116eV
 LUMO     20.1     0.101818 =       2.7706eV
 LUMO-HOMO         0.418288 =      11.3822eV

 Orbitals saved in record  2100.2


 **********************************************************************************************************************************
 DATASETS  * FILE   NREC   LENGTH (MB)   RECORD NAMES
              1      19     1204.12       500      610      700      900      950      970     1000      129      960     1100   
                                          VAR    BASINP    GEOM    SYMINP    ZMAT    AOBASIS   BASIS     P2S    ABASIS      S 
                                         1400     1410     1200     1210     1080     1600     1650     1300     1700   
                                           T        V       H0       H01     AOSYM     SMH    MOLCAS    ERIS     OPER   

              2       4        1.41       700     1000      520     2100   
                                         GEOM     BASIS   MCVARS     RHF  

 PROGRAMS   *        TOTAL    HF-SCF       INT
 CPU TIMES  *        40.14     26.42     13.63
 REAL TIME  *        70.96 SEC
 DISK USED  *         5.12 GB
 **********************************************************************************************************************************


 PROGRAM * MP2 (Closed-shell)     Authors: C. Hampel, H.-J. Werner, 1991, M. Deegan, P.J. Knowles, 1992


 Convergence thresholds:  THRVAR = 1.00D-08  THRDEN = 1.00D-06

 Number of core orbitals:           5 (   5 )
 Number of closed-shell orbitals:  14 (  14 )
 Number of external orbitals:     215 ( 215 )

 Molecular orbitals read from record     2100.2  Type=RHF/CANONICAL  

 Number of N-1 electron functions:              14
 Number of N-2 electron functions:             105
 Number of singly external CSFs:              3010
 Number of doubly external CSFs:           4531555
 Total number of CSFs:                     4534566

 Length of J-op  integral file:               0.00 MB
 Length of K-op  integral file:               3.82 MB

 Integral transformation finished. Total CPU:   4.00 sec, npass=  1  Memory used:  10.67 MW

 Memory needed for MP2:                      0.27 MW

 SCS-MP2 correlation energy:           -0.938006737815   (PS=  1.200000  PT=  0.333333)
 SCS-MP2 total energy:               -226.808783574417


  Reference energy                   -225.870776836601
  MP2 singlet pair energy              -0.596503902364
  MP2 triplet pair energy              -0.357110445501
  MP2 correlation energy               -0.953614347865

 !MP2 total energy                   -226.824391184466


 **********************************************************************************************************************************
 DATASETS  * FILE   NREC   LENGTH (MB)   RECORD NAMES
              1      20     1270.85       500      610      700      900      950      970     1000      129      960     1100   
                                          VAR    BASINP    GEOM    SYMINP    ZMAT    AOBASIS   BASIS     P2S    ABASIS      S 
                                         1400     1410     1200     1210     1080     1600     1650     1300     1700     1380   
                                           T        V       H0       H01     AOSYM     SMH    MOLCAS    ERIS     OPER     JKOP   

              2       4        1.41       700     1000      520     2100   
                                         GEOM     BASIS   MCVARS     RHF  

 PROGRAMS   *        TOTAL       MP2    HF-SCF       INT
 CPU TIMES  *        44.46      4.32     26.42     13.63
 REAL TIME  *        77.80 SEC
 DISK USED  *         5.12 GB
 **********************************************************************************************************************************

 Dump information in style XML to xml output                                                                      

 Orbitals will not be exported.

 **********************************************************************************************************************************

 MP2/cc-pVTZ energy=   -226.824391184466

             MP2          HF-SCF
   -226.82439118   -225.87077684
 **********************************************************************************************************************************
 Molpro calculation terminated
