
 Working directory              : /tmp/peterk/molpro.n6ztZZr0qz/
 Global scratch directory       : /tmp/peterk/molpro.n6ztZZr0qz/
 Wavefunction directory         : /home/peterk/wfu/
 Main file repository           : /tmp/peterk/molpro.n6ztZZr0qz/

 id        : peterk

 Nodes     nprocs
 marat        1
 GA implementation: MPI file
 GA implementation (serial work in mppx): MPI file

 Using customized tuning parameters: mindgm=1; mindgv=20; mindgc=4; mindgr=1; noblas=0; minvec=7
 default implementation of scratch files=df  


 Variables initialized (1032), CPU time= 0.00 sec
 
 core,small
 angstrom
 
 geometry={
 C;O,C,1.20430342;H1,C,1.10077162,O,121.78046616;H2,C,1.10077162,O,121.78046616,H1,180
 }
 basis=cc-pCV5Z
 
 
 
 hf; ccsd
 
 
 
 {put,xml;noorbitals,nobasis}
 Commands initialized (841), CPU time= 0.01 sec, 708 directives.
 Default parameters read. Elapsed time= 0.06 sec

 Checking input...
 Passed
1


                                         ***  PROGRAM SYSTEM MOLPRO  ***
                                       Copyright, TTI GmbH Stuttgart, 2015
                                    Version 2023.1 linked Sat Jun 10 08:01:27 2023


 **********************************************************************************************************************************
 LABEL *                                                                                                                                                                 
  (16 PROC) 64 bit serial version                                                        DATE: 12-Jun-23          TIME: 11:46:50  
 **********************************************************************************************************************************

 SHA1:             8376d659ba1296ca7ee514c57770fe2c96af278c
 **********************************************************************************************************************************

 Memory per process:      1074 MW
 Total memory per node:   1074 MW

 GA preallocation disabled
 GA check disabled

 Variable memory set to 1073.7 MW

 ZUNIT=ANG

 SETTING BASIS          =    CC-PCV5Z


 Recomputing integrals since basis changed


 Using spherical harmonics

 Library entry C      S cc-pCV5Z             selected for orbital group  1
 Library entry C      P cc-pCV5Z             selected for orbital group  1
 Library entry C      D cc-pCV5Z             selected for orbital group  1
 Library entry C      F cc-pCV5Z             selected for orbital group  1
 Library entry C      G cc-pCV5Z             selected for orbital group  1
 Library entry C      H cc-pCV5Z             selected for orbital group  1
 Library entry O      S cc-pCV5Z             selected for orbital group  2
 Library entry O      P cc-pCV5Z             selected for orbital group  2
 Library entry O      D cc-pCV5Z             selected for orbital group  2
 Library entry O      F cc-pCV5Z             selected for orbital group  2
 Library entry O      G cc-pCV5Z             selected for orbital group  2
 Library entry O      H cc-pCV5Z             selected for orbital group  2
 Library entry H      S cc-pV5Z              selected for orbital group  3
 Library entry H      P cc-pV5Z              selected for orbital group  3
 Library entry H      D cc-pV5Z              selected for orbital group  3
 Library entry H      F cc-pV5Z              selected for orbital group  3
 Library entry H      G cc-pV5Z              selected for orbital group  3


 PROGRAM * SEWARD (Integral evaluation for generally contracted gaussian basis sets)     Author: Roland Lindh, 1990

 Geometry written to block  1 of record 700

 Orientation using atomic masses  
 Molecule type: Asymmetric top,     Order of principal axis = 2
 Symmetry elements: X,Y
 Rotational constants:      34.2927288     38.9589211    286.3164739 GHz  (calculated with average atomic masses)

 Point group  C2v 



 ATOMIC COORDINATES

 NR  ATOM    CHARGE       X              Y              Z

   1  C       6.00    0.000000000    0.000000000   -1.139102130
   2  O       8.00    0.000000000    0.000000000    1.136701504
   3  H1      1.00    0.000000000    1.768283747   -2.234650061
   4  H2      1.00    0.000000000   -1.768283747   -2.234650061

 Bond lengths in Bohr (Angstrom)

 1-2  2.275803635  1-3  2.080156888  1-4  2.080156888
     ( 1.204303420)     ( 1.100771620)     ( 1.100771620)

 Bond angles

  2-1-3  121.78046616   2-1-4  121.78046616   3-1-4  116.43906768

 NUCLEAR CHARGE:                   16
 NUMBER OF PRIMITIVE AOS:         570
 NUMBER OF SYMMETRY AOS:          440
 NUMBER OF CONTRACTIONS:          400   (  145A1  +   90B1  +  105B2  +   60A2  )
 NUMBER OF INNER CORE ORBITALS:     0   (    0A1  +    0B1  +    0B2  +    0A2  )
 NUMBER OF OUTER CORE ORBITALS:     2   (    2A1  +    0B1  +    0B2  +    0A2  )
 NUMBER OF VALENCE ORBITALS:       10   (    5A1  +    2B1  +    3B2  +    0A2  )


 NUCLEAR REPULSION ENERGY   31.34585015


 Eigenvalues of metric

         1 0.231E-05 0.337E-05 0.394E-04 0.491E-04 0.146E-03 0.287E-03 0.327E-03 0.408E-03
         2 0.398E-03 0.496E-03 0.834E-03 0.111E-02 0.742E-02 0.108E-01 0.258E-01 0.297E-01
         3 0.300E-04 0.164E-03 0.275E-03 0.438E-03 0.479E-03 0.529E-03 0.115E-02 0.280E-02
         4 0.135E-02 0.124E-01 0.205E-01 0.271E-01 0.343E-01 0.507E-01 0.531E-01 0.621E-01


 Contracted 2-electron integrals neglected if value below      1.0D-12
 AO integral compression algorithm  1   Integral accuracy      1.0D-12

     2945.450 MB (compressed) written to integral file ( 37.9%)


 NUMBER OF SORTED TWO-ELECTRON INTEGRALS:  814485100.     BUFFER LENGTH:  32768
 NUMBER OF SEGMENTS:  26  SEGMENT LENGTH:   31997010      RECORD LENGTH: 524288

 Memory used in sort:      32.55 MW

 SORT1 READ   970333714. AND WROTE   594051818. INTEGRALS IN   1711 RECORDS. CPU TIME:    34.74 SEC, REAL TIME:   161.02 SEC
 SORT2 READ   594051818. AND WROTE   814485100. INTEGRALS IN  11236 RECORDS. CPU TIME:     9.59 SEC, REAL TIME:    28.17 SEC

 FILE SIZES:   FILE 1:  2978.9 MBYTE,  FILE 4:  7176.5 MBYTE,   TOTAL:  10155.5 MBYTE

 OPERATOR DM      FOR CENTER  0  COORDINATES:    0.000000    0.000000    0.000000


 **********************************************************************************************************************************
 DATASETS  * FILE   NREC   LENGTH (MB)   RECORD NAMES
              1      19     2495.77       500      610      700      900      950      970     1000      129      960     1100   
                                          VAR    BASINP    GEOM    SYMINP    ZMAT    AOBASIS   BASIS     P2S    ABASIS      S 
                                         1400     1410     1200     1210     1080     1600     1650     1300     1700   
                                           T        V       H0       H01     AOSYM     SMH    MOLCAS    ERIS     OPER   

 PROGRAMS   *        TOTAL       INT
 CPU TIMES  *       170.19    170.07
 REAL TIME  *       321.00 SEC
 DISK USED  *         9.46 GB
 **********************************************************************************************************************************


 Program * Restricted Hartree-Fock

 Orbital guess generated from atomic densities. Full valence occupancy:    7   2   3   0

 Initial occupancy:   5   1   2   0

 NELEC=   16   SYM=1   MS2= 0   THRE=1.0D-08   THRD=3.2D-06   THRG=3.2D-06  HFMA2=F  DIIS_START=2   DIIS_MAX=10   DIIS_INCORE=F

 Level shifts:    0.00 (CLOSED)    0.00 (OPEN)    0.30 (GAP_MIN)

 ITER           ETOT              DE          GRAD        DDIFF     DIIS  NEXP   TIME(IT)  TIME(TOT)  DIAG
   1     -113.87044688    -113.87044688     0.00D+00     0.37D-01     0     0       2.36      4.70    start
   2     -113.89412231      -0.02367544     0.78D-02     0.54D-02     1     0       2.40      7.10    diag
   3     -113.92263506      -0.02851274     0.65D-02     0.26D-02     2     0       2.38      9.48    diag
   4     -113.92307139      -0.00043633     0.53D-03     0.35D-03     3     0       2.32     11.80    diag
   5     -113.92312768      -0.00005629     0.18D-03     0.13D-03     4     0       2.39     14.19    diag
   6     -113.92314034      -0.00001266     0.62D-04     0.66D-04     5     0       2.37     16.56    diag
   7     -113.92314248      -0.00000215     0.29D-04     0.35D-04     6     0       2.34     18.90    diag
   8     -113.92314256      -0.00000008     0.57D-05     0.76D-05     7     0       2.36     21.26    fixocc
   9     -113.92314257      -0.00000000     0.69D-06     0.80D-06     8     0       2.37     23.63    diag
  10     -113.92314257      -0.00000000     0.14D-06     0.13D-06     0     0       2.36     25.99    diag/orth

 Final occupancy:   5   1   2   0

 !RHF STATE 1.1 Energy               -113.923142565277
  RHF One-electron energy            -217.492254949111
  RHF Two-electron energy              72.223262235454
  RHF Kinetic energy                  113.774119910258
  RHF Nuclear energy                   31.345850148379
  RHF Virial quotient                  -1.001309811538

 !RHF STATE 1.1 Dipole moment           0.00000000     0.00000000    -1.11753244
 Dipole moment /Debye                   0.00000000     0.00000000    -2.84048414

 Orbital energies:

           1.1          2.1          3.1          4.1          5.1          6.1          7.1
    -20.575004   -11.340241    -1.406509    -0.870934    -0.652864     0.094757     0.170478

           1.2          2.2          3.2
     -0.537810     0.096271     0.230047

           1.3          2.3          3.3          4.3
     -0.695790    -0.443716     0.128965     0.250082

           1.4          2.4
      0.458156     0.709864


 HOMO      2.3    -0.443716 =     -12.0741eV
 LUMO      6.1     0.094757 =       2.5785eV
 LUMO-HOMO         0.538473 =      14.6526eV

 Orbitals saved in record  2100.2


 **********************************************************************************************************************************
 DATASETS  * FILE   NREC   LENGTH (MB)   RECORD NAMES
              1      19     2495.77       500      610      700      900      950      970     1000      129      960     1100   
                                          VAR    BASINP    GEOM    SYMINP    ZMAT    AOBASIS   BASIS     P2S    ABASIS      S 
                                         1400     1410     1200     1210     1080     1600     1650     1300     1700   
                                           T        V       H0       H01     AOSYM     SMH    MOLCAS    ERIS     OPER   

              2       4        1.14       700     1000      520     2100   
                                         GEOM     BASIS   MCVARS     RHF  

 PROGRAMS   *        TOTAL    HF-SCF       INT
 CPU TIMES  *       196.18     25.99    170.07
 REAL TIME  *       349.55 SEC
 DISK USED  *         9.46 GB
 **********************************************************************************************************************************


 PROGRAM * CCSD (Closed-shell coupled cluster)     Authors: C. Hampel, H.-J. Werner, 1991, M. Deegan, P.J. Knowles, 1992


 CORETYPE=SMALL

 Convergence thresholds:  THRVAR = 1.00D-08  THRDEN = 1.00D-06

 Number of closed-shell orbitals:   8 (   5   1   2   0 )
 Number of external orbitals:     392 ( 140  89 103  60 )

 Molecular orbitals read from record     2100.2  Type=RHF/CANONICAL  

 Number of N-1 electron functions:               8
 Number of N-2 electron functions:              36
 Number of singly external CSFs:               995
 Number of doubly external CSFs:           1279386
 Total number of CSFs:                     1280382

 Length of J-op  integral file:               0.00 MB
 Length of K-op  integral file:               3.07 MB
 Length of 3-ext integral record:             0.00 MB

 Integral transformation finished. Total CPU:   9.21 sec, npass=  1  Memory used:  22.15 MW

 Reference energy:                   -113.92314257

 MP2 singlet pair energy:              -0.38117845
 MP2 triplet pair energy:              -0.16842872
 MP2 correlation energy:               -0.54960717
 MP2 total energy:                   -114.47274974

 SCS-MP2 correlation energy:           -0.56221423   (PS=  1.200000  PT=  0.333333)
 SCS-MP2 total energy:               -114.48535680

 ITER.      SQ.NORM     CORR.ENERGY   TOTAL ENERGY   ENERGY CHANGE        DEN1      VAR(S)    VAR(P)  DIIS     TIME  TIME/IT
   1      1.11385508    -0.55465729  -114.47779985    -0.00505011     0.00950198  0.31D-02  0.25D-02  1  1   213.61     8.19
   2      1.12326500    -0.55469703  -114.47783959    -0.00003974    -0.01168168  0.54D-04  0.40D-03  2  2   221.30     8.16
   3      1.12713050    -0.55491440  -114.47805697    -0.00021737    -0.00173350  0.63D-04  0.39D-04  3  3   229.11     8.21
   4      1.12949039    -0.55481656  -114.47795913     0.00009784    -0.00105126  0.54D-05  0.57D-05  4  4   236.93     8.22
   5      1.13029048    -0.55481596  -114.47795852     0.00000061    -0.00020594  0.16D-05  0.65D-06  5  5   244.75     8.24
   6      1.13057698    -0.55480485  -114.47794741     0.00001111    -0.00002472  0.14D-06  0.48D-07  6  6   252.67     8.28
   7      1.13061552    -0.55480339  -114.47794596     0.00000146     0.00000022  0.18D-07  0.73D-08  6  1   260.63     8.31
   8      1.13062177    -0.55480268  -114.47794525     0.00000071    -0.00000058  0.22D-08  0.99D-09  6  2   268.50     8.32
   9      1.13062369    -0.55480231  -114.47794487     0.00000037     0.00000013  0.20D-09  0.17D-09  6  4   276.55     8.34

 Norm of t1 vector:      0.07508280      S-energy:     0.00000017      T1 diagnostic:  0.01327289
                                                                       D1 diagnostic:  0.04448739
                                                                       D2 diagnostic:  0.17869959 (internal)

 Doubles amplitudes (print threshold =  0.500E-01):

         I         J         SYM. A    SYM. B    A         B      T(IJ, AB)

         6         6         2         2         1         1     -0.08144082


 RESULTS
 =======

  Reference energy                   -113.923142565277

  Correlated core orbitals:             1.1       2.1
  Orbital energies:                   -20.5750  -11.3402

  CCSD core-core energy                -0.082796360432
  CCSD core-valence energy             -0.034258691412
  CCSD valence correlation energy      -0.437747254595

  CCSD singlet pair energy             -0.404873253444
  CCSD triplet pair energy             -0.149929226398
  CCSD correlation energy              -0.554802306439

 !CCSD total energy                  -114.477944871716

 Timing summary (sec):

 STEP                 CPU(USER)    SYS     CPU(TOT)    WALL
 Transformation          9.25      1.18     10.43     10.47
 CCSD iterations       267.34      4.13    271.47     75.20

 Program statistics:

 Available memory in ccsd:              1073741563
 Min. memory needed in ccsd:               3784737
 Max. memory used in ccsd:                 4890520
 Max. memory used in cckext:               6058560 ( 9 integral passes)



 **********************************************************************************************************************************
 DATASETS  * FILE   NREC   LENGTH (MB)   RECORD NAMES
              1      20     2980.69       500      610      700      900      950      970     1000      129      960     1100   
                                          VAR    BASINP    GEOM    SYMINP    ZMAT    AOBASIS   BASIS     P2S    ABASIS      S 
                                         1400     1410     1200     1210     1080     1600     1650     1300     1700     1380   
                                           T        V       H0       H01     AOSYM     SMH    MOLCAS    ERIS     OPER     JKOP   

              2       4        1.14       700     1000      520     2100   
                                         GEOM     BASIS   MCVARS     RHF  

 PROGRAMS   *        TOTAL      CCSD    HF-SCF       INT
 CPU TIMES  *       276.25     80.06     25.99    170.07
 REAL TIME  *       435.34 SEC
 DISK USED  *         9.46 GB
 **********************************************************************************************************************************

 Dump information in style XML to xml output                                                                      

 Orbitals will not be exported.

 **********************************************************************************************************************************

 CCSD/cc-pCV5Z energy=   -114.477944871716

            CCSD          HF-SCF
   -114.47794487   -113.92314257
 **********************************************************************************************************************************
 Molpro calculation terminated
