
 Working directory              : /tmp/peterk/molpro.jxKqkPJe1C/
 Global scratch directory       : /tmp/peterk/molpro.jxKqkPJe1C/
 Wavefunction directory         : /home/peterk/wfu/
 Main file repository           : /tmp/peterk/molpro.jxKqkPJe1C/

 id        : peterk

 Nodes     nprocs
 marat        1
 GA implementation: MPI file
 GA implementation (serial work in mppx): MPI file

 Using customized tuning parameters: mindgm=1; mindgv=20; mindgc=4; mindgr=1; noblas=0; minvec=7
 default implementation of scratch files=df  


 Variables initialized (1032), CPU time= 0.00 sec
 
 core,small
 angstrom
 
 geometry={
 H;F,H,0.91576748
 }
 basis=cc-pCVTZ
 
 
 
 hf; ccsd(t)
 
 
 
 {put,xml;noorbitals,nobasis}
 Commands initialized (841), CPU time= 0.00 sec, 708 directives.
 Default parameters read. Elapsed time= 0.06 sec

 Checking input...
 Passed
1


                                         ***  PROGRAM SYSTEM MOLPRO  ***
                                       Copyright, TTI GmbH Stuttgart, 2015
                                    Version 2023.1 linked Sat Jun 10 08:01:27 2023


 **********************************************************************************************************************************
 LABEL *                                                                                                                                                                 
  (16 PROC) 64 bit serial version                                                        DATE: 12-Jun-23          TIME: 10:32:41  
 **********************************************************************************************************************************

 SHA1:             8376d659ba1296ca7ee514c57770fe2c96af278c
 **********************************************************************************************************************************

 Memory per process:      1074 MW
 Total memory per node:   1074 MW

 GA preallocation disabled
 GA check disabled

 Variable memory set to 1073.7 MW

 ZUNIT=ANG

 SETTING BASIS          =    CC-PCVTZ


 Recomputing integrals since basis changed


 Using spherical harmonics

 Library entry H      S cc-pVTZ              selected for orbital group  1
 Library entry H      P cc-pVTZ              selected for orbital group  1
 Library entry H      D cc-pVTZ              selected for orbital group  1
 Library entry F      S cc-pCVTZ             selected for orbital group  2
 Library entry F      P cc-pCVTZ             selected for orbital group  2
 Library entry F      D cc-pCVTZ             selected for orbital group  2
 Library entry F      F cc-pCVTZ             selected for orbital group  2


 PROGRAM * SEWARD (Integral evaluation for generally contracted gaussian basis sets)     Author: Roland Lindh, 1990

 Geometry written to block  1 of record 700

 Orientation using atomic masses  
 Molecule type: Linear
 Symmetry elements: X,Y
 Rotational constants:     629.5970564    629.5970564      0.0000000 GHz  (calculated with average atomic masses)

 Point group  C2v 



 ATOMIC COORDINATES

 NR  ATOM    CHARGE       X              Y              Z

   1  H       1.00    0.000000000    0.000000000   -1.643362868
   2  F       9.00    0.000000000    0.000000000    0.087186863

 Bond lengths in Bohr (Angstrom)

 1-2  1.730549731
     ( 0.915767480)

 NUCLEAR CHARGE:                   10
 NUMBER OF PRIMITIVE AOS:          78
 NUMBER OF SYMMETRY AOS:           71
 NUMBER OF CONTRACTIONS:           57   (   26A1  +   13B1  +   13B2  +    5A2  )
 NUMBER OF INNER CORE ORBITALS:     0   (    0A1  +    0B1  +    0B2  +    0A2  )
 NUMBER OF OUTER CORE ORBITALS:     1   (    1A1  +    0B1  +    0B2  +    0A2  )
 NUMBER OF VALENCE ORBITALS:        5   (    3A1  +    1B1  +    1B2  +    0A2  )


 NUCLEAR REPULSION ENERGY    5.20065956

 EXTRA SYMMETRY OF AOS IN SYMMETRY 1:   1 1 1 1 1 1 2 1 1 1   1 1 1 1 1 1 1 1 1 2   1 2 1 2 1 2
 EXTRA SYMMETRY OF AOS IN SYMMETRY 2:   1 1 1 1 1 1 1 1 1 1   1 1 2
 EXTRA SYMMETRY OF AOS IN SYMMETRY 3:   1 1 1 1 1 1 1 1 1 1   1 1 2

 Eigenvalues of metric

         1 0.348E-02 0.494E-02 0.888E-02 0.149E-01 0.335E-01 0.747E-01 0.123E+00 0.184E+00
         2 0.277E-01 0.131E+00 0.251E+00 0.383E+00 0.481E+00 0.539E+00 0.978E+00 0.100E+01
         3 0.277E-01 0.131E+00 0.251E+00 0.383E+00 0.481E+00 0.539E+00 0.978E+00 0.100E+01
         4 0.416E+00 0.769E+00 0.974E+00 0.118E+01 0.166E+01


 Contracted 2-electron integrals neglected if value below      1.0D-11
 AO integral compression algorithm  1   Integral accuracy      1.0D-11

     2.359 MB (compressed) written to integral file ( 56.5%)


 NUMBER OF SORTED TWO-ELECTRON INTEGRALS:     376652.     BUFFER LENGTH:  32768
 NUMBER OF SEGMENTS:   1  SEGMENT LENGTH:     376652      RECORD LENGTH: 524288

 Memory used in sort:       0.93 MW

 SORT1 READ      494466. AND WROTE      270508. INTEGRALS IN      1 RECORDS. CPU TIME:     0.01 SEC, REAL TIME:     0.01 SEC
 SORT2 READ      270508. AND WROTE      376652. INTEGRALS IN      9 RECORDS. CPU TIME:     0.01 SEC, REAL TIME:     0.02 SEC

 FILE SIZES:   FILE 1:    32.4 MBYTE,  FILE 4:     4.3 MBYTE,   TOTAL:     36.7 MBYTE

 OPERATOR DM      FOR CENTER  0  COORDINATES:    0.000000    0.000000    0.000000


 **********************************************************************************************************************************
 DATASETS  * FILE   NREC   LENGTH (MB)   RECORD NAMES
              1      19       30.00       500      610      700      900      950      970     1000      129      960     1100   
                                          VAR    BASINP    GEOM    SYMINP    ZMAT    AOBASIS   BASIS     P2S    ABASIS      S 
                                         1400     1410     1200     1210     1080     1600     1650     1300     1700   
                                           T        V       H0       H01     AOSYM     SMH    MOLCAS    ERIS     OPER   

 PROGRAMS   *        TOTAL       INT
 CPU TIMES  *         0.50      0.41
 REAL TIME  *         1.16 SEC
 DISK USED  *        35.31 MB
 **********************************************************************************************************************************


 Program * Restricted Hartree-Fock

 Orbital guess generated from atomic densities. Full valence occupancy:    4   1   1   0

 Initial occupancy:   3   1   1   0

 NELEC=   10   SYM=1   MS2= 0   THRE=1.0D-08   THRD=3.2D-06   THRG=3.2D-06  HFMA2=F  DIIS_START=2   DIIS_MAX=10   DIIS_INCORE=F

 Level shifts:    0.00 (CLOSED)    0.00 (OPEN)    0.30 (GAP_MIN)

 ITER           ETOT              DE          GRAD        DDIFF     DIIS  NEXP   TIME(IT)  TIME(TOT)  DIAG
   1     -100.03171382    -100.03171382     0.00D+00     0.19D+00     0     0       0.00      0.00    start
   2     -100.05229485      -0.02058103     0.20D-01     0.28D-01     1     0       0.00      0.00    diag
   3     -100.05810405      -0.00580920     0.12D-01     0.78D-02     2     0       0.00      0.00    diag
   4     -100.05822872      -0.00012467     0.12D-02     0.13D-02     3     0       0.00      0.00    diag
   5     -100.05824675      -0.00001803     0.37D-03     0.52D-03     4     0       0.01      0.01    diag
   6     -100.05824802      -0.00000127     0.79D-04     0.13D-03     5     0       0.00      0.01    diag
   7     -100.05824805      -0.00000003     0.13D-04     0.22D-04     6     0       0.00      0.01    diag
   8     -100.05824805      -0.00000000     0.13D-05     0.28D-05     7     0       0.00      0.01    fixocc
   9     -100.05824805      -0.00000000     0.14D-06     0.20D-06     0     0       0.00      0.01    diag

 Final occupancy:   3   1   1   0

 !RHF STATE 1.1 Energy               -100.058248054483
  RHF One-electron energy            -150.661309314689
  RHF Two-electron energy              45.402401701813
  RHF Kinetic energy                  100.045675212780
  RHF Nuclear energy                    5.200659558392
  RHF Virial quotient                  -1.000125671017

 !RHF STATE 1.1 Dipole moment           0.00000000     0.00000000    -0.76272533
 Dipole moment /Debye                   0.00000000     0.00000000    -1.93865443

 Orbital energies:

           1.1          2.1          3.1          4.1          5.1
    -26.285536    -1.594746    -0.760967     0.141311     0.562774

           1.2          2.2          3.2
     -0.643502     0.851554     0.987052

           1.3          2.3          3.3
     -0.643502     0.851554     0.987052

           1.4          2.4
      2.226532     3.542874


 HOMO      1.3    -0.643502 =     -17.5106eV
 LUMO      4.1     0.141311 =       3.8453eV
 LUMO-HOMO         0.784812 =      21.3558eV

 Orbitals saved in record  2100.2


 **********************************************************************************************************************************
 DATASETS  * FILE   NREC   LENGTH (MB)   RECORD NAMES
              1      19       30.00       500      610      700      900      950      970     1000      129      960     1100   
                                          VAR    BASINP    GEOM    SYMINP    ZMAT    AOBASIS   BASIS     P2S    ABASIS      S 
                                         1400     1410     1200     1210     1080     1600     1650     1300     1700   
                                           T        V       H0       H01     AOSYM     SMH    MOLCAS    ERIS     OPER   

              2       4        0.40       700     1000      520     2100   
                                         GEOM     BASIS   MCVARS     RHF  

 PROGRAMS   *        TOTAL    HF-SCF       INT
 CPU TIMES  *         0.52      0.02      0.41
 REAL TIME  *         1.18 SEC
 DISK USED  *        35.31 MB
 **********************************************************************************************************************************


 PROGRAM * CCSD (Closed-shell coupled cluster)     Authors: C. Hampel, H.-J. Werner, 1991, M. Deegan, P.J. Knowles, 1992


 CORETYPE=SMALL

 Convergence thresholds:  THRVAR = 1.00D-08  THRDEN = 1.00D-06

 CCSD(T)     terms to be evaluated (factor= 1.000)


 Number of closed-shell orbitals:   5 (   3   1   1   0 )
 Number of external orbitals:      52 (  23  12  12   5 )

 Molecular orbitals read from record     2100.2  Type=RHF/CANONICAL  

 Number of N-1 electron functions:               5
 Number of N-2 electron functions:              15
 Number of singly external CSFs:                93
 Number of doubly external CSFs:              9311
 Total number of CSFs:                        9405

 Length of J-op  integral file:               0.00 MB
 Length of K-op  integral file:               0.13 MB
 Length of 3-ext integral record:             0.00 MB

 Memory could be reduced to 0.37 Mwords without degradation in triples

 Integral transformation finished. Total CPU:   0.00 sec, npass=  1  Memory used:   0.12 MW

 Reference energy:                   -100.05824805

 MP2 singlet pair energy:              -0.21414998
 MP2 triplet pair energy:              -0.11787625
 MP2 correlation energy:               -0.33202623
 MP2 total energy:                   -100.39027429

 SCS-MP2 correlation energy:           -0.33032520   (PS=  1.200000  PT=  0.333333)
 SCS-MP2 total energy:               -100.38857326

 ITER.      SQ.NORM     CORR.ENERGY   TOTAL ENERGY   ENERGY CHANGE        DEN1      VAR(S)    VAR(P)  DIIS     TIME  TIME/IT
   1      1.04794409    -0.33464041  -100.39288847    -0.00261418     0.00214169  0.48D-03  0.60D-03  1  1     0.88     0.01
   2      1.05008195    -0.33466671  -100.39291477    -0.00002630    -0.00404810  0.42D-05  0.59D-04  2  2     0.89     0.01
   3      1.05068090    -0.33470056  -100.39294861    -0.00003385    -0.00055592  0.23D-05  0.31D-05  3  3     0.89     0.01
   4      1.05090854    -0.33468998  -100.39293803     0.00001058    -0.00019155  0.28D-07  0.15D-06  4  4     0.90     0.01
   5      1.05092810    -0.33469020  -100.39293826    -0.00000023    -0.00000841  0.16D-07  0.69D-08  5  5     0.91     0.01
   6      1.05093292    -0.33468987  -100.39293792     0.00000034    -0.00000128  0.15D-08  0.37D-09  6  6     0.91     0.01

 Norm of t1 vector:      0.02595026      S-energy:     0.00000005      T1 diagnostic:  0.00580265
                                                                       D1 diagnostic:  0.01154878
                                                                       D2 diagnostic:  0.11787741 (internal)


 Total CPU time for triples:      0.03 sec


 RESULTS
 =======

  Reference energy                   -100.058248054483

  Correlated core orbitals:             1.1
  Orbital energies:                   -26.2855

  CCSD core-core energy                -0.036269701845
  CCSD core-valence energy             -0.020410547863
  CCSD valence correlation energy      -0.278009616979

  CCSD singlet pair energy             -0.228009897074
  CCSD triplet pair energy             -0.106680021834
  CCSD correlation energy              -0.334689866686

  Triples (T) contribution             -0.006970659861
  Total correlation energy             -0.341660526547

  CCSD total energy                  -100.392937921169
  CCSD[T] energy                     -100.400135764975
  CCSD-T energy                      -100.399760250245
 !CCSD(T) total energy               -100.399908581030

 Timing summary (sec):

 STEP                 CPU(USER)    SYS     CPU(TOT)    WALL
 Transformation          0.01      0.00      0.01      0.01
 CCSD iterations         0.91      0.00      0.91      0.06
 Triples                 0.03      0.00      0.03      0.03

 Program statistics:

 Available memory in ccsd:              1073741721
 Min. memory needed in ccsd:                 41040
 Max. memory used in ccsd:                   47690
 Max. memory used in cckext:                 75554 ( 6 integral passes)



 **********************************************************************************************************************************
 DATASETS  * FILE   NREC   LENGTH (MB)   RECORD NAMES
              1      20       30.90       500      610      700      900      950      970     1000      129      960     1100   
                                          VAR    BASINP    GEOM    SYMINP    ZMAT    AOBASIS   BASIS     P2S    ABASIS      S 
                                         1400     1410     1200     1210     1080     1600     1650     1300     1700     1380   
                                           T        V       H0       H01     AOSYM     SMH    MOLCAS    ERIS     OPER     JKOP   

              2       4        0.40       700     1000      520     2100   
                                         GEOM     BASIS   MCVARS     RHF  

 PROGRAMS   *        TOTAL   CCSD(T)    HF-SCF       INT
 CPU TIMES  *         0.64      0.11      0.02      0.41
 REAL TIME  *         1.30 SEC
 DISK USED  *        35.31 MB
 **********************************************************************************************************************************

 Dump information in style XML to xml output                                                                      

 Orbitals will not be exported.

 **********************************************************************************************************************************

 CCSD(T)/cc-pCVTZ energy=   -100.399908581030

         CCSD(T)          HF-SCF
   -100.39990858   -100.05824805
 **********************************************************************************************************************************
 Molpro calculation terminated
