
 Working directory              : /var/folders/2v/xbgp75_9785319ghcgb4zr4r0000gp/T//molpro.eUrVj1V1cg/
 Global scratch directory       : /var/folders/2v/xbgp75_9785319ghcgb4zr4r0000gp/T//molpro.eUrVj1V1cg/
 Wavefunction directory         : /Users/sacpjk/wfu/
 Main file repository           : /var/folders/2v/xbgp75_9785319ghcgb4zr4r0000gp/T//molpro.eUrVj1V1cg/

 id        : peterk

 Nodes                        nprocs
 Cardiff-University-G34YLXT77Y    1
 GA implementation: MPI file
 GA implementation (serial work in mppx): MPI file

 Using customized tuning parameters: mindgm=1; mindgv=20; mindgc=4; mindgr=1; noblas=0; minvec=7
 default implementation of scratch files=df  


 Variables initialized (1037), CPU time= 0.01 sec
 
 symmetry,nosym
 
 
 geometry={
 8
  c         -0.434803299979    0.316189783769   -0.230664827602
  o         -0.688982357910    1.272292030939   -0.929502575867
  o         -1.382707918986   -0.458150442963    0.337021777401
  h         -2.243707306849   -0.090851455961    0.069250635151
  c          0.940831852973   -0.165260045731    0.119486080121
  h          1.679217666079    0.472290041950   -0.351364243895
  h          1.067042368787   -0.153405320171    1.199521404459
  h          1.063108995886   -1.193104591884   -0.213748249663
 }
 basis=aug-cc-pVTZ
 
 
 
 hf; mp4
 
 
 
 {put,xml;noorbitals,nobasis}
 Commands initialized (841), CPU time= 0.01 sec, 716 directives.
 Default parameters read. Elapsed time= 1.11 sec

 Checking input...
 Passed
1


                                         ***  PROGRAM SYSTEM MOLPRO  ***
                                       Copyright, TTI GmbH Stuttgart, 2015
                                    Version 2023.1 linked Fri Jul 14 07:57:55 2023


 **********************************************************************************************************************************
 LABEL *                                                                                                                                                                 
  64 bit serial version                                                                  DATE: 15-Jul-23          TIME: 13:44:12  
 **********************************************************************************************************************************

 SHA1:             8f90ea6339eadc8ec4622dc21e4296b0c92029f5
 **********************************************************************************************************************************

 Memory per process:      1573 MW
 Total memory per node:   2097 MW
 Total GA space:           524 MW

 GA preallocation disabled
 GA check enabled

 Variable memory set to 1572.9 MW

 ZSYMEL=NOSYM


 Geometry recognized as XYZ

 SETTING BASIS          =    AUG-CC-PVTZ


 Recomputing integrals since basis changed


 Using spherical harmonics

 Library entry C      S aug-cc-pVTZ          selected for orbital group  1
 Library entry C      P aug-cc-pVTZ          selected for orbital group  1
 Library entry C      D aug-cc-pVTZ          selected for orbital group  1
 Library entry C      F aug-cc-pVTZ          selected for orbital group  1
 Library entry O      S aug-cc-pVTZ          selected for orbital group  2
 Library entry O      P aug-cc-pVTZ          selected for orbital group  2
 Library entry O      D aug-cc-pVTZ          selected for orbital group  2
 Library entry O      F aug-cc-pVTZ          selected for orbital group  2
 Library entry H      S aug-cc-pVTZ          selected for orbital group  3
 Library entry H      P aug-cc-pVTZ          selected for orbital group  3
 Library entry H      D aug-cc-pVTZ          selected for orbital group  3


 PROGRAM * SEWARD (Integral evaluation for generally contracted gaussian basis sets)     Author: Roland Lindh, 1990

 Geometry written to block  1 of record 700


 Point group  C1  



 ATOMIC COORDINATES

 NR  ATOM    CHARGE       X              Y              Z

   1  C       6.00   -0.821659155    0.597512095   -0.435893351
   2  O       8.00   -1.301987961    2.404283489   -1.756505301
   3  O       8.00   -2.612939277   -0.865778861    0.636878857
   4  H       1.00   -4.239992314   -0.171684370    0.130864734
   5  C       6.00    1.777914531   -0.312296226    0.225795967
   6  H       1.00    3.173261493    0.892498831   -0.663982191
   7  H       1.00    2.016417840   -0.289894041    2.266766935
   8  H       1.00    2.008984843   -2.254640917   -0.403925651

 Bond lengths in Bohr (Angstrom)

 1-2  2.288919954  1-3  2.549655880  1-5  2.832554904  3-4  1.839869299  5-6  2.047004993
     ( 1.211244277)     ( 1.349219787)     ( 1.498923504)     ( 0.973616904)     ( 1.083228393)

 5-7  2.054981308  5-8  2.054907712
     ( 1.087449277)     ( 1.087410332)

 Bond angles

  1-3-4  106.80191145   1-5-6  109.57256808   1-5-7  109.57389652   1-5-8  109.58561376

  2-1-3  123.25385323   2-1-5  125.51430755   3-1-5  111.23183915   6-5-7  110.25385240

  6-5-8  110.27152505   7-5-8  107.55443570

 NUCLEAR CHARGE:                   32
 NUMBER OF PRIMITIVE AOS:         376
 NUMBER OF SYMMETRY AOS:          332
 NUMBER OF CONTRACTIONS:          276   (  276A   )
 NUMBER OF INNER CORE ORBITALS:     0   (    0A   )
 NUMBER OF OUTER CORE ORBITALS:     4   (    4A   )
 NUMBER OF VALENCE ORBITALS:       20   (   20A   )


 NUCLEAR REPULSION ENERGY  121.22795390


 Eigenvalues of metric

         1 0.205E-04 0.460E-04 0.504E-04 0.809E-04 0.902E-04 0.123E-03 0.200E-03 0.239E-03


 Contracted 2-electron integrals neglected if value below      1.0D-12
 AO integral compression algorithm  1   Integral accuracy      1.0D-12

     3707.240 MB (compressed) written to integral file ( 56.4%)


 NUMBER OF SORTED TWO-ELECTRON INTEGRALS:  730632651.     BUFFER LENGTH:  32768
 NUMBER OF SEGMENTS:  46  SEGMENT LENGTH:   15999984      RECORD LENGTH: 262144

 Memory used in sort:      16.29 MW

 SORT1 READ   822256493. AND WROTE   718470824. INTEGRALS IN   4132 RECORDS. CPU TIME:     5.41 SEC, REAL TIME:     7.76 SEC
 SORT2 READ   718470824. AND WROTE   730632651. INTEGRALS IN  14142 RECORDS. CPU TIME:     3.56 SEC, REAL TIME:     4.93 SEC

 FILE SIZES:   FILE 1:  3740.2 MBYTE,  FILE 4:  8665.5 MBYTE,   TOTAL:  12405.7 MBYTE

 OPERATOR DM      FOR CENTER  0  COORDINATES:    0.000000    0.000000    0.000000


 **********************************************************************************************************************************
 DATASETS  * FILE   NREC   LENGTH (MB)   RECORD NAMES
              1      19     3236.15       500      610      700      900      950      970     1000      129      960     1100   
                                          VAR    BASINP    GEOM    SYMINP    ZMAT    AOBASIS   BASIS     P2S    ABASIS      S 
                                         1400     1410     1200     1210     1080     1600     1650     1300     1700   
                                           T        V       H0       H01     AOSYM     SMH    MOLCAS    ERIS     OPER   

 PROGRAMS   *        TOTAL       INT
 CPU TIMES  *        23.53     23.44
 REAL TIME  *        43.46 SEC
 DISK USED  *        11.55 GB
 **********************************************************************************************************************************


 Program * Restricted Hartree-Fock

 Orbital guess generated from atomic densities. Full valence occupancy:   24

 Initial occupancy:  16

 NELEC=   32   SYM=1   MS2= 0   THRE=1.0D-08   THRD=3.2D-06   THRG=3.2D-06  HFMA2=F  DIIS_START=2   DIIS_MAX=10   DIIS_INCORE=F

 Level shifts:    0.00 (CLOSED)    0.00 (OPEN)    0.30 (GAP_MIN)

 ITER           ETOT              DE          GRAD        DDIFF     DIIS  NEXP   TIME(IT)  TIME(TOT)  DIAG
   1     -227.80271097    -227.80271097     0.00D+00     0.40D-01     0     0       2.79      5.31    start
   2     -227.86708435      -0.06437339     0.52D-02     0.60D-02     1     0       3.02      8.33    diag
   3     -227.90321166      -0.03612731     0.36D-02     0.23D-02     2     0       2.84     11.17    diag
   4     -227.90487613      -0.00166446     0.55D-03     0.55D-03     3     0       2.80     13.97    diag
   5     -227.90517148      -0.00029535     0.23D-03     0.22D-03     4     0       2.87     16.84    diag
   6     -227.90520754      -0.00003606     0.67D-04     0.75D-04     5     0       2.82     19.66    diag
   7     -227.90521441      -0.00000687     0.27D-04     0.36D-04     6     0       2.74     22.40    diag
   8     -227.90521558      -0.00000117     0.10D-04     0.15D-04     7     0       2.76     25.16    fixocc
   9     -227.90521574      -0.00000016     0.35D-05     0.63D-05     8     0       2.78     27.94    diag
  10     -227.90521575      -0.00000001     0.76D-06     0.13D-05     9     0       2.74     30.68    diag/orth
  11     -227.90521575      -0.00000000     0.19D-06     0.23D-06     0     0       2.73     33.41    diag

 Final occupancy:  16

 !RHF STATE 1.1 Energy               -227.905215745710
  RHF One-electron energy            -551.865635724766
  RHF Two-electron energy             202.732466082784
  RHF Kinetic energy                  227.525965538901
  RHF Nuclear energy                  121.227953896272
  RHF Virial quotient                  -1.001666843632

 !RHF STATE 1.1 Dipole moment           0.17174094    -0.63732925     0.46571994
 Dipole moment /Debye                   0.43652192    -1.61992936     1.18374203

 Orbital energies:

           1.1          2.1          3.1          4.1          5.1          6.1          7.1          8.1          9.1         10.1
    -20.617953   -20.551528   -11.390790   -11.245346    -1.467414    -1.362334    -1.030123    -0.826688    -0.707520    -0.682126

          11.1         12.1         13.1         14.1         15.1         16.1         17.1         18.1
     -0.653281    -0.585255    -0.575205    -0.563739    -0.484606    -0.456410     0.027245     0.038576


 HOMO     16.1    -0.456410 =     -12.4195eV
 LUMO     17.1     0.027245 =       0.7414eV
 LUMO-HOMO         0.483654 =      13.1609eV

 Orbitals saved in record  2100.2


 **********************************************************************************************************************************
 DATASETS  * FILE   NREC   LENGTH (MB)   RECORD NAMES
              1      19     3236.15       500      610      700      900      950      970     1000      129      960     1100   
                                          VAR    BASINP    GEOM    SYMINP    ZMAT    AOBASIS   BASIS     P2S    ABASIS      S 
                                         1400     1410     1200     1210     1080     1600     1650     1300     1700   
                                           T        V       H0       H01     AOSYM     SMH    MOLCAS    ERIS     OPER   

              2       4        1.70       700     1000      520     2100   
                                         GEOM     BASIS   MCVARS     RHF  

 PROGRAMS   *        TOTAL    HF-SCF       INT
 CPU TIMES  *        56.94     33.41     23.44
 REAL TIME  *        92.85 SEC
 DISK USED  *        11.55 GB
 **********************************************************************************************************************************


 PROGRAM * MP4 (Closed-shell)     Authors: C. Hampel, H.-J. Werner, 1991, M. Deegan, P.J. Knowles, 1992


 Convergence thresholds:  THRVAR = 1.00D-08  THRDEN = 1.00D-06

 MP4(T)     terms to be evaluated (factor= 0.000)


 Number of core orbitals:           4 (   4 )
 Number of closed-shell orbitals:  12 (  12 )
 Number of external orbitals:     260 ( 260 )

 Molecular orbitals read from record     2100.2  Type=RHF/CANONICAL  

 Number of N-1 electron functions:              12
 Number of N-2 electron functions:              78
 Number of singly external CSFs:              3120
 Number of doubly external CSFs:           4868760
 Total number of CSFs:                     4871881

 Length of J-op  integral file:               0.00 MB
 Length of K-op  integral file:               5.29 MB

 Memory could be reduced to 267.59 Mwords without degradation in triples

 Integral transformation finished. Total CPU:  12.99 sec, npass=  1  Memory used: 148.68 MW

 Reference energy:                   -227.90521575

                        CORR.ENERGY   TOTAL ENERGY   ENERGY CHANGE
 MP2:                   -0.81729348  -228.72250922    -0.81729348

 SCS-MP2 correlation energy:           -0.80439341   (PS=  1.200000  PT=  0.333333)
 SCS-MP2 total energy:               -228.70960915

 MP3(D):                -0.82444272  -228.72965847    -0.00714924
 MP4(DQ):               -0.82375305  -228.72896880     0.00068967
 MP4(SDQ):              -0.83347095  -228.73868670    -0.00971790

 Norm of t1 vector:      0.08606711      S-energy:    -0.00971790      T1 diagnostic:  0.01242272


 Total CPU time for triples:    251.47 sec


 RESULTS
 =======

  Reference energy                   -227.905215745711
  MP4(SDQ) singlet pair energy         -0.544025330256
  MP4(SDQ) triplet pair energy         -0.279727723672
  MP4(SDQ) correlation energy          -0.833470951834

  Triples contribution                 -0.039673800532
  Total correlation energy             -0.873144752366

  MP4(SDQ) total energy              -228.738686697545
 !MP4(SDTQ) total energy             -228.778360498077

 Timing summary (sec):

 STEP                 CPU(USER)    SYS     CPU(TOT)    WALL
 Transformation         13.17      2.48     15.65     19.61
 CCSD iterations        72.45      1.08     73.53     19.15
 Triples               251.47     15.24    266.71    289.60

 Program statistics:

 Available memory in ccsd:              1572863408
 Min. memory needed in ccsd:              12604519
 Max. memory used in ccsd:                16966327
 Max. memory used in cckext:              12544424 ( 1 integral passes)



 **********************************************************************************************************************************
 DATASETS  * FILE   NREC   LENGTH (MB)   RECORD NAMES
              1      20     4113.06       500      610      700      900      950      970     1000      129      960     1100   
                                          VAR    BASINP    GEOM    SYMINP    ZMAT    AOBASIS   BASIS     P2S    ABASIS      S 
                                         1400     1410     1200     1210     1080     1600     1650     1300     1700     1380   
                                           T        V       H0       H01     AOSYM     SMH    MOLCAS    ERIS     OPER     JKOP   

              2       4        1.70       700     1000      520     2100   
                                         GEOM     BASIS   MCVARS     RHF  

 PROGRAMS   *        TOTAL       MP4    HF-SCF       INT
 CPU TIMES  *       337.00    280.06     33.41     23.44
 REAL TIME  *       421.76 SEC
 DISK USED  *        11.55 GB
 **********************************************************************************************************************************

 Dump information in style XML to xml output                                                                      

 Orbitals will not be exported.

 **********************************************************************************************************************************

 MP4/aug-cc-pVTZ energy=   -228.778360498077

             MP4          HF-SCF
   -228.77836050   -227.90521575
 **********************************************************************************************************************************
 Molpro calculation terminated
