
 Working directory              : /var/folders/2v/xbgp75_9785319ghcgb4zr4r0000gp/T//molpro.gGXzlEweLZ/
 Global scratch directory       : /var/folders/2v/xbgp75_9785319ghcgb4zr4r0000gp/T//molpro.gGXzlEweLZ/
 Wavefunction directory         : /Users/sacpjk/wfu/
 Main file repository           : /var/folders/2v/xbgp75_9785319ghcgb4zr4r0000gp/T//molpro.gGXzlEweLZ/

 id        : peterk

 Nodes                        nprocs
 Cardiff-University-G34YLXT77Y    1
 GA implementation: MPI file
 GA implementation (serial work in mppx): MPI file

 Using customized tuning parameters: mindgm=1; mindgv=20; mindgc=4; mindgr=1; noblas=0; minvec=7
 default implementation of scratch files=df  


 Variables initialized (1032), CPU time= 0.00 sec
 
 core,small
 angstrom
 
 geometry={
 F;F,F,1.41134168
 }
 basis=cc-pCVQZ
 
 
 
 hf; ccsd(t)
 
 
 
 {put,xml;noorbitals,nobasis}
 Commands initialized (841), CPU time= 0.01 sec, 704 directives.
 Default parameters read. Elapsed time= 3.99 sec

 Checking input...
 Passed
1


                                         ***  PROGRAM SYSTEM MOLPRO  ***
                                       Copyright, TTI GmbH Stuttgart, 2015
                                    Version 2023.1 linked Tue Jun  6 09:54:11 2023


 **********************************************************************************************************************************
 LABEL *                                                                                                                                                                 
  64 bit serial version                                                                  DATE: 12-Jun-23          TIME: 10:55:09  
 **********************************************************************************************************************************

 SHA1:             8ebb0dd001088a5c915591db1a321413035db0b1
 **********************************************************************************************************************************

 Memory per process:       393 MW
 Total memory per node:    524 MW
 Total GA space:           131 MW

 GA preallocation disabled
 GA check enabled

 Variable memory set to 393.2 MW

 ZUNIT=ANG

 SETTING BASIS          =    CC-PCVQZ


 Recomputing integrals since basis changed


 Using spherical harmonics

 Library entry F      S cc-pCVQZ             selected for orbital group  1
 Library entry F      P cc-pCVQZ             selected for orbital group  1
 Library entry F      D cc-pCVQZ             selected for orbital group  1
 Library entry F      F cc-pCVQZ             selected for orbital group  1
 Library entry F      G cc-pCVQZ             selected for orbital group  1


 PROGRAM * SEWARD (Integral evaluation for generally contracted gaussian basis sets)     Author: Roland Lindh, 1990

 Geometry written to block  1 of record 700

 Orientation using atomic masses  
 Molecule type: Linear
 Symmetry elements: X,Y,Z
 Rotational constants:      26.7094998     26.7094998      0.0000000 GHz  (calculated with average atomic masses)

 Point group  D2h 



 ATOMIC COORDINATES

 NR  ATOM    CHARGE       X              Y              Z

   1  F       9.00    0.000000000    0.000000000   -1.333524622
   2  F       9.00    0.000000000    0.000000000    1.333524622

 Bond lengths in Bohr (Angstrom)

 1-2  2.667049243
     ( 1.411341680)

 NUCLEAR CHARGE:                   18
 NUMBER OF PRIMITIVE AOS:         234
 NUMBER OF SYMMETRY AOS:          194
 NUMBER OF CONTRACTIONS:          168   (   34Ag  +   20B3u +   20B2u +   10B1g +   34B1u +   20B2g +   20B3g +   10Au  )
 NUMBER OF INNER CORE ORBITALS:     0   (    0Ag  +    0B3u +    0B2u +    0B1g +    0B1u +    0B2g +    0B3g +    0Au  )
 NUMBER OF OUTER CORE ORBITALS:     2   (    1Ag  +    0B3u +    0B2u +    0B1g +    1B1u +    0B2g +    0B3g +    0Au  )
 NUMBER OF VALENCE ORBITALS:        8   (    2Ag  +    1B3u +    1B2u +    0B1g +    2B1u +    1B2g +    1B3g +    0Au  )


 NUCLEAR REPULSION ENERGY   30.37064284

 EXTRA SYMMETRY OF AOS IN SYMMETRY 1:   1 1 1 1 1 1 1 1 1 1   1 1 1 1 1 1 2 1 2 1   2 1 2 1 2 1 2 1 2 1   2 1 3 2
 EXTRA SYMMETRY OF AOS IN SYMMETRY 2:   1 1 1 1 1 1 1 1 1 1   1 1 1 2 1 2 1 2 1 2
 EXTRA SYMMETRY OF AOS IN SYMMETRY 3:   1 1 1 1 1 1 1 1 1 1   1 1 1 2 1 2 1 2 1 2
 EXTRA SYMMETRY OF AOS IN SYMMETRY 4:   1 1 1 1 1 1 1 1 1 2
 EXTRA SYMMETRY OF AOS IN SYMMETRY 5:   1 1 1 1 1 1 1 1 1 1   1 1 1 1 1 1 2 1 2 1   2 1 2 1 2 1 2 1 2 1   2 1 3 2
 EXTRA SYMMETRY OF AOS IN SYMMETRY 6:   1 1 1 1 1 1 1 1 1 1   1 1 1 2 1 2 1 2 1 2
 EXTRA SYMMETRY OF AOS IN SYMMETRY 7:   1 1 1 1 1 1 1 1 1 1   1 1 1 2 1 2 1 2 1 2
 EXTRA SYMMETRY OF AOS IN SYMMETRY 8:   1 1 1 1 1 1 1 1 1 2

 Eigenvalues of metric

         1 0.265E-04 0.161E-02 0.265E-02 0.275E-01 0.556E-01 0.938E-01 0.123E+00 0.162E+00
         2 0.277E-02 0.114E+00 0.158E+00 0.166E+00 0.433E+00 0.485E+00 0.519E+00 0.634E+00
         3 0.277E-02 0.114E+00 0.158E+00 0.166E+00 0.433E+00 0.485E+00 0.519E+00 0.634E+00
         4 0.167E+00 0.431E+00 0.516E+00 0.861E+00 0.993E+00 0.100E+01 0.103E+01 0.147E+01
         5 0.260E-04 0.139E-02 0.232E-02 0.518E-02 0.200E-01 0.490E-01 0.924E-01 0.134E+00
         6 0.271E-02 0.919E-01 0.981E-01 0.142E+00 0.230E+00 0.415E+00 0.471E+00 0.487E+00
         7 0.271E-02 0.919E-01 0.981E-01 0.142E+00 0.230E+00 0.415E+00 0.471E+00 0.487E+00
         8 0.154E+00 0.387E+00 0.441E+00 0.786E+00 0.968E+00 0.994E+00 0.100E+01 0.140E+01


 Contracted 2-electron integrals neglected if value below      1.0D-12
 AO integral compression algorithm  1   Integral accuracy      1.0D-12

     99.877 MB (compressed) written to integral file ( 50.9%)


 NUMBER OF SORTED TWO-ELECTRON INTEGRALS:   13085170.     BUFFER LENGTH:  32768
 NUMBER OF SEGMENTS:   1  SEGMENT LENGTH:   13085170      RECORD LENGTH: 524288

 Memory used in sort:      13.64 MW

 SORT1 READ    24541824. AND WROTE    10366967. INTEGRALS IN     30 RECORDS. CPU TIME:     0.32 SEC, REAL TIME:     0.38 SEC
 SORT2 READ    10366967. AND WROTE    13085170. INTEGRALS IN    381 RECORDS. CPU TIME:     0.26 SEC, REAL TIME:     0.28 SEC

 FILE SIZES:   FILE 1:   130.6 MBYTE,  FILE 4:   125.9 MBYTE,   TOTAL:    256.5 MBYTE

 OPERATOR DM      FOR CENTER  0  COORDINATES:    0.000000    0.000000    0.000000


 **********************************************************************************************************************************
 DATASETS  * FILE   NREC   LENGTH (MB)   RECORD NAMES
              1      19       81.27       500      610      700      900      950      970     1000      129      960     1100   
                                          VAR    BASINP    GEOM    SYMINP    ZMAT    AOBASIS   BASIS     P2S    ABASIS      S 
                                         1400     1410     1200     1210     1080     1600     1650     1300     1700   
                                           T        V       H0       H01     AOSYM     SMH    MOLCAS    ERIS     OPER   

 PROGRAMS   *        TOTAL       INT
 CPU TIMES  *         2.06      1.97
 REAL TIME  *         7.78 SEC
 DISK USED  *       244.95 MB
 **********************************************************************************************************************************


 Program * Restricted Hartree-Fock

 Orbital guess generated from atomic densities. Full valence occupancy:    3   1   1   0   3   1   1   0


 Initial occupancy:   3   1   1   0   2   1   1   0

 NELEC=   18   SYM=1   MS2= 0   THRE=1.0D-08   THRD=3.2D-06   THRG=3.2D-06  HFMA2=F  DIIS_START=2   DIIS_MAX=10   DIIS_INCORE=F

 Level shifts:    0.00 (CLOSED)    0.00 (OPEN)    0.30 (GAP_MIN)

 ITER           ETOT              DE          GRAD        DDIFF     DIIS  NEXP   TIME(IT)  TIME(TOT)  DIAG
   1     -198.74201395    -198.74201395     0.00D+00     0.13D+00     0     0       0.02      0.04    start
   2     -198.76598665      -0.02397270     0.15D-01     0.84D-02     1     0       0.01      0.05    diag
   3     -198.76844860      -0.00246194     0.51D-02     0.25D-02     2     0       0.02      0.07    diag
   4     -198.76855310      -0.00010451     0.74D-03     0.60D-03     3     0       0.02      0.09    diag
   5     -198.76855993      -0.00000682     0.19D-03     0.13D-03     4     0       0.01      0.10    diag
   6     -198.76856021      -0.00000028     0.37D-04     0.25D-04     5     0       0.02      0.12    diag
   7     -198.76856022      -0.00000001     0.62D-05     0.35D-05     6     0       0.02      0.14    diag
   8     -198.76856022      -0.00000000     0.40D-06     0.26D-06     7     0       0.01      0.15    fixocc
   9     -198.76856022       0.00000000     0.45D-07     0.33D-07     0     0       0.02      0.17    diag

 Final occupancy:   3   1   1   0   2   1   1   0

 !RHF STATE 1.1 Energy               -198.768560217027
  RHF One-electron energy            -338.637862671050
  RHF Two-electron energy             109.498659617808
  RHF Kinetic energy                  198.580223882156
  RHF Nuclear energy                   30.370642836215
  RHF Virial quotient                  -1.000948414355

 !RHF STATE 1.1 Dipole moment           0.00000000     0.00000000     0.00000000
 Dipole moment /Debye                   0.00000000     0.00000000     0.00000000

 Orbital energies:

           1.1          2.1          3.1          4.1          5.1
    -26.427547    -1.764362    -0.751203     0.685625     0.783360

           1.2          2.2          3.2
     -0.810661     0.640992     1.418784

           1.3          2.3          3.3
     -0.810661     0.640992     1.418784

           1.4          2.4
      1.434155     4.122748

           1.5          2.5          3.5          4.5
    -26.427300    -1.496850     0.088272     0.578168

           1.6          2.6          3.6
     -0.665844     0.753221     2.200430

           1.7          2.7          3.7
     -0.665844     0.753221     2.200430

           1.8          2.8
      1.730868     4.915491


 HOMO      1.7    -0.665844 =     -18.1185eV
 LUMO      3.5     0.088272 =       2.4020eV
 LUMO-HOMO         0.754116 =      20.5206eV

 Orbitals saved in record  2100.2


 **********************************************************************************************************************************
 DATASETS  * FILE   NREC   LENGTH (MB)   RECORD NAMES
              1      19       81.27       500      610      700      900      950      970     1000      129      960     1100   
                                          VAR    BASINP    GEOM    SYMINP    ZMAT    AOBASIS   BASIS     P2S    ABASIS      S 
                                         1400     1410     1200     1210     1080     1600     1650     1300     1700   
                                           T        V       H0       H01     AOSYM     SMH    MOLCAS    ERIS     OPER   

              2       4        0.47       700     1000      520     2100   
                                         GEOM     BASIS   MCVARS     RHF  

 PROGRAMS   *        TOTAL    HF-SCF       INT
 CPU TIMES  *         2.23      0.17      1.97
 REAL TIME  *         9.00 SEC
 DISK USED  *       244.95 MB
 **********************************************************************************************************************************


 PROGRAM * CCSD (Closed-shell coupled cluster)     Authors: C. Hampel, H.-J. Werner, 1991, M. Deegan, P.J. Knowles, 1992


 CORETYPE=SMALL

 Convergence thresholds:  THRVAR = 1.00D-08  THRDEN = 1.00D-06

 CCSD(T)     terms to be evaluated (factor= 1.000)


 Number of closed-shell orbitals:   9 (   3   1   1   0   2   1   1   0 )
 Number of external orbitals:     159 (  31  19  19  10  32  19  19  10 )

 Molecular orbitals read from record     2100.2  Type=RHF/CANONICAL  

 Number of N-1 electron functions:               9
 Number of N-2 electron functions:              45
 Number of singly external CSFs:               233
 Number of doubly external CSFs:            134482
 Total number of CSFs:                      134716

 Length of J-op  integral file:               0.00 MB
 Length of K-op  integral file:               0.34 MB
 Length of 3-ext integral record:             0.00 MB

 Memory could be reduced to 6.33 Mwords without degradation in triples

 Integral transformation finished. Total CPU:   0.09 sec, npass=  1  Memory used:   1.82 MW

 Reference energy:                   -198.76856022

 MP2 singlet pair energy:              -0.46118522
 MP2 triplet pair energy:              -0.23550655
 MP2 correlation energy:               -0.69669177
 MP2 total energy:                   -199.46525199

 SCS-MP2 correlation energy:           -0.69995968   (PS=  1.200000  PT=  0.333333)
 SCS-MP2 total energy:               -199.46851989

 ITER.      SQ.NORM     CORR.ENERGY   TOTAL ENERGY   ENERGY CHANGE        DEN1      VAR(S)    VAR(P)  DIIS     TIME  TIME/IT
   1      1.10759964    -0.69743411  -199.46599433    -0.00074234     0.01631854  0.23D-02  0.24D-02  1  1     2.57     0.20
   2      1.11698849    -0.69717442  -199.46573464     0.00025969    -0.01348204  0.49D-04  0.41D-03  2  2     2.70     0.23
   3      1.12099317    -0.69729239  -199.46585261    -0.00011797    -0.00220154  0.16D-04  0.42D-04  3  3     2.83     0.22
   4      1.12323426    -0.69728110  -199.46584132     0.00001128    -0.00110294  0.20D-06  0.35D-05  4  4     2.97     0.24
   5      1.12363240    -0.69728463  -199.46584485    -0.00000352    -0.00013038  0.13D-06  0.50D-06  5  5     3.11     0.25
   6      1.12370346    -0.69728686  -199.46584708    -0.00000224     0.00000274  0.31D-08  0.11D-06  6  6     3.25     0.24
   7      1.12371312    -0.69728913  -199.46584935    -0.00000226    -0.00000123  0.11D-08  0.18D-07  6  2     3.38     0.25
   8      1.12371476    -0.69728793  -199.46584815     0.00000120     0.00000091  0.80D-09  0.11D-08  6  1     3.50     0.25
   9      1.12371584    -0.69728788  -199.46584809     0.00000005    -0.00000084  0.11D-09  0.90D-10  6  3     3.63     0.25
  10      1.12371564    -0.69728790  -199.46584812    -0.00000003     0.00000050  0.73D-11  0.91D-11  6  4     3.76     0.25

 Norm of t1 vector:      0.05922102      S-energy:     0.00000014      T1 diagnostic:  0.00987017
                                                                       D1 diagnostic:  0.02946741
                                                                       D2 diagnostic:  0.21484696 (external, symmetry=5)

 Doubles amplitudes (print threshold =  0.500E-01):

         I         J         SYM. A    SYM. B    A         B      T(IJ, AB)

         3         3         5         5         1         1     -0.15747378
         3         3         5         5         1         2      0.05410146
         3         3         5         5         2         1      0.05410146


 Total CPU time for triples:      1.40 sec


 RESULTS
 =======

  Reference energy                   -198.768560217028

  Correlated core orbitals:             1.1       1.5
  Orbital energies:                   -26.4275  -26.4273

  CCSD core-core energy                -0.078887166988
  CCSD core-valence energy             -0.045713250759
  CCSD valence correlation energy      -0.572687486352

  CCSD singlet pair energy             -0.488702889453
  CCSD triplet pair energy             -0.208585158344
  CCSD correlation energy              -0.697287904099

  Triples (T) contribution             -0.022249122319
  Total correlation energy             -0.719537026418

  CCSD total energy                  -199.465848121126
  CCSD[T] energy                     -199.488920852972
  CCSD-T energy                      -199.487763164648
 !CCSD(T) total energy               -199.488097243446

 Timing summary (sec):

 STEP                 CPU(USER)    SYS     CPU(TOT)    WALL
 Transformation          0.09      0.02      0.11      0.31
 CCSD iterations         3.68      0.14      3.82      2.62
 Triples                 1.40      0.12      1.52      1.61

 Program statistics:

 Available memory in ccsd:               393215673
 Min. memory needed in ccsd:                393834
 Max. memory used in ccsd:                  509524
 Max. memory used in cckext:                435761 (10 integral passes)



 **********************************************************************************************************************************
 DATASETS  * FILE   NREC   LENGTH (MB)   RECORD NAMES
              1      20      101.05       500      610      700      900      950      970     1000      129      960     1100   
                                          VAR    BASINP    GEOM    SYMINP    ZMAT    AOBASIS   BASIS     P2S    ABASIS      S 
                                         1400     1410     1200     1210     1080     1600     1650     1300     1700     1380   
                                           T        V       H0       H01     AOSYM     SMH    MOLCAS    ERIS     OPER     JKOP   

              2       4        0.47       700     1000      520     2100   
                                         GEOM     BASIS   MCVARS     RHF  

 PROGRAMS   *        TOTAL   CCSD(T)    HF-SCF       INT
 CPU TIMES  *         5.08      2.85      0.17      1.97
 REAL TIME  *        13.72 SEC
 DISK USED  *       244.95 MB
 **********************************************************************************************************************************

 Dump information in style XML to xml output                                                                      

 Orbitals will not be exported.

 **********************************************************************************************************************************

 CCSD(T)/cc-pCVQZ energy=   -199.488097243446

         CCSD(T)          HF-SCF
   -199.48809724   -198.76856022
 **********************************************************************************************************************************
 Molpro calculation terminated
