
 Working directory              : /var/folders/2v/xbgp75_9785319ghcgb4zr4r0000gp/T//molpro.rxAlXfj4Ql/
 Global scratch directory       : /var/folders/2v/xbgp75_9785319ghcgb4zr4r0000gp/T//molpro.rxAlXfj4Ql/
 Wavefunction directory         : /Users/sacpjk/wfu/
 Main file repository           : /var/folders/2v/xbgp75_9785319ghcgb4zr4r0000gp/T//molpro.rxAlXfj4Ql/

 id        : peterk

 Nodes                        nprocs
 Cardiff-University-G34YLXT77Y    1
 GA implementation: MPI file
 GA implementation (serial work in mppx): MPI file

 Using customized tuning parameters: mindgm=1; mindgv=20; mindgc=4; mindgr=1; noblas=0; minvec=7
 default implementation of scratch files=df  


 Variables initialized (1037), CPU time= 0.00 sec
 
 symmetry,nosym
 
 
 geometry={
 3
  o         -0.393279494201    0.003953021781    0.000000000000
  h          0.189026010864   -0.758658480198    0.000000000000
  h          0.204253483337    0.754705458417    0.000000000000
 }
 basis=aug-cc-pVTZ
 
 
 
 hf; hf; papt; mp3
 
 
 
 {put,xml;noorbitals,nobasis}
 Commands initialized (841), CPU time= 0.01 sec, 716 directives.
 Default parameters read. Elapsed time= 1.85 sec

 Checking input...
 Passed
1


                                         ***  PROGRAM SYSTEM MOLPRO  ***
                                       Copyright, TTI GmbH Stuttgart, 2015
                                    Version 2023.1 linked Fri Jul 14 07:57:55 2023


 **********************************************************************************************************************************
 LABEL *                                                                                                                                                                 
  64 bit serial version                                                                  DATE: 15-Jul-23          TIME: 23:54:22  
 **********************************************************************************************************************************

 SHA1:             8f90ea6339eadc8ec4622dc21e4296b0c92029f5
 **********************************************************************************************************************************

 Memory per process:      1573 MW
 Total memory per node:   2097 MW
 Total GA space:           524 MW

 GA preallocation disabled
 GA check enabled

 Variable memory set to 1572.9 MW

 ZSYMEL=NOSYM


 Geometry recognized as XYZ

 SETTING BASIS          =    AUG-CC-PVTZ


 Recomputing integrals since basis changed


 Using spherical harmonics

 Library entry O      S aug-cc-pVTZ          selected for orbital group  1
 Library entry O      P aug-cc-pVTZ          selected for orbital group  1
 Library entry O      D aug-cc-pVTZ          selected for orbital group  1
 Library entry O      F aug-cc-pVTZ          selected for orbital group  1
 Library entry H      S aug-cc-pVTZ          selected for orbital group  2
 Library entry H      P aug-cc-pVTZ          selected for orbital group  2
 Library entry H      D aug-cc-pVTZ          selected for orbital group  2


 PROGRAM * SEWARD (Integral evaluation for generally contracted gaussian basis sets)     Author: Roland Lindh, 1990

 Geometry written to block  1 of record 700


 Point group  C1  



 ATOMIC COORDINATES

 NR  ATOM    CHARGE       X              Y              Z

   1  O       8.00   -0.743190534    0.007470129    0.000000000
   2  H       1.00    0.357207391   -1.433656750    0.000000000
   3  H       1.00    0.385983144    1.426186621    0.000000000

 Bond lengths in Bohr (Angstrom)

 1-2  1.813207730  1-3  1.813226318
     ( 0.959508210)     ( 0.959518046)

 Bond angles

  2-1-3  104.11910812

 NUCLEAR CHARGE:                   10
 NUMBER OF PRIMITIVE AOS:         121
 NUMBER OF SYMMETRY AOS:          108
 NUMBER OF CONTRACTIONS:           92   (   92A   )
 NUMBER OF INNER CORE ORBITALS:     0   (    0A   )
 NUMBER OF OUTER CORE ORBITALS:     1   (    1A   )
 NUMBER OF VALENCE ORBITALS:        6   (    6A   )


 NUCLEAR REPULSION ENERGY    9.17374720

 EXTRA SYMMETRY OF AOS IN SYMMETRY 1:   1 1 1 1 1 1 1 2 1 1   2 1 1 2 1 1 2 1 1 2   1 2 1 1 2 1 2 1 1 2   1 2 1 1 2 1 2 1 2 1
                                        1 2 1 2 1 2 1 1 1 1   1 1 2 1 1 2 1 1 2 1   1 2 1 2 1 1 2 1 2 1   1 1 1 1 1 2 1 1 2 1
                                        1 2 1 1 2 1 2 1 1 2   1 2

 Eigenvalues of metric

         1 0.386E-03 0.396E-03 0.166E-02 0.187E-02 0.322E-02 0.509E-02 0.560E-02 0.598E-02


 Contracted 2-electron integrals neglected if value below      1.0D-11
 AO integral compression algorithm  1   Integral accuracy      1.0D-11

     28.836 MB (compressed) written to integral file ( 29.9%)


 NUMBER OF SORTED TWO-ELECTRON INTEGRALS:    9152781.     BUFFER LENGTH:  32768
 NUMBER OF SEGMENTS:   1  SEGMENT LENGTH:    9152781      RECORD LENGTH: 524288

 Memory used in sort:       9.71 MW

 SORT1 READ    11938930. AND WROTE     4389784. INTEGRALS IN     13 RECORDS. CPU TIME:     0.05 SEC, REAL TIME:     0.08 SEC
 SORT2 READ     4389784. AND WROTE     9152781. INTEGRALS IN    110 RECORDS. CPU TIME:     0.10 SEC, REAL TIME:     0.24 SEC

 FILE SIZES:   FILE 1:    59.2 MBYTE,  FILE 4:    54.6 MBYTE,   TOTAL:    113.8 MBYTE

 OPERATOR DM      FOR CENTER  0  COORDINATES:    0.000000    0.000000    0.000000


 **********************************************************************************************************************************
 DATASETS  * FILE   NREC   LENGTH (MB)   RECORD NAMES
              1      19       49.53       500      610      700      900      950      970     1000      129      960     1100   
                                          VAR    BASINP    GEOM    SYMINP    ZMAT    AOBASIS   BASIS     P2S    ABASIS      S 
                                         1400     1410     1200     1210     1080     1600     1650     1300     1700   
                                           T        V       H0       H01     AOSYM     SMH    MOLCAS    ERIS     OPER   

 PROGRAMS   *        TOTAL       INT
 CPU TIMES  *         0.53      0.43
 REAL TIME  *        18.07 SEC
 DISK USED  *       108.86 MB
 **********************************************************************************************************************************


 Program * Restricted Hartree-Fock

 Orbital guess generated from atomic densities. Full valence occupancy:    7

 Initial occupancy:   5

 NELEC=   10   SYM=1   MS2= 0   THRE=1.0D-08   THRD=3.2D-06   THRG=3.2D-06  HFMA2=F  DIIS_START=2   DIIS_MAX=10   DIIS_INCORE=F

 Level shifts:    0.00 (CLOSED)    0.00 (OPEN)    0.30 (GAP_MIN)

 ITER           ETOT              DE          GRAD        DDIFF     DIIS  NEXP   TIME(IT)  TIME(TOT)  DIAG
   1      -76.02255233     -76.02255233     0.00D+00     0.67D-01     0     0       0.04      0.08    start
   2      -76.04934720      -0.02679487     0.10D-01     0.11D-01     1     0       0.03      0.11    diag
   3      -76.06022460      -0.01087740     0.64D-02     0.39D-02     2     0       0.04      0.15    diag
   4      -76.06040615      -0.00018155     0.60D-03     0.51D-03     3     0       0.04      0.19    diag
   5      -76.06042393      -0.00001778     0.16D-03     0.15D-03     4     0       0.04      0.23    diag
   6      -76.06042494      -0.00000101     0.30D-04     0.37D-04     5     0       0.04      0.27    diag
   7      -76.06042499      -0.00000005     0.58D-05     0.98D-05     6     0       0.04      0.31    diag
   8      -76.06042499      -0.00000000     0.11D-05     0.17D-05     7     0       0.04      0.35    fixocc
   9      -76.06042499      -0.00000000     0.13D-06     0.14D-06     0     0       0.04      0.39    diag

 Final occupancy:   5

 !RHF STATE 1.1 Energy                -76.060424987157
  RHF One-electron energy            -123.004569577308
  RHF Two-electron energy              37.770397392169
  RHF Kinetic energy                   75.950395623462
  RHF Nuclear energy                    9.173747197981
  RHF Virial quotient                  -1.001448700336

 !RHF STATE 1.1 Dipole moment           0.78324683    -0.00787448     0.00000000
 Dipole moment /Debye                   1.99081487    -0.02001494     0.00000000

 Orbital energies:

           1.1          2.1          3.1          4.1          5.1          6.1          7.1
    -20.567766    -1.352712    -0.715831    -0.585285    -0.510290     0.029390     0.047700


 HOMO      5.1    -0.510290 =     -13.8857eV
 LUMO      6.1     0.029390 =       0.7997eV
 LUMO-HOMO         0.539680 =      14.6854eV

 Orbitals saved in record  2100.2


 **********************************************************************************************************************************
 DATASETS  * FILE   NREC   LENGTH (MB)   RECORD NAMES
              1      19       49.53       500      610      700      900      950      970     1000      129      960     1100   
                                          VAR    BASINP    GEOM    SYMINP    ZMAT    AOBASIS   BASIS     P2S    ABASIS      S 
                                         1400     1410     1200     1210     1080     1600     1650     1300     1700   
                                           T        V       H0       H01     AOSYM     SMH    MOLCAS    ERIS     OPER   

              2       4        0.55       700     1000      520     2100   
                                         GEOM     BASIS   MCVARS     RHF  

 PROGRAMS   *        TOTAL    HF-SCF       INT
 CPU TIMES  *         0.92      0.39      0.43
 REAL TIME  *        21.55 SEC
 DISK USED  *       108.86 MB
 **********************************************************************************************************************************


 Program * Restricted Hartree-Fock

 Molecular orbitals read from record     2100.2  Type=RHF/CANONICAL  

 Initial occupancy:   5

 NELEC=   10   SYM=1   MS2= 0   THRE=1.0D-08   THRD=3.2D-06   THRG=3.2D-06  HFMA2=F  DIIS_START=2   DIIS_MAX=10   DIIS_INCORE=F

 Level shifts:    0.00 (CLOSED)    0.00 (OPEN)    0.30 (GAP_MIN)

 ITER           ETOT              DE          GRAD        DDIFF     DIIS  NEXP   TIME(IT)  TIME(TOT)  DIAG
   1      -76.06042499     -76.06042499     0.00D+00     0.68D-01     0     0       0.04      0.04    start
   2      -76.06042499      -0.00000000     0.55D-07     0.56D-07     1     0       0.04      0.08    diag

 Final occupancy:   5

 !RHF STATE 1.1 Energy                -76.060424987160
  RHF One-electron energy            -123.004574066344
  RHF Two-electron energy              37.770401881202
  RHF Kinetic energy                   75.950400417846
  RHF Nuclear energy                    9.173747197981
  RHF Virial quotient                  -1.001448637120

 !RHF STATE 1.1 Dipole moment           0.78324669    -0.00787448     0.00000000
 Dipole moment /Debye                   1.99081452    -0.02001494     0.00000000

 Orbital energies:

           1.1          2.1          3.1          4.1          5.1          6.1          7.1
    -20.567767    -1.352713    -0.715831    -0.585285    -0.510291     0.029390     0.047700


 HOMO      5.1    -0.510291 =     -13.8857eV
 LUMO      6.1     0.029390 =       0.7997eV
 LUMO-HOMO         0.539681 =      14.6855eV

 Orbitals saved in record  2101.2


 **********************************************************************************************************************************
 DATASETS  * FILE   NREC   LENGTH (MB)   RECORD NAMES
              1      19       49.53       500      610      700      900      950      970     1000      129      960     1100   
                                          VAR    BASINP    GEOM    SYMINP    ZMAT    AOBASIS   BASIS     P2S    ABASIS      S 
                                         1400     1410     1200     1210     1080     1600     1650     1300     1700   
                                           T        V       H0       H01     AOSYM     SMH    MOLCAS    ERIS     OPER   

              2       5        0.88       700     1000      520     2100     2101   
                                         GEOM     BASIS   MCVARS     RHF      RHF  

 PROGRAMS   *        TOTAL    HF-SCF    HF-SCF       INT
 CPU TIMES  *         1.01      0.08      0.39      0.43
 REAL TIME  *        23.20 SEC
 DISK USED  *       108.86 MB
 **********************************************************************************************************************************


 PROGRAM * PAPT (Closed-shell)     Authors: C. Hampel, H.-J. Werner, 1991, P.J. Knowles, 2021


 Convergence thresholds:  THRVAR = 1.00D-08  THRDEN = 1.00D-06

 Number of core orbitals:           1 (   1 )
 Number of closed-shell orbitals:   4 (   4 )
 Number of external orbitals:      87 (  87 )

 Molecular orbitals read from record     2101.2  Type=RHF/CANONICAL  

 Number of N-1 electron functions:               4
 Number of N-2 electron functions:              10
 Number of singly external CSFs:               348
 Number of doubly external CSFs:             60726
 Total number of CSFs:                       61075

 Length of J-op  integral file:               0.00 MB
 Length of K-op  integral file:               0.64 MB

 Integral transformation finished. Total CPU:   0.05 sec, npass=  1  Memory used:   0.33 MW

 Reference energy:                    -76.06042499

                        CORR.ENERGY   TOTAL ENERGY   ENERGY CHANGE
 MP2:                   -0.26856088   -76.32898587    -0.26856088

 SCS-MP2 correlation energy:           -0.26577859   (PS=  1.200000  PT=  0.333333)
 SCS-MP2 total energy:                -76.32620358
 Iteration:   1     0.2138D+00
 Iteration:   2     0.1930D+00
 Iteration:   3     0.8258D-01
 Iteration:   4     0.1570D-01
 Iteration:   5     0.2398D-01
 Iteration:   6     0.6088D-02
 Iteration:   7     0.2926D-02
 Iteration:   8     0.1807D-01
 Iteration:   9     0.6403D-03
 Iteration:  10     0.7743D-03
 Iteration:  11     0.3215D-03
 Iteration:  12     0.8256D-04
 PAPT operator written to  7000.1
 PAPT orbitals and eigenvalues written to  7000.2

 MP3(D):                -0.27119919   -76.33162418    -0.00263831



 RESULTS
 =======

  Reference energy                    -76.060424987160
  MP3 singlet pair energy              -0.182032492449
  MP3 triplet pair energy              -0.089166697753
  MP3 correlation energy               -0.271199190202

 !MP3 total energy                    -76.331624177362

 Timing summary (sec):

 STEP                 CPU(USER)    SYS     CPU(TOT)    WALL
 Transformation          0.05      0.01      0.06      0.77
 CCSD iterations         1.26      0.03      1.29      2.35

 Program statistics:

 Available memory in ccsd:              1572863931
 Min. memory needed in ccsd:                288418
 Max. memory used in ccsd:                  330600
 Max. memory used in cckext:                240690 ( 1 integral passes)



 **********************************************************************************************************************************
 DATASETS  * FILE   NREC   LENGTH (MB)   RECORD NAMES
              1      21       50.66       500      610      700      900      950      970     1000      129      960     1100   
                                          VAR    BASINP    GEOM    SYMINP    ZMAT    AOBASIS   BASIS     P2S    ABASIS      S 
                                         1400     1410     1200     1210     1080     1600     1650     1300     1700     1380   
                                           T        V       H0       H01     AOSYM     SMH    MOLCAS    ERIS     OPER     JKOP   
                                         7000   
                                        PAPT AO    

              2       6        1.17       700     1000      520     2100     2101     7000   
                                         GEOM     BASIS   MCVARS     RHF      RHF     PAPT   

 PROGRAMS   *        TOTAL      PAPT    HF-SCF    HF-SCF       INT
 CPU TIMES  *         1.21      0.21      0.08      0.39      0.43
 REAL TIME  *        26.99 SEC
 DISK USED  *       108.86 MB
 **********************************************************************************************************************************


 PROGRAM * MP3 (Closed-shell)     Authors: C. Hampel, H.-J. Werner, 1991, M. Deegan, P.J. Knowles, 1992


 Convergence thresholds:  THRVAR = 1.00D-08  THRDEN = 1.00D-06

 Number of core orbitals:           1 (   1 )
 Number of closed-shell orbitals:   4 (   4 )
 Number of external orbitals:      87 (  87 )

 Molecular orbitals read from record     7000.2  Type=PAPT/CANONICAL (state 1.1)

 Number of N-1 electron functions:               4
 Number of N-2 electron functions:              10
 Number of singly external CSFs:               348
 Number of doubly external CSFs:             60726
 Total number of CSFs:                       61075

 Length of J-op  integral file:               0.00 MB
 Length of K-op  integral file:               0.64 MB

 Integral transformation finished. Total CPU:   0.04 sec, npass=  1  Memory used:   0.33 MW
 Orbital energies read from record       7000.2  Type=PAPT/CANONICAL (state 1.1)

 Reference energy:                    -76.06042499

                        CORR.ENERGY   TOTAL ENERGY   ENERGY CHANGE
 MP2:                   -0.27304433   -76.33346932    -0.27304433

 SCS-MP2 correlation energy:           -0.27090727   (PS=  1.200000  PT=  0.333333)
 SCS-MP2 total energy:                -76.33133225

 MP3(D):                -0.27311618   -76.33354116    -0.00007184



 RESULTS
 =======

  Reference energy                    -76.060424987160
  MP3 singlet pair energy              -0.183407183173
  MP3 triplet pair energy              -0.089708992105
  MP3 correlation energy               -0.273116175278

 !MP3 total energy                    -76.333541162438

 Timing summary (sec):

 STEP                 CPU(USER)    SYS     CPU(TOT)    WALL
 Transformation          0.09      0.01      0.10      1.13
 CCSD iterations         1.39      0.01      1.40      1.06

 Program statistics:

 Available memory in ccsd:              1572863931
 Min. memory needed in ccsd:                288418
 Max. memory used in ccsd:                  330600
 Max. memory used in cckext:                240690 ( 1 integral passes)



 **********************************************************************************************************************************
 DATASETS  * FILE   NREC   LENGTH (MB)   RECORD NAMES
              1      21       50.66       500      610      700      900      950      970     1000      129      960     1100   
                                          VAR    BASINP    GEOM    SYMINP    ZMAT    AOBASIS   BASIS     P2S    ABASIS      S 
                                         1400     1410     1200     1210     1080     1600     1650     1300     1700     1380   
                                           T        V       H0       H01     AOSYM     SMH    MOLCAS    ERIS     OPER     JKOP   
                                         7000   
                                        PAPT AO    

              2       6        1.17       700     1000      520     2100     2101     7000   
                                         GEOM     BASIS   MCVARS     RHF      RHF     PAPT   

 PROGRAMS   *        TOTAL       MP3      PAPT    HF-SCF    HF-SCF       INT
 CPU TIMES  *         1.38      0.17      0.21      0.08      0.39      0.43
 REAL TIME  *        29.96 SEC
 DISK USED  *       108.86 MB
 **********************************************************************************************************************************

 Dump information in style XML to xml output                                                                      

 Orbitals will not be exported.

 **********************************************************************************************************************************

 MP3/aug-cc-pVTZ energy=    -76.333541162438

             MP3            PAPT          HF-SCF          HF-SCF
    -76.33354116    -76.33162418    -76.06042499    -76.06042499
 **********************************************************************************************************************************
 Molpro calculation terminated
