
 Working directory              : /var/folders/2v/xbgp75_9785319ghcgb4zr4r0000gp/T//molpro.v0BwvveBYg/
 Global scratch directory       : /var/folders/2v/xbgp75_9785319ghcgb4zr4r0000gp/T//molpro.v0BwvveBYg/
 Wavefunction directory         : /Users/sacpjk/wfu/
 Main file repository           : /var/folders/2v/xbgp75_9785319ghcgb4zr4r0000gp/T//molpro.v0BwvveBYg/

 id        : peterk

 Nodes                        nprocs
 Cardiff-University-G34YLXT77Y    1
 GA implementation: MPI file
 GA implementation (serial work in mppx): MPI file

 Using customized tuning parameters: mindgm=1; mindgv=20; mindgc=4; mindgr=1; noblas=0; minvec=7
 default implementation of scratch files=df  


 Variables initialized (1032), CPU time= 0.00 sec
 
 symmetry,nosym
 
 
 geometry={
           11
     C         -1.03666222      1.00226747      0.00000000
     C         -0.99802842     -0.37323986      0.00000000
     C          1.15125899     -0.89785440      0.00000000
     N          1.59581209      0.37970345      0.00000000
     N          1.23898727      1.47513174      0.00000000
     H         -1.16993317      1.56007075     -0.91825218
     H         -1.16993317      1.56007075      0.91825218
     H         -1.19957230     -0.92033561     -0.91402853
     H         -1.19957230     -0.92033561      0.91402853
     H          1.39382161     -1.43273935      0.91491930
     H          1.39382161     -1.43273935     -0.91491930
 }
 basis=cc-pVDZ
 
 
 
 hf; hf; papt; mp4
 
 
 
 {put,xml;noorbitals,nobasis}
 Commands initialized (841), CPU time= 0.01 sec, 704 directives.
 Default parameters read. Elapsed time= 0.96 sec

 Checking input...
 Passed
1


                                         ***  PROGRAM SYSTEM MOLPRO  ***
                                       Copyright, TTI GmbH Stuttgart, 2015
                                    Version 2023.1 linked Tue Jun  6 09:54:11 2023


 **********************************************************************************************************************************
 LABEL *                                                                                                                                                                 
  64 bit serial version                                                                  DATE: 11-Jun-23          TIME: 14:04:11  
 **********************************************************************************************************************************

 SHA1:             8ebb0dd001088a5c915591db1a321413035db0b1
 **********************************************************************************************************************************

 Memory per process:       393 MW
 Total memory per node:    524 MW
 Total GA space:           131 MW

 GA preallocation disabled
 GA check enabled

 Variable memory set to 393.2 MW

 ZSYMEL=NOSYM


 Geometry recognized as XYZ

 SETTING BASIS          =    CC-PVDZ


 Recomputing integrals since basis changed


 Using spherical harmonics

 Library entry C      S cc-pVDZ              selected for orbital group  1
 Library entry C      P cc-pVDZ              selected for orbital group  1
 Library entry C      D cc-pVDZ              selected for orbital group  1
 Library entry N      S cc-pVDZ              selected for orbital group  2
 Library entry N      P cc-pVDZ              selected for orbital group  2
 Library entry N      D cc-pVDZ              selected for orbital group  2
 Library entry H      S cc-pVDZ              selected for orbital group  3
 Library entry H      P cc-pVDZ              selected for orbital group  3


 PROGRAM * SEWARD (Integral evaluation for generally contracted gaussian basis sets)     Author: Roland Lindh, 1990

 Geometry written to block  1 of record 700


 Point group  C1  



 ATOMIC COORDINATES

 NR  ATOM    CHARGE       X              Y              Z

   1  C       6.00   -1.959007680    1.894011022    0.000000000
   2  C       6.00   -1.886000378   -0.705321114    0.000000000
   3  C       6.00    2.175564190   -1.696698916    0.000000000
   4  N       7.00    3.015647796    0.717535529    0.000000000
   5  N       7.00    2.341346612    2.787594986    0.000000000
   6  H       1.00   -2.210853275    2.948106453   -1.735245134
   7  H       1.00   -2.210853275    2.948106453    1.735245134
   8  H       1.00   -2.266863114   -1.739182246   -1.727263592
   9  H       1.00   -2.266863114   -1.739182246    1.727263592
  10  H       1.00    2.633941109   -2.707484979    1.728946903
  11  H       1.00    2.633941109   -2.707484979   -1.728946903

 Bond lengths in Bohr (Angstrom)

 1-2  2.600357210  1-6  2.045878553  1-7  2.045878553  2-8  2.048747124  2-9  2.048747124
     ( 1.376049776)     ( 1.082632307)     ( 1.082632307)     ( 1.084150289)     ( 1.084150289)

  3- 4  2.556221513   3-10  2.054520689   3-11  2.054520689   4- 5  2.177114660
       ( 1.352694170)       ( 1.087205528)       ( 1.087205528)       ( 1.152079464)

 Bond angles

  1-2-8  119.94792439   1-2-9  119.94792439   2-1-6  121.23046507   2-1-7  121.23046507

  3- 4- 5  142.77108279   4- 3-10  113.03738549   4- 3-11  113.03738549   6- 1- 7  116.02555382

  8- 2- 9  114.93421732  10- 3-11  114.60470712

 NUCLEAR CHARGE:                   38
 NUMBER OF PRIMITIVE AOS:         177
 NUMBER OF SYMMETRY AOS:          172
 NUMBER OF CONTRACTIONS:          100   (  100A   )
 NUMBER OF INNER CORE ORBITALS:     0   (    0A   )
 NUMBER OF OUTER CORE ORBITALS:     5   (    5A   )
 NUMBER OF VALENCE ORBITALS:       26   (   26A   )


 NUCLEAR REPULSION ENERGY  161.45551786


 Eigenvalues of metric

         1 0.281E-02 0.391E-02 0.660E-02 0.132E-01 0.147E-01 0.185E-01 0.272E-01 0.276E-01


 Contracted 2-electron integrals neglected if value below      1.0D-11
 AO integral compression algorithm  1   Integral accuracy      1.0D-11

     51.118 MB (compressed) written to integral file ( 45.2%)


 NUMBER OF SORTED TWO-ELECTRON INTEGRALS:   12753775.     BUFFER LENGTH:  32768
 NUMBER OF SEGMENTS:   1  SEGMENT LENGTH:   12753775      RECORD LENGTH: 524288

 Memory used in sort:      13.31 MW

 SORT1 READ    14147500. AND WROTE    11094550. INTEGRALS IN     32 RECORDS. CPU TIME:     0.09 SEC, REAL TIME:     0.11 SEC
 SORT2 READ    11094550. AND WROTE    12753775. INTEGRALS IN    195 RECORDS. CPU TIME:     0.12 SEC, REAL TIME:     0.15 SEC

 FILE SIZES:   FILE 1:    81.7 MBYTE,  FILE 4:   134.3 MBYTE,   TOTAL:    215.9 MBYTE

 OPERATOR DM      FOR CENTER  0  COORDINATES:    0.000000    0.000000    0.000000


 **********************************************************************************************************************************
 DATASETS  * FILE   NREC   LENGTH (MB)   RECORD NAMES
              1      19       72.82       500      610      700      900      950      970     1000      129      960     1100   
                                          VAR    BASINP    GEOM    SYMINP    ZMAT    AOBASIS   BASIS     P2S    ABASIS      S 
                                         1400     1410     1200     1210     1080     1600     1650     1300     1700   
                                           T        V       H0       H01     AOSYM     SMH    MOLCAS    ERIS     OPER   

 PROGRAMS   *        TOTAL       INT
 CPU TIMES  *         0.94      0.84
 REAL TIME  *         3.82 SEC
 DISK USED  *       206.45 MB
 **********************************************************************************************************************************


 Program * Restricted Hartree-Fock

 Orbital guess generated from atomic densities. Full valence occupancy:   31

 Initial occupancy:  19

 NELEC=   38   SYM=1   MS2= 0   THRE=1.0D-08   THRD=3.2D-06   THRG=3.2D-06  HFMA2=F  DIIS_START=2   DIIS_MAX=10   DIIS_INCORE=F

 Level shifts:    0.00 (CLOSED)    0.00 (OPEN)    0.30 (GAP_MIN)

 ITER           ETOT              DE          GRAD        DDIFF     DIIS  NEXP   TIME(IT)  TIME(TOT)  DIAG
   1     -225.74186792    -225.74186792     0.00D+00     0.11D+00     0     0       0.05      0.10    start
   2     -225.80479427      -0.06292635     0.69D-02     0.16D-01     1     0       0.06      0.16    diag
   3     -225.84167091      -0.03687664     0.50D-02     0.72D-02     2     0       0.05      0.21    diag
   4     -225.84352125      -0.00185034     0.84D-03     0.20D-02     3     0       0.05      0.26    diag
   5     -225.84402793      -0.00050668     0.51D-03     0.79D-03     4     0       0.06      0.32    diag
   6     -225.84415957      -0.00013164     0.16D-03     0.41D-03     5     0       0.05      0.37    diag
   7     -225.84421582      -0.00005624     0.80D-04     0.28D-03     6     0       0.05      0.42    diag
   8     -225.84424365      -0.00002783     0.51D-04     0.28D-03     7     0       0.06      0.48    fixocc
   9     -225.84424636      -0.00000271     0.16D-04     0.10D-03     8     0       0.05      0.53    diag
  10     -225.84424649      -0.00000013     0.51D-05     0.15D-04     9     0       0.06      0.59    diag/orth
  11     -225.84424652      -0.00000003     0.21D-05     0.77D-05     9     0       0.05      0.64    diag
  12     -225.84424652      -0.00000000     0.77D-06     0.26D-05     9     0       0.06      0.70    diag
  13     -225.84424652      -0.00000000     0.28D-06     0.64D-06     0     0       0.05      0.75    diag

 Final occupancy:  19

 !RHF STATE 1.1 Energy               -225.844246520603
  RHF One-electron energy            -624.653382486552
  RHF Two-electron energy             237.353618103579
  RHF Kinetic energy                  225.421317371333
  RHF Nuclear energy                  161.455517862370
  RHF Virial quotient                  -1.001876171935

 !RHF STATE 1.1 Dipole moment           0.20034480    -0.79984739     0.00000000
 Dipole moment /Debye                   0.50922569    -2.03300929     0.00000000

 Orbital energies:

           1.1          2.1          3.1          4.1          5.1          6.1          7.1          8.1          9.1         10.1
    -15.688125   -15.662338   -11.291109   -11.233041   -11.221421    -1.430129    -1.079096    -1.012871    -0.789337    -0.758293

          11.1         12.1         13.1         14.1         15.1         16.1         17.1         18.1         19.1         20.1
     -0.669310    -0.658070    -0.623498    -0.616036    -0.563186    -0.526529    -0.487157    -0.368412    -0.295087     0.129396

          21.1
      0.145336


 HOMO     19.1    -0.295087 =      -8.0297eV
 LUMO     20.1     0.129396 =       3.5210eV
 LUMO-HOMO         0.424483 =      11.5508eV

 Orbitals saved in record  2100.2


 **********************************************************************************************************************************
 DATASETS  * FILE   NREC   LENGTH (MB)   RECORD NAMES
              1      19       72.82       500      610      700      900      950      970     1000      129      960     1100   
                                          VAR    BASINP    GEOM    SYMINP    ZMAT    AOBASIS   BASIS     P2S    ABASIS      S 
                                         1400     1410     1200     1210     1080     1600     1650     1300     1700   
                                           T        V       H0       H01     AOSYM     SMH    MOLCAS    ERIS     OPER   

              2       4        0.71       700     1000      520     2100   
                                         GEOM     BASIS   MCVARS     RHF  

 PROGRAMS   *        TOTAL    HF-SCF       INT
 CPU TIMES  *         1.69      0.75      0.84
 REAL TIME  *         6.09 SEC
 DISK USED  *       206.45 MB
 **********************************************************************************************************************************


 Program * Restricted Hartree-Fock

 Molecular orbitals read from record     2100.2  Type=RHF/CANONICAL  

 Initial occupancy:  19

 NELEC=   38   SYM=1   MS2= 0   THRE=1.0D-08   THRD=3.2D-06   THRG=3.2D-06  HFMA2=F  DIIS_START=2   DIIS_MAX=10   DIIS_INCORE=F

 Level shifts:    0.00 (CLOSED)    0.00 (OPEN)    0.30 (GAP_MIN)

 ITER           ETOT              DE          GRAD        DDIFF     DIIS  NEXP   TIME(IT)  TIME(TOT)  DIAG
   1     -225.84424652    -225.84424652     0.00D+00     0.11D+00     0     0       0.06      0.06    start
   2     -225.84424652      -0.00000000     0.13D-06     0.35D-06     1     0       0.05      0.11    diag

 Final occupancy:  19

 !RHF STATE 1.1 Energy               -225.844246520717
  RHF One-electron energy            -624.653417773189
  RHF Two-electron energy             237.353653390101
  RHF Kinetic energy                  225.421333749210
  RHF Nuclear energy                  161.455517862370
  RHF Virial quotient                  -1.001876099145

 !RHF STATE 1.1 Dipole moment           0.20032456    -0.79985437    -0.00000000
 Dipole moment /Debye                   0.50917424    -2.03302703    -0.00000000

 Orbital energies:

           1.1          2.1          3.1          4.1          5.1          6.1          7.1          8.1          9.1         10.1
    -15.688130   -15.662340   -11.291108   -11.233047   -11.221421    -1.430131    -1.079097    -1.012873    -0.789338    -0.758293

          11.1         12.1         13.1         14.1         15.1         16.1         17.1         18.1         19.1         20.1
     -0.669310    -0.658071    -0.623499    -0.616037    -0.563188    -0.526530    -0.487158    -0.368413    -0.295088     0.129394

          21.1
      0.145335


 HOMO     19.1    -0.295088 =      -8.0298eV
 LUMO     20.1     0.129394 =       3.5210eV
 LUMO-HOMO         0.424483 =      11.5508eV

 Orbitals saved in record  2101.2


 **********************************************************************************************************************************
 DATASETS  * FILE   NREC   LENGTH (MB)   RECORD NAMES
              1      19       72.82       500      610      700      900      950      970     1000      129      960     1100   
                                          VAR    BASINP    GEOM    SYMINP    ZMAT    AOBASIS   BASIS     P2S    ABASIS      S 
                                         1400     1410     1200     1210     1080     1600     1650     1300     1700   
                                           T        V       H0       H01     AOSYM     SMH    MOLCAS    ERIS     OPER   

              2       5        1.08       700     1000      520     2100     2101   
                                         GEOM     BASIS   MCVARS     RHF      RHF  

 PROGRAMS   *        TOTAL    HF-SCF    HF-SCF       INT
 CPU TIMES  *         1.82      0.11      0.75      0.84
 REAL TIME  *         7.68 SEC
 DISK USED  *       206.45 MB
 **********************************************************************************************************************************


 PROGRAM * PAPT (Closed-shell)     Authors: C. Hampel, H.-J. Werner, 1991, P.J. Knowles, 2021


 Convergence thresholds:  THRVAR = 1.00D-08  THRDEN = 1.00D-06

 Number of core orbitals:           5 (   5 )
 Number of closed-shell orbitals:  14 (  14 )
 Number of external orbitals:      81 (  81 )

 Molecular orbitals read from record     2101.2  Type=RHF/CANONICAL  

 Number of N-1 electron functions:              14
 Number of N-2 electron functions:             105
 Number of singly external CSFs:              1134
 Number of doubly external CSFs:            643545
 Total number of CSFs:                      644680

 Length of J-op  integral file:               0.00 MB
 Length of K-op  integral file:               0.75 MB

 Integral transformation finished. Total CPU:   0.13 sec, npass=  1  Memory used:   1.96 MW

 Reference energy:                   -225.84424652

                        CORR.ENERGY   TOTAL ENERGY   ENERGY CHANGE
 MP2:                   -0.78303816  -226.62728468    -0.78303816

 SCS-MP2 correlation energy:           -0.76430675   (PS=  1.200000  PT=  0.333333)
 SCS-MP2 total energy:               -226.60855327
 Iteration:   1     0.4036D+00
 Iteration:   2     0.8188D+00
 Iteration:   3     0.1280D+00
 Iteration:   4     0.9297D-01
 Iteration:   5     0.4184D-01
 Iteration:   6     0.3212D-01
 Iteration:   7     0.7051D-01
 Iteration:   8     0.9900D-02
 Iteration:   9     0.2129D-01
 Iteration:  10     0.4664D-02
 Iteration:  11     0.7956D-02
 Iteration:  12     0.2530D-02
 Iteration:  13     0.2791D-02
 Iteration:  14     0.3328D-02
 Iteration:  15     0.1131D-02
 Iteration:  16     0.3908D-02
 Iteration:  17     0.5997D-03
 Iteration:  18     0.6346D-03
 Iteration:  19     0.3494D-03
 Iteration:  20     0.2317D-03
 Iteration:  21     0.5288D-03
 Iteration:  22     0.7460D-04
 PAPT operator written to  7000.1
 PAPT orbitals and eigenvalues written to  7000.2

 MP3(D):                -0.79624960  -226.64049612    -0.01321144



 RESULTS
 =======

  Reference energy                   -225.844246520717
  MP3 singlet pair energy              -0.527932490562
  MP3 triplet pair energy              -0.268317112594
  MP3 correlation energy               -0.796249603156

 !MP3 total energy                   -226.640496123874

 Timing summary (sec):

 STEP                 CPU(USER)    SYS     CPU(TOT)    WALL
 Transformation          0.16      0.02      0.18      0.33
 CCSD iterations         4.81      0.11      4.92      5.65

 Program statistics:

 Available memory in ccsd:               393215197
 Min. memory needed in ccsd:               1768432
 Max. memory used in ccsd:                 2318471
 Max. memory used in cckext:               2233634 ( 1 integral passes)



 **********************************************************************************************************************************
 DATASETS  * FILE   NREC   LENGTH (MB)   RECORD NAMES
              1      21       85.07       500      610      700      900      950      970     1000      129      960     1100   
                                          VAR    BASINP    GEOM    SYMINP    ZMAT    AOBASIS   BASIS     P2S    ABASIS      S 
                                         1400     1410     1200     1210     1080     1600     1650     1300     1700     1380   
                                           T        V       H0       H01     AOSYM     SMH    MOLCAS    ERIS     OPER     JKOP   
                                         7000   
                                        PAPT AO    

              2       6        1.40       700     1000      520     2100     2101     7000   
                                         GEOM     BASIS   MCVARS     RHF      RHF     PAPT   

 PROGRAMS   *        TOTAL      PAPT    HF-SCF    HF-SCF       INT
 CPU TIMES  *         4.87      3.05      0.11      0.75      0.84
 REAL TIME  *        14.32 SEC
 DISK USED  *       206.45 MB
 **********************************************************************************************************************************


 PROGRAM * MP4 (Closed-shell)     Authors: C. Hampel, H.-J. Werner, 1991, M. Deegan, P.J. Knowles, 1992


 Convergence thresholds:  THRVAR = 1.00D-08  THRDEN = 1.00D-06

 MP4(T)     terms to be evaluated (factor= 0.000)


 Number of core orbitals:           5 (   5 )
 Number of closed-shell orbitals:  14 (  14 )
 Number of external orbitals:      81 (  81 )

 Molecular orbitals read from record     7000.2  Type=PAPT/CANONICAL (state 1.1)

 Number of N-1 electron functions:              14
 Number of N-2 electron functions:             105
 Number of singly external CSFs:              1134
 Number of doubly external CSFs:            643545
 Total number of CSFs:                      644680

 Length of J-op  integral file:               0.00 MB
 Length of K-op  integral file:               0.75 MB

 Memory could be reduced to 10.53 Mwords without degradation in triples

 Integral transformation finished. Total CPU:   0.37 sec, npass=  1  Memory used:   9.53 MW
 Orbital energies read from record       7000.2  Type=PAPT/CANONICAL (state 1.1)

 Reference energy:                   -225.84424652

                        CORR.ENERGY   TOTAL ENERGY   ENERGY CHANGE
 MP2:                   -0.80747348  -226.65172000    -0.80747348

 SCS-MP2 correlation energy:           -0.79461458   (PS=  1.200000  PT=  0.333333)
 SCS-MP2 total energy:               -226.63886111

 MP3(D):                -0.80764278  -226.65188930    -0.00016930
 MP4(DQ):               -0.79945049  -226.64369701     0.00819228
 MP4(SDQ):              -0.80688682  -226.65113334    -0.00743633

 Norm of t1 vector:      0.07529165      S-energy:    -0.00743633      T1 diagnostic:  0.01006127

 Largest off-diagonal element in interal  block of Fock matrix:  0.19D+00
 Largest off-diagonal element in external block of Fock matrix:  0.14D+00


 Total CPU time for triples:      6.32 sec


 RESULTS
 =======

  Reference energy                   -225.844246520717
  MP4(SDQ) singlet pair energy         -0.528584087228
  MP4(SDQ) triplet pair energy         -0.270866404370
  MP4(SDQ) correlation energy          -0.806886817237

  Triples contribution                 -0.041680938999
  Total correlation energy             -0.848567756236

  MP4(SDQ) total energy              -226.651133337955
 !MP4(SDTQ) total energy             -226.692814276954

 Timing summary (sec):

 STEP                 CPU(USER)    SYS     CPU(TOT)    WALL
 Transformation          0.44      0.05      0.49      0.75
 CCSD iterations         6.09      0.03      6.12      1.52
 Triples                 6.32      0.40      6.72      6.97

 Program statistics:

 Available memory in ccsd:               393215197
 Min. memory needed in ccsd:               1768432
 Max. memory used in ccsd:                 2318471
 Max. memory used in cckext:               2233634 ( 1 integral passes)



 **********************************************************************************************************************************
 DATASETS  * FILE   NREC   LENGTH (MB)   RECORD NAMES
              1      22      113.80       500      610      700      900      950      970     1000      129      960     1100   
                                          VAR    BASINP    GEOM    SYMINP    ZMAT    AOBASIS   BASIS     P2S    ABASIS      S 
                                         1400     1410     1200     1210     1080     1600     1650     1300     1700     1380   
                                           T        V       H0       H01     AOSYM     SMH    MOLCAS    ERIS     OPER     JKOP   
                                         7000     1380(1)
                                        PAPT AO   JKOP   

              2       6        1.40       700     1000      520     2100     2101     7000   
                                         GEOM     BASIS   MCVARS     RHF      RHF     PAPT   

 PROGRAMS   *        TOTAL       MP4      PAPT    HF-SCF    HF-SCF       INT
 CPU TIMES  *        12.75      7.88      3.05      0.11      0.75      0.84
 REAL TIME  *        24.69 SEC
 DISK USED  *       206.45 MB
 **********************************************************************************************************************************

 Dump information in style XML to xml output                                                                      

 Orbitals will not be exported.

 **********************************************************************************************************************************

 MP4/cc-pVDZ energy=   -226.692814276954

             MP4            PAPT          HF-SCF          HF-SCF
   -226.69281428   -226.64049612   -225.84424652   -225.84424652
 **********************************************************************************************************************************
 Molpro calculation terminated
