
 Working directory              : /var/folders/2v/xbgp75_9785319ghcgb4zr4r0000gp/T//molpro.aNy4Z7MoUr/
 Global scratch directory       : /var/folders/2v/xbgp75_9785319ghcgb4zr4r0000gp/T//molpro.aNy4Z7MoUr/
 Wavefunction directory         : /Users/sacpjk/wfu/
 Main file repository           : /var/folders/2v/xbgp75_9785319ghcgb4zr4r0000gp/T//molpro.aNy4Z7MoUr/

 id        : peterk

 Nodes                        nprocs
 Cardiff-University-G34YLXT77Y    1
 GA implementation: MPI file
 GA implementation (serial work in mppx): MPI file

 Using customized tuning parameters: mindgm=1; mindgv=20; mindgc=4; mindgr=1; noblas=0; minvec=7
 default implementation of scratch files=df  


 Variables initialized (1032), CPU time= 0.00 sec
 
 symmetry,nosym
 
 
 geometry={
 14
  n         -1.453934135634    0.199944332888   -0.757715097449
  h         -0.625338396930   -0.384909200688   -0.808057179042
  h         -2.115761700754   -0.189715236660   -1.415952054177
  c         -2.013951575915    0.120426538372    0.589663024499
  h         -2.908030526802    0.738272676333    0.650883920854
  h         -2.278038267596   -0.886815706602    0.927168615906
  h         -1.295568295023    0.527702873085    1.298803730494
  n          1.583600719117   -0.726493189723   -0.605239056236
  h          1.879869389195   -0.451955454822   -1.533224299529
  h          2.207150386084   -1.474183505751   -0.330044193261
  c          1.743830695067    0.408717403161    0.308436247873
  h          1.473640390979    0.094021622922    1.314089356636
  h          2.751241006206    0.830493962319    0.345407981528
  h          1.051290312165    1.194492885167    0.015779001903
 }
 basis=aug-cc-pVDZ
 
 
 
 hf; ccsd(t); counterpoise
 
 
 
 {put,xml;noorbitals,nobasis}
 Commands initialized (841), CPU time= 0.01 sec, 704 directives.
 Default parameters read. Elapsed time= 0.51 sec

 Checking input...
 Passed
1


                                         ***  PROGRAM SYSTEM MOLPRO  ***
                                       Copyright, TTI GmbH Stuttgart, 2015
                                    Version 2023.1 linked Tue Jun  6 09:54:11 2023


 **********************************************************************************************************************************
 LABEL *                                                                                                                                                                 
  64 bit serial version                                                                  DATE: 08-Jun-23          TIME: 19:16:47  
 **********************************************************************************************************************************

 SHA1:             8ebb0dd001088a5c915591db1a321413035db0b1
 **********************************************************************************************************************************

 Memory per process:       805 MW
 Total memory per node:   1074 MW
 Total GA space:           268 MW

 GA preallocation disabled
 GA check enabled

 Variable memory set to 805.3 MW

 ZSYMEL=NOSYM


 Geometry recognized as XYZ

 SETTING BASIS          =    AUG-CC-PVDZ


 Recomputing integrals since basis changed


 Using spherical harmonics

 Library entry N      S aug-cc-pVDZ          selected for orbital group  1
 Library entry N      P aug-cc-pVDZ          selected for orbital group  1
 Library entry N      D aug-cc-pVDZ          selected for orbital group  1
 Library entry H      S aug-cc-pVDZ          selected for orbital group  2
 Library entry H      P aug-cc-pVDZ          selected for orbital group  2
 Library entry C      S aug-cc-pVDZ          selected for orbital group  3
 Library entry C      P aug-cc-pVDZ          selected for orbital group  3
 Library entry C      D aug-cc-pVDZ          selected for orbital group  3


 PROGRAM * SEWARD (Integral evaluation for generally contracted gaussian basis sets)     Author: Roland Lindh, 1990

 Geometry written to block  1 of record 700


 Point group  C1  



 ATOMIC COORDINATES

 NR  ATOM    CHARGE       X              Y              Z

   1  N       7.00   -2.747537320    0.377840029   -1.431874015
   2  H       1.00   -1.181718305   -0.727372972   -1.527006761
   3  H       1.00   -3.998210159   -0.358509839   -2.675761588
   4  C       6.00   -3.805816907    0.227573176    1.114301622
   5  H       1.00   -5.495381258    1.395133164    1.229992349
   6  H       1.00   -4.304868427   -1.675838808    1.752094755
   7  H       1.00   -2.448269253    0.997213905    2.454383340
   8  N       7.00    2.992571650   -1.372873160   -1.143736056
   9  H       1.00    3.552438296   -0.854072030   -2.897374014
  10  H       1.00    4.170909746   -2.785803083   -0.623693134
  11  C       6.00    3.295362421    0.772363954    0.582860035
  12  H       1.00    2.784776745    0.177675117    2.483268987
  13  H       1.00    5.199092005    1.569406137    0.652726486
  14  H       1.00    1.986650767    2.257264411    0.029817992

 Bond lengths in Bohr (Angstrom)

 1-2  1.918941167  1-3  1.911452321  1-4  2.761439151  4-5  2.056990123  4-6  2.068528386
     ( 1.015459935)     ( 1.011497008)     ( 1.461290668)     ( 1.088512296)     ( 1.094618082)

  4- 7  2.056964145   8- 9  1.912551008   8-10  1.911882914   8-11  2.770353514  11-12  2.055701031
       ( 1.088498549)       ( 1.012078408)       ( 1.011724868)       ( 1.466007946)       ( 1.087830138)

 11-13  2.065028786  11-14  2.055118259
       ( 1.092766173)       ( 1.087521749)

 Bond angles

  1-4-5  109.61825692   1-4-6  115.26640672   1-4-7  109.11184884   2-1-3  106.24620118

  2-1-4  109.09178005   3-1-4  109.16631861   5-4-6  107.86599269   5-4-7  107.04188173

  6- 4- 7  107.61673372   8-11-12  108.96566473   8-11-13  114.88035324   8-11-14  108.79498984

  9- 8-10  105.63187802   9- 8-11  109.23286160  10- 8-11  109.59570301  12-11-13  108.02032202

 12-11-14  107.43539387  13-11-14  108.49916730

 NUCLEAR CHARGE:                   36
 NUMBER OF PRIMITIVE AOS:         258
 NUMBER OF SYMMETRY AOS:          250
 NUMBER OF CONTRACTIONS:          182   (  182A   )
 NUMBER OF INNER CORE ORBITALS:     0   (    0A   )
 NUMBER OF OUTER CORE ORBITALS:     4   (    4A   )
 NUMBER OF VALENCE ORBITALS:       26   (   26A   )


 NUCLEAR REPULSION ENERGY  131.71717807


 Eigenvalues of metric

         1 0.204E-03 0.326E-03 0.374E-03 0.447E-03 0.494E-03 0.549E-03 0.634E-03 0.710E-03


 Contracted 2-electron integrals neglected if value below      1.0D-11
 AO integral compression algorithm  1   Integral accuracy      1.0D-11

     612.368 MB (compressed) written to integral file ( 49.6%)


 NUMBER OF SORTED TWO-ELECTRON INTEGRALS:  138669531.     BUFFER LENGTH:  32768
 NUMBER OF SEGMENTS:   9  SEGMENT LENGTH:   15999503      RECORD LENGTH: 524288

 Memory used in sort:      16.56 MW

 SORT1 READ   154345298. AND WROTE   134467543. INTEGRALS IN    389 RECORDS. CPU TIME:     1.01 SEC, REAL TIME:     1.35 SEC
 SORT2 READ   134467543. AND WROTE   138669531. INTEGRALS IN   2336 RECORDS. CPU TIME:     0.75 SEC, REAL TIME:     0.99 SEC

 FILE SIZES:   FILE 1:   643.8 MBYTE,  FILE 4:  1631.6 MBYTE,   TOTAL:   2275.5 MBYTE

 OPERATOR DM      FOR CENTER  0  COORDINATES:    0.000000    0.000000    0.000000


 **********************************************************************************************************************************
 DATASETS  * FILE   NREC   LENGTH (MB)   RECORD NAMES
              1      19      562.80       500      610      700      900      950      970     1000      129      960     1100   
                                          VAR    BASINP    GEOM    SYMINP    ZMAT    AOBASIS   BASIS     P2S    ABASIS      S 
                                         1400     1410     1200     1210     1080     1600     1650     1300     1700   
                                           T        V       H0       H01     AOSYM     SMH    MOLCAS    ERIS     OPER   

 PROGRAMS   *        TOTAL       INT
 CPU TIMES  *         4.67      4.57
 REAL TIME  *        11.67 SEC
 DISK USED  *         2.12 GB
 **********************************************************************************************************************************


 Program * Restricted Hartree-Fock

 Orbital guess generated from atomic densities. Full valence occupancy:   30

 Initial occupancy:  18

 NELEC=   36   SYM=1   MS2= 0   THRE=1.0D-08   THRD=3.2D-06   THRG=3.2D-06  HFMA2=F  DIIS_START=2   DIIS_MAX=10   DIIS_INCORE=F

 Level shifts:    0.00 (CLOSED)    0.00 (OPEN)    0.30 (GAP_MIN)

 ITER           ETOT              DE          GRAD        DDIFF     DIIS  NEXP   TIME(IT)  TIME(TOT)  DIAG
   1     -190.40688022    -190.40688022     0.00D+00     0.62D-01     0     0       0.52      1.00    start
   2     -190.45587537      -0.04899515     0.38D-02     0.67D-02     1     0       0.52      1.52    diag
   3     -190.46238278      -0.00650741     0.15D-02     0.19D-02     2     0       0.52      2.04    diag
   4     -190.46336582      -0.00098304     0.48D-03     0.79D-03     3     0       0.59      2.63    diag
   5     -190.46340601      -0.00004019     0.85D-04     0.16D-03     4     0       0.55      3.18    diag
   6     -190.46340886      -0.00000284     0.21D-04     0.45D-04     5     0       0.53      3.71    diag
   7     -190.46340906      -0.00000020     0.56D-05     0.11D-04     6     0       0.52      4.23    diag
   8     -190.46340908      -0.00000002     0.15D-05     0.42D-05     7     0       0.53      4.76    fixocc
   9     -190.46340908      -0.00000000     0.40D-06     0.10D-05     8     0       0.52      5.28    diag
  10     -190.46340908      -0.00000000     0.10D-06     0.18D-06     0     0       0.51      5.79    diag/orth

 Final occupancy:  18

 !RHF STATE 1.1 Energy               -190.463409084472
  RHF One-electron energy            -518.166452718128
  RHF Two-electron energy             195.985865562282
  RHF Kinetic energy                  190.199751427168
  RHF Nuclear energy                  131.717178071374
  RHF Virial quotient                  -1.001386214521

 !RHF STATE 1.1 Dipole moment           0.58324083    -0.40525757     0.06930144
 Dipole moment /Debye                   1.48245031    -1.03006200     0.17614669

 Orbital energies:

           1.1          2.1          3.1          4.1          5.1          6.1          7.1          8.1          9.1         10.1
    -15.555983   -15.527307   -11.248333   -11.235300    -1.180484    -1.155172    -0.900787    -0.882943    -0.670001    -0.649327

          11.1         12.1         13.1         14.1         15.1         16.1         17.1         18.1         19.1         20.1
     -0.606028    -0.589404    -0.558650    -0.538833    -0.519267    -0.502807    -0.402376    -0.374360     0.034020     0.046511


 HOMO     18.1    -0.374360 =     -10.1869eV
 LUMO     19.1     0.034020 =       0.9257eV
 LUMO-HOMO         0.408380 =      11.1126eV

 Orbitals saved in record  2100.2


 **********************************************************************************************************************************
 DATASETS  * FILE   NREC   LENGTH (MB)   RECORD NAMES
              1      19      562.80       500      610      700      900      950      970     1000      129      960     1100   
                                          VAR    BASINP    GEOM    SYMINP    ZMAT    AOBASIS   BASIS     P2S    ABASIS      S 
                                         1400     1410     1200     1210     1080     1600     1650     1300     1700   
                                           T        V       H0       H01     AOSYM     SMH    MOLCAS    ERIS     OPER   

              2       4        1.12       700     1000      520     2100   
                                         GEOM     BASIS   MCVARS     RHF  

 PROGRAMS   *        TOTAL    HF-SCF       INT
 CPU TIMES  *        10.46      5.79      4.57
 REAL TIME  *        19.15 SEC
 DISK USED  *         2.12 GB
 **********************************************************************************************************************************


 PROGRAM * CCSD (Closed-shell coupled cluster)     Authors: C. Hampel, H.-J. Werner, 1991, M. Deegan, P.J. Knowles, 1992


 Convergence thresholds:  THRVAR = 1.00D-08  THRDEN = 1.00D-06

 CCSD(T)     terms to be evaluated (factor= 1.000)


 Number of core orbitals:           4 (   4 )
 Number of closed-shell orbitals:  14 (  14 )
 Number of external orbitals:     164 ( 164 )

 Molecular orbitals read from record     2100.2  Type=RHF/CANONICAL  

 Number of N-1 electron functions:              14
 Number of N-2 electron functions:             105
 Number of singly external CSFs:              2296
 Number of doubly external CSFs:           2636956
 Total number of CSFs:                     2639253

 Length of J-op  integral file:               0.00 MB
 Length of K-op  integral file:               2.34 MB
 Length of 3-ext integral record:             0.00 MB

 Memory could be reduced to 79.58 Mwords without degradation in triples

 Integral transformation finished. Total CPU:   2.84 sec, npass=  1  Memory used:  51.92 MW

 Reference energy:                   -190.46340908

 MP2 singlet pair energy:              -0.45287329
 MP2 triplet pair energy:              -0.23820305
 MP2 correlation energy:               -0.69107634
 MP2 total energy:                   -191.15448542

 SCS-MP2 correlation energy:           -0.69166318   (PS=  1.200000  PT=  0.333333)
 SCS-MP2 total energy:               -191.15507226

 ITER.      SQ.NORM     CORR.ENERGY   TOTAL ENERGY   ENERGY CHANGE        DEN1      VAR(S)    VAR(P)  DIIS     TIME  TIME/IT
   1      1.24865383    -0.74439144  -191.20780052    -0.05331510    -0.03470330  0.23D-02  0.38D-02  1  1    18.80     5.99
   2      1.26878026    -0.74859407  -191.21200316    -0.00420264    -0.01976292  0.36D-04  0.37D-03  2  2    24.74     6.43
   3      1.27337662    -0.74878979  -191.21219888    -0.00019572    -0.00262083  0.26D-04  0.21D-04  3  3    30.80     6.60
   4      1.27473332    -0.74880647  -191.21221555    -0.00001668    -0.00053139  0.23D-05  0.17D-05  4  4    37.36     6.88
   5      1.27503534    -0.74880439  -191.21221348     0.00000208    -0.00008736  0.47D-06  0.19D-06  5  5    44.12     7.09
   6      1.27511665    -0.74879940  -191.21220849     0.00000499    -0.00001428  0.86D-07  0.20D-07  6  6    50.96     7.25
   7      1.27514025    -0.74879834  -191.21220743     0.00000106    -0.00000102  0.12D-07  0.47D-08  6  2    57.64     7.33
   8      1.27515086    -0.74879794  -191.21220703     0.00000040    -0.00000131  0.14D-08  0.53D-09  6  1    64.80     7.45
   9      1.27515331    -0.74879785  -191.21220694     0.00000009     0.00000035  0.20D-09  0.75D-10  6  3    72.02     7.53

 Norm of t1 vector:      0.07136712      S-energy:     0.00000005      T1 diagnostic:  0.00953683
                                                                       D1 diagnostic:  0.02716104
                                                                       D2 diagnostic:  0.13976693 (internal)


 Total CPU time for triples:    134.58 sec


 RESULTS
 =======

  Reference energy                   -190.463409084472
  CCSD singlet pair energy             -0.528696241386
  CCSD triplet pair energy             -0.220101661092
  CCSD correlation energy              -0.748797852990

  Triples (T) contribution             -0.022157166694
  Total correlation energy             -0.770955019684

  CCSD total energy                  -191.212206937462
  CCSD[T] energy                     -191.235033663863
  CCSD-T energy                      -191.234008970667
 !CCSD(T) total energy               -191.234364104156

 Timing summary (sec):

 STEP                 CPU(USER)    SYS     CPU(TOT)    WALL
 Transformation          2.90      0.31      3.21      4.22
 CCSD iterations        69.25      3.57     72.82     68.33
 Triples               134.58      7.04    141.62   1084.23

 Program statistics:

 Available memory in ccsd:               805305566
 Min. memory needed in ccsd:               6754795
 Max. memory used in ccsd:                 9117435
 Max. memory used in cckext:               7302750 ( 9 integral passes)



 **********************************************************************************************************************************
 DATASETS  * FILE   NREC   LENGTH (MB)   RECORD NAMES
              1      20      840.20       500      610      700      900      950      970     1000      129      960     1100   
                                          VAR    BASINP    GEOM    SYMINP    ZMAT    AOBASIS   BASIS     P2S    ABASIS      S 
                                         1400     1410     1200     1210     1080     1600     1650     1300     1700     1380   
                                           T        V       H0       H01     AOSYM     SMH    MOLCAS    ERIS     OPER     JKOP   

              2       4        1.12       700     1000      520     2100   
                                         GEOM     BASIS   MCVARS     RHF  

 PROGRAMS   *        TOTAL   CCSD(T)    HF-SCF       INT
 CPU TIMES  *       206.65    196.18      5.79      4.57
 REAL TIME  *      1176.27 SEC
 DISK USED  *         2.12 GB
 **********************************************************************************************************************************

 Counterpoise: absolute minimum monomer separation=    -1.000 Bragg radius scale factor=     1.400 Number of monomers= 2

 Counterpoise  CCSD(T)  energy

 Running default procedure: HF-SCF000  CCSD(T)

 Assignment of unique atoms to monomers:
1-14     1     1     1     1     1     1     1     2     2     2     2     2     2     2

 *** Long output written to logfile /Users/sacpjk/current/PAPT/S66/d94ed120/10.molpro/run/1.molpro/1.log ***


 Description                       ENERGY          ENERGR          ENERGC
 Raw                        -191.23436410   -190.46340908   -191.21220694
 Dimer basis, monomer 1      -95.61419372    -95.23089293    -95.60345631
 Dimer basis, monomer 2      -95.61456734    -95.23109459    -95.60380065
 Monomer basis, monomer 1    -95.61317132    -95.23058375    -95.60251339
 Monomer basis, monomer 2    -95.61317631    -95.23064555    -95.60251724
 Counterpoise correction       0.00241344      0.00075822      0.00222634
 Counterpoise corrected     -191.23195066   -190.46265086   -191.20998060


 **********************************************************************************************************************************
 DATASETS  * FILE   NREC   LENGTH (MB)   RECORD NAMES
              1      18       30.00       500      610      700      900      950      970     1000      129      960     1100   
                                          VAR    BASINP    GEOM    SYMINP    ZMAT    AOBASIS   BASIS     P2S    ABASIS      S 
                                         1400     1410     1200     1210     1080     1600     1650     1700   
                                           T        V       H0       H01     AOSYM     SMH    MOLCAS    OPER   

              2       9        3.25       700     1000      520     2100     2101      701     1001     2102      702   
                                         GEOM     BASIS   MCVARS     RHF      RHF     GEOM     BASIS     RHF     GEOM   

 PROGRAMS   *        TOTALCOUNTERPOI    HF-SCF       INT   CCSD(T)    HF-SCF       INT   CCSD(T)    HF-SCF       INT   CCSD(T)
 CPU TIMES  *       312.16      2.14      0.36      0.36      2.09      0.37      0.37     29.06      7.53      0.04     53.29
 REAL TIME  *      1770.44 SEC
 DISK USED  *         2.12 GB
 **********************************************************************************************************************************

 Dump information in style XML to xml output                                                                      

 Orbitals will not be exported.

 **********************************************************************************************************************************

 CCSD(T)/aug-cc-pVDZ energy=   -191.231950663988

         CCSD(T)          HF-SCF         CCSD(T)          HF-SCF         CCSD(T)          HF-SCF         CCSD(T)          HF-SCF
    -95.61317631    -95.23064555    -95.61317132    -95.23058375    -95.61456734    -95.23109459    -95.61419372    -95.23089293
 **********************************************************************************************************************************
 Molpro calculation terminated
