
 Working directory              : /var/folders/2v/xbgp75_9785319ghcgb4zr4r0000gp/T//molpro.KyfFkJHcxd/
 Global scratch directory       : /var/folders/2v/xbgp75_9785319ghcgb4zr4r0000gp/T//molpro.KyfFkJHcxd/
 Wavefunction directory         : /Users/sacpjk/wfu/
 Main file repository           : /var/folders/2v/xbgp75_9785319ghcgb4zr4r0000gp/T//molpro.KyfFkJHcxd/

 id        : peterk

 Nodes                        nprocs
 Cardiff-University-G34YLXT77Y    1
 GA implementation: MPI file
 GA implementation (serial work in mppx): MPI file

 Using customized tuning parameters: mindgm=1; mindgv=20; mindgc=4; mindgr=1; noblas=0; minvec=7
 default implementation of scratch files=df  


 Variables initialized (1032), CPU time= 0.00 sec
 
 core,small
 angstrom
 
 geometry={
 C;O,C,1.20430342;H1,C,1.10077162,O,121.78046616;H2,C,1.10077162,O,121.78046616,H1,180
 }
 basis=cc-pCVDZ
 
 
 
 hf; hf; papt; mp3
 
 
 
 {put,xml;noorbitals,nobasis}
 Commands initialized (841), CPU time= 0.01 sec, 704 directives.
 Default parameters read. Elapsed time= 0.47 sec

 Checking input...
 Passed
1


                                         ***  PROGRAM SYSTEM MOLPRO  ***
                                       Copyright, TTI GmbH Stuttgart, 2015
                                    Version 2023.1 linked Tue Jun  6 09:54:11 2023


 **********************************************************************************************************************************
 LABEL *                                                                                                                                                                 
  64 bit serial version                                                                  DATE: 12-Jun-23          TIME: 09:39:01  
 **********************************************************************************************************************************

 SHA1:             8ebb0dd001088a5c915591db1a321413035db0b1
 **********************************************************************************************************************************

 Memory per process:       393 MW
 Total memory per node:    524 MW
 Total GA space:           131 MW

 GA preallocation disabled
 GA check enabled

 Variable memory set to 393.2 MW

 ZUNIT=ANG

 SETTING BASIS          =    CC-PCVDZ


 Recomputing integrals since basis changed


 Using spherical harmonics

 Library entry C      S cc-pCVDZ             selected for orbital group  1
 Library entry C      P cc-pCVDZ             selected for orbital group  1
 Library entry C      D cc-pCVDZ             selected for orbital group  1
 Library entry O      S cc-pCVDZ             selected for orbital group  2
 Library entry O      P cc-pCVDZ             selected for orbital group  2
 Library entry O      D cc-pCVDZ             selected for orbital group  2
 Library entry H      S cc-pVDZ              selected for orbital group  3
 Library entry H      P cc-pVDZ              selected for orbital group  3


 PROGRAM * SEWARD (Integral evaluation for generally contracted gaussian basis sets)     Author: Roland Lindh, 1990

 Geometry written to block  1 of record 700

 Orientation using atomic masses  
 Molecule type: Asymmetric top,     Order of principal axis = 2
 Symmetry elements: X,Y
 Rotational constants:      34.2927288     38.9589211    286.3164739 GHz  (calculated with average atomic masses)

 Point group  C2v 



 ATOMIC COORDINATES

 NR  ATOM    CHARGE       X              Y              Z

   1  C       6.00    0.000000000    0.000000000   -1.139102130
   2  O       8.00    0.000000000    0.000000000    1.136701504
   3  H1      1.00    0.000000000    1.768283747   -2.234650061
   4  H2      1.00    0.000000000   -1.768283747   -2.234650061

 Bond lengths in Bohr (Angstrom)

 1-2  2.275803635  1-3  2.080156888  1-4  2.080156888
     ( 1.204303420)     ( 1.100771620)     ( 1.100771620)

 Bond angles

  2-1-3  121.78046616   2-1-4  121.78046616   3-1-4  116.43906768

 NUCLEAR CHARGE:                   16
 NUMBER OF PRIMITIVE AOS:          76
 NUMBER OF SYMMETRY AOS:           74
 NUMBER OF CONTRACTIONS:           46   (   22A1  +    9B1  +   12B2  +    3A2  )
 NUMBER OF INNER CORE ORBITALS:     0   (    0A1  +    0B1  +    0B2  +    0A2  )
 NUMBER OF OUTER CORE ORBITALS:     2   (    2A1  +    0B1  +    0B2  +    0A2  )
 NUMBER OF VALENCE ORBITALS:       10   (    5A1  +    2B1  +    3B2  +    0A2  )


 NUCLEAR REPULSION ENERGY   31.34585015


 Eigenvalues of metric

         1 0.122E-01 0.162E-01 0.427E-01 0.562E-01 0.681E-01 0.861E-01 0.125E+00 0.137E+00
         2 0.132E+00 0.176E+00 0.413E+00 0.575E+00 0.991E+00 0.101E+01 0.116E+01 0.173E+01
         3 0.327E-01 0.413E-01 0.121E+00 0.167E+00 0.349E+00 0.941E+00 0.971E+00 0.995E+00
         4 0.452E+00 0.998E+00 0.154E+01


 Contracted 2-electron integrals neglected if value below      1.0D-11
 AO integral compression algorithm  1   Integral accuracy      1.0D-11

     1.049 MB (compressed) written to integral file ( 69.1%)


 NUMBER OF SORTED TWO-ELECTRON INTEGRALS:     168307.     BUFFER LENGTH:  32768
 NUMBER OF SEGMENTS:   1  SEGMENT LENGTH:     168307      RECORD LENGTH: 524288

 Memory used in sort:       0.73 MW

 SORT1 READ      218532. AND WROTE      154805. INTEGRALS IN      1 RECORDS. CPU TIME:     0.00 SEC, REAL TIME:     0.00 SEC
 SORT2 READ      154805. AND WROTE      168307. INTEGRALS IN      4 RECORDS. CPU TIME:     0.01 SEC, REAL TIME:     0.01 SEC

 FILE SIZES:   FILE 1:    31.1 MBYTE,  FILE 4:     4.3 MBYTE,   TOTAL:     35.4 MBYTE

 OPERATOR DM      FOR CENTER  0  COORDINATES:    0.000000    0.000000    0.000000


 **********************************************************************************************************************************
 DATASETS  * FILE   NREC   LENGTH (MB)   RECORD NAMES
              1      19       29.38       500      610      700      900      950      970     1000      129      960     1100   
                                          VAR    BASINP    GEOM    SYMINP    ZMAT    AOBASIS   BASIS     P2S    ABASIS      S 
                                         1400     1410     1200     1210     1080     1600     1650     1300     1700   
                                           T        V       H0       H01     AOSYM     SMH    MOLCAS    ERIS     OPER   

 PROGRAMS   *        TOTAL       INT
 CPU TIMES  *         0.21      0.11
 REAL TIME  *         1.50 SEC
 DISK USED  *        34.07 MB
 **********************************************************************************************************************************


 Program * Restricted Hartree-Fock

 Orbital guess generated from atomic densities. Full valence occupancy:    7   2   3   0

 Initial occupancy:   5   1   2   0

 NELEC=   16   SYM=1   MS2= 0   THRE=1.0D-08   THRD=3.2D-06   THRG=3.2D-06  HFMA2=F  DIIS_START=2   DIIS_MAX=10   DIIS_INCORE=F

 Level shifts:    0.00 (CLOSED)    0.00 (OPEN)    0.30 (GAP_MIN)

 ITER           ETOT              DE          GRAD        DDIFF     DIIS  NEXP   TIME(IT)  TIME(TOT)  DIAG
   1     -113.82550770    -113.82550770     0.00D+00     0.27D+00     0     0       0.00      0.00    start
   2     -113.84996170      -0.02445400     0.23D-01     0.49D-01     1     0       0.00      0.00    diag
   3     -113.87650256      -0.02654087     0.18D-01     0.21D-01     2     0       0.00      0.00    diag
   4     -113.87693457      -0.00043200     0.15D-02     0.30D-02     3     0       0.01      0.01    diag
   5     -113.87700019      -0.00006562     0.53D-03     0.11D-02     4     0       0.00      0.01    diag
   6     -113.87701693      -0.00001675     0.21D-03     0.66D-03     5     0       0.00      0.01    diag
   7     -113.87701860      -0.00000167     0.82D-04     0.26D-03     6     0       0.00      0.01    diag
   8     -113.87701864      -0.00000004     0.14D-04     0.46D-04     7     0       0.00      0.01    fixocc
   9     -113.87701864      -0.00000000     0.17D-05     0.48D-05     8     0       0.00      0.01    diag
  10     -113.87701864      -0.00000000     0.33D-06     0.95D-06     9     0       0.00      0.01    diag/orth
  11     -113.87701864      -0.00000000     0.49D-07     0.10D-06     0     0       0.00      0.01    diag

 Final occupancy:   5   1   2   0

 !RHF STATE 1.1 Energy               -113.877018641610
  RHF One-electron energy            -217.463638665159
  RHF Two-electron energy              72.240769875170
  RHF Kinetic energy                  113.724804075937
  RHF Nuclear energy                   31.345850148379
  RHF Virial quotient                  -1.001338446497

 !RHF STATE 1.1 Dipole moment           0.00000000     0.00000000    -1.05815451
 Dipole moment /Debye                   0.00000000     0.00000000    -2.68956051

 Orbital energies:

           1.1          2.1          3.1          4.1          5.1          6.1          7.1
    -20.574938   -11.344016    -1.404139    -0.866100    -0.646629     0.189101     0.359007

           1.2          2.2          3.2
     -0.529609     0.136010     0.667570

           1.3          2.3          3.3          4.3
     -0.689720    -0.435898     0.257432     0.739432

           1.4          2.4
      1.156022     2.007666


 HOMO      2.3    -0.435898 =     -11.8614eV
 LUMO      2.2     0.136010 =       3.7010eV
 LUMO-HOMO         0.571908 =      15.5624eV

 Orbitals saved in record  2100.2


 **********************************************************************************************************************************
 DATASETS  * FILE   NREC   LENGTH (MB)   RECORD NAMES
              1      19       29.38       500      610      700      900      950      970     1000      129      960     1100   
                                          VAR    BASINP    GEOM    SYMINP    ZMAT    AOBASIS   BASIS     P2S    ABASIS      S 
                                         1400     1410     1200     1210     1080     1600     1650     1300     1700   
                                           T        V       H0       H01     AOSYM     SMH    MOLCAS    ERIS     OPER   

              2       4        0.41       700     1000      520     2100   
                                         GEOM     BASIS   MCVARS     RHF  

 PROGRAMS   *        TOTAL    HF-SCF       INT
 CPU TIMES  *         0.22      0.01      0.11
 REAL TIME  *         2.45 SEC
 DISK USED  *        34.07 MB
 **********************************************************************************************************************************


 Program * Restricted Hartree-Fock

 Molecular orbitals read from record     2100.2  Type=RHF/CANONICAL  

 Initial occupancy:   5   1   2   0

 NELEC=   16   SYM=1   MS2= 0   THRE=1.0D-08   THRD=3.2D-06   THRG=3.2D-06  HFMA2=F  DIIS_START=2   DIIS_MAX=10   DIIS_INCORE=F

 Level shifts:    0.00 (CLOSED)    0.00 (OPEN)    0.30 (GAP_MIN)

 ITER           ETOT              DE          GRAD        DDIFF     DIIS  NEXP   TIME(IT)  TIME(TOT)  DIAG
   1     -113.87701864    -113.87701864     0.00D+00     0.27D+00     0     0       0.00      0.00    start
   2     -113.87701864      -0.00000000     0.18D-07     0.37D-07     1     0       0.00      0.00    diag

 Final occupancy:   5   1   2   0

 !RHF STATE 1.1 Energy               -113.877018641610
  RHF One-electron energy            -217.463638718546
  RHF Two-electron energy              72.240769928556
  RHF Kinetic energy                  113.724804060327
  RHF Nuclear energy                   31.345850148379
  RHF Virial quotient                  -1.001338446635

 !RHF STATE 1.1 Dipole moment           0.00000000     0.00000000    -1.05815476
 Dipole moment /Debye                   0.00000000     0.00000000    -2.68956112

 Orbital energies:

           1.1          2.1          3.1          4.1          5.1          6.1          7.1
    -20.574938   -11.344016    -1.404139    -0.866100    -0.646629     0.189101     0.359007

           1.2          2.2          3.2
     -0.529609     0.136010     0.667570

           1.3          2.3          3.3          4.3
     -0.689720    -0.435898     0.257432     0.739432

           1.4          2.4
      1.156022     2.007666


 HOMO      2.3    -0.435898 =     -11.8614eV
 LUMO      2.2     0.136010 =       3.7010eV
 LUMO-HOMO         0.571908 =      15.5624eV

 Orbitals saved in record  2101.2


 **********************************************************************************************************************************
 DATASETS  * FILE   NREC   LENGTH (MB)   RECORD NAMES
              1      19       29.38       500      610      700      900      950      970     1000      129      960     1100   
                                          VAR    BASINP    GEOM    SYMINP    ZMAT    AOBASIS   BASIS     P2S    ABASIS      S 
                                         1400     1410     1200     1210     1080     1600     1650     1300     1700   
                                           T        V       H0       H01     AOSYM     SMH    MOLCAS    ERIS     OPER   

              2       5        0.53       700     1000      520     2100     2101   
                                         GEOM     BASIS   MCVARS     RHF      RHF  

 PROGRAMS   *        TOTAL    HF-SCF    HF-SCF       INT
 CPU TIMES  *         0.23      0.01      0.01      0.11
 REAL TIME  *         3.20 SEC
 DISK USED  *        34.07 MB
 **********************************************************************************************************************************


 PROGRAM * PAPT (Closed-shell)     Authors: C. Hampel, H.-J. Werner, 1991, P.J. Knowles, 2021


 CORETYPE=SMALL

 Convergence thresholds:  THRVAR = 1.00D-08  THRDEN = 1.00D-06

 Number of closed-shell orbitals:   8 (   5   1   2   0 )
 Number of external orbitals:      38 (  17   8  10   3 )

 Molecular orbitals read from record     2101.2  Type=RHF/CANONICAL  

 Number of N-1 electron functions:               8
 Number of N-2 electron functions:              36
 Number of singly external CSFs:               113
 Number of doubly external CSFs:             13146
 Total number of CSFs:                       13260

 Length of J-op  integral file:               0.00 MB
 Length of K-op  integral file:               0.11 MB

 Integral transformation finished. Total CPU:   0.00 sec, npass=  1  Memory used:   0.09 MW

 Reference energy:                   -113.87701864

                        CORR.ENERGY   TOTAL ENERGY   ENERGY CHANGE
 MP2:                   -0.39239276  -114.26941140    -0.39239276

 SCS-MP2 correlation energy:           -0.39699341   (PS=  1.200000  PT=  0.333333)
 SCS-MP2 total energy:               -114.27401206
 Iteration:   1     0.4290D+00
 Iteration:   2     0.5857D+01
 Iteration:   3     0.2894D+00
 Iteration:   4     0.1355D+00
 Iteration:   5     0.1896D+00
 Iteration:   6     0.5517D-01
 Iteration:   7     0.2822D+00
 Iteration:   8     0.1605D-01
 Iteration:   9     0.1298D-01
 Iteration:  10     0.9369D-02
 Iteration:  11     0.3425D-02
 Iteration:  12     0.7646D-02
 Iteration:  13     0.1021D-02
 Iteration:  14     0.8186D-03
 Iteration:  15     0.8360D-03
 Iteration:  16     0.2766D-03
 Iteration:  17     0.6383D-03
 Iteration:  18     0.8249D-04
 PAPT operator written to  7000.1
 PAPT orbitals and eigenvalues written to  7000.2

 MP3(D):                -0.40329393  -114.28031257    -0.01090117



 RESULTS
 =======

  Reference energy                   -113.877018641610

  Correlated core orbitals:             1.1       2.1
  Orbital energies:                   -20.5749  -11.3440

  MP3 core-core energy                 -0.062084163281
  MP3 core-valence energy              -0.013383677488
  MP3 valence correlation energy       -0.327826090430

  MP3 singlet pair energy              -0.288098849231
  MP3 triplet pair energy              -0.115195081968
  MP3 correlation energy               -0.403293931199

 !MP3 total energy                   -114.280312572810

 Timing summary (sec):

 STEP                 CPU(USER)    SYS     CPU(TOT)    WALL
 CCSD iterations         0.39      0.02      0.41      0.94

 Program statistics:

 Available memory in ccsd:               393215739
 Min. memory needed in ccsd:                 47991
 Max. memory used in ccsd:                   57724
 Max. memory used in cckext:                 88694 ( 1 integral passes)



 **********************************************************************************************************************************
 DATASETS  * FILE   NREC   LENGTH (MB)   RECORD NAMES
              1      21       29.66       500      610      700      900      950      970     1000      129      960     1100   
                                          VAR    BASINP    GEOM    SYMINP    ZMAT    AOBASIS   BASIS     P2S    ABASIS      S 
                                         1400     1410     1200     1210     1080     1600     1650     1300     1700     1380   
                                           T        V       H0       H01     AOSYM     SMH    MOLCAS    ERIS     OPER     JKOP   
                                         7000   
                                        PAPT AO    

              2       6        0.64       700     1000      520     2100     2101     7000   
                                         GEOM     BASIS   MCVARS     RHF      RHF     PAPT   

 PROGRAMS   *        TOTAL      PAPT    HF-SCF    HF-SCF       INT
 CPU TIMES  *         0.30      0.07      0.01      0.01      0.11
 REAL TIME  *         4.47 SEC
 DISK USED  *        34.07 MB
 **********************************************************************************************************************************


 PROGRAM * MP3 (Closed-shell)     Authors: C. Hampel, H.-J. Werner, 1991, M. Deegan, P.J. Knowles, 1992


 CORETYPE=SMALL

 Convergence thresholds:  THRVAR = 1.00D-08  THRDEN = 1.00D-06

 Number of closed-shell orbitals:   8 (   5   1   2   0 )
 Number of external orbitals:      38 (  17   8  10   3 )

 Molecular orbitals read from record     7000.2  Type=PAPT/CANONICAL (state 1.1)

 Number of N-1 electron functions:               8
 Number of N-2 electron functions:              36
 Number of singly external CSFs:               113
 Number of doubly external CSFs:             13146
 Total number of CSFs:                       13260

 Length of J-op  integral file:               0.00 MB
 Length of K-op  integral file:               0.11 MB

 Integral transformation finished. Total CPU:   0.00 sec, npass=  1  Memory used:   0.09 MW
 Orbital energies read from record       7000.2  Type=PAPT/CANONICAL (state 1.1)

 Reference energy:                   -113.87701864

                        CORR.ENERGY   TOTAL ENERGY   ENERGY CHANGE
 MP2:                   -0.40766183  -114.28468047    -0.40766183

 SCS-MP2 correlation energy:           -0.41531714   (PS=  1.200000  PT=  0.333333)
 SCS-MP2 total energy:               -114.29233578

 MP3(D):                -0.40781416  -114.28483280    -0.00015233



 RESULTS
 =======

  Reference energy                   -113.877018641610

  Correlated core orbitals:             1.1       2.1
  Orbital energies:                   -19.1885  -10.5270

  MP3 core-core energy                 -0.062542058663
  MP3 core-valence energy              -0.013142738408
  MP3 valence correlation energy       -0.332129363838

  MP3 singlet pair energy              -0.291827702418
  MP3 triplet pair energy              -0.115986458490
  MP3 correlation energy               -0.407814160908

 !MP3 total energy                   -114.284832802519

 Timing summary (sec):

 STEP                 CPU(USER)    SYS     CPU(TOT)    WALL
 CCSD iterations         0.43      0.00      0.43      0.52

 Program statistics:

 Available memory in ccsd:               393215739
 Min. memory needed in ccsd:                 47991
 Max. memory used in ccsd:                   57724
 Max. memory used in cckext:                 88694 ( 1 integral passes)



 **********************************************************************************************************************************
 DATASETS  * FILE   NREC   LENGTH (MB)   RECORD NAMES
              1      21       29.66       500      610      700      900      950      970     1000      129      960     1100   
                                          VAR    BASINP    GEOM    SYMINP    ZMAT    AOBASIS   BASIS     P2S    ABASIS      S 
                                         1400     1410     1200     1210     1080     1600     1650     1300     1700     1380   
                                           T        V       H0       H01     AOSYM     SMH    MOLCAS    ERIS     OPER     JKOP   
                                         7000   
                                        PAPT AO    

              2       6        0.64       700     1000      520     2100     2101     7000   
                                         GEOM     BASIS   MCVARS     RHF      RHF     PAPT   

 PROGRAMS   *        TOTAL       MP3      PAPT    HF-SCF    HF-SCF       INT
 CPU TIMES  *         0.34      0.04      0.07      0.01      0.01      0.11
 REAL TIME  *         5.23 SEC
 DISK USED  *        34.07 MB
 **********************************************************************************************************************************

 Dump information in style XML to xml output                                                                      

 Orbitals will not be exported.

 **********************************************************************************************************************************

 MP3/cc-pCVDZ energy=   -114.284832802519

             MP3            PAPT          HF-SCF          HF-SCF
   -114.28483280   -114.28031257   -113.87701864   -113.87701864
 **********************************************************************************************************************************
 Molpro calculation terminated
