
 Working directory              : /var/folders/2v/xbgp75_9785319ghcgb4zr4r0000gp/T//molpro.UdPS0VOd6Z/
 Global scratch directory       : /var/folders/2v/xbgp75_9785319ghcgb4zr4r0000gp/T//molpro.UdPS0VOd6Z/
 Wavefunction directory         : /Users/sacpjk/wfu/
 Main file repository           : /var/folders/2v/xbgp75_9785319ghcgb4zr4r0000gp/T//molpro.UdPS0VOd6Z/

 id        : peterk

 Nodes                        nprocs
 Cardiff-University-G34YLXT77Y    1
 GA implementation: MPI file
 GA implementation (serial work in mppx): MPI file

 Using customized tuning parameters: mindgm=1; mindgv=20; mindgc=4; mindgr=1; noblas=0; minvec=7
 default implementation of scratch files=df  


 Variables initialized (1032), CPU time= 0.01 sec
 
 core,small
 angstrom
 
 geometry={
 N1;X,N1,10;H1,N1,1.01116937,X,112.42635522;H2,N1,1.01116937,X,112.42635522,H1,120;H3,N1,1.01116937,X,112.42635522,H2,120
 }
 basis=cc-pCVQZ
 
 
 
 hf
 
 
 
 {put,xml;noorbitals,nobasis}
 Commands initialized (841), CPU time= 0.00 sec, 704 directives.
 Default parameters read. Elapsed time= 2.31 sec

 Checking input...
 Passed
1


                                         ***  PROGRAM SYSTEM MOLPRO  ***
                                       Copyright, TTI GmbH Stuttgart, 2015
                                    Version 2023.1 linked Tue Jun  6 09:54:11 2023


 **********************************************************************************************************************************
 LABEL *                                                                                                                                                                 
  64 bit serial version                                                                  DATE: 12-Jun-23          TIME: 10:37:19  
 **********************************************************************************************************************************

 SHA1:             8ebb0dd001088a5c915591db1a321413035db0b1
 **********************************************************************************************************************************

 Memory per process:       393 MW
 Total memory per node:    524 MW
 Total GA space:           131 MW

 GA preallocation disabled
 GA check enabled

 Variable memory set to 393.2 MW

 ZUNIT=ANG

 SETTING BASIS          =    CC-PCVQZ


 Recomputing integrals since basis changed


 Using spherical harmonics

 Library entry N      S cc-pCVQZ             selected for orbital group  1
 Library entry N      P cc-pCVQZ             selected for orbital group  1
 Library entry N      D cc-pCVQZ             selected for orbital group  1
 Library entry N      F cc-pCVQZ             selected for orbital group  1
 Library entry N      G cc-pCVQZ             selected for orbital group  1
 Library entry H      S cc-pVQZ              selected for orbital group  2
 Library entry H      P cc-pVQZ              selected for orbital group  2
 Library entry H      D cc-pVQZ              selected for orbital group  2
 Library entry H      F cc-pVQZ              selected for orbital group  2


 PROGRAM * SEWARD (Integral evaluation for generally contracted gaussian basis sets)     Author: Roland Lindh, 1990

 Geometry written to block  1 of record 700

 Orientation using atomic masses  
 Molecule type: Symmetric top,     Order of principal axis = 3
 Symmetry elements: Y
 Rotational constants:     298.8703436    298.8703436    191.3027215 GHz  (calculated with average atomic masses)

 Point group  Cs  



 ATOMIC COORDINATES

 NR  ATOM    CHARGE       X              Y              Z

   1  N1      7.00    0.000000000    0.000000000    0.129431608
   2  H1      1.00    0.883159051   -1.529676348   -0.599542866
   3  H3      1.00    0.883159051    1.529676348   -0.599542866
   4  H2      1.00   -1.766318102    0.000000000   -0.599542866

 Bond lengths in Bohr (Angstrom)

 1-2  1.910833175  1-3  1.910833175  1-4  1.910833175
     ( 1.011169370)     ( 1.011169370)     ( 1.011169370)

 Bond angles

  2-1-3  106.36119335   2-1-4  106.36119335   3-1-4  106.36119335

 NUCLEAR CHARGE:                   10
 NUMBER OF PRIMITIVE AOS:         228
 NUMBER OF SYMMETRY AOS:          193
 NUMBER OF CONTRACTIONS:          174   (  104A'  +   70A"  )
 NUMBER OF INNER CORE ORBITALS:     0   (    0A'  +    0A"  )
 NUMBER OF OUTER CORE ORBITALS:     1   (    1A'  +    0A"  )
 NUMBER OF VALENCE ORBITALS:        7   (    5A'  +    2A"  )


 NUCLEAR REPULSION ENERGY   11.97056997


 Eigenvalues of metric

         1 0.252E-04 0.214E-03 0.375E-03 0.998E-03 0.136E-02 0.145E-02 0.189E-02 0.269E-02
         2 0.375E-03 0.145E-02 0.269E-02 0.656E-02 0.905E-02 0.112E-01 0.115E-01 0.163E-01


 Contracted 2-electron integrals neglected if value below      1.0D-12
 AO integral compression algorithm  1   Integral accuracy      1.0D-12

     339.214 MB (compressed) written to integral file ( 58.4%)


 NUMBER OF SORTED TWO-ELECTRON INTEGRALS:   58701685.     BUFFER LENGTH:  32768
 NUMBER OF SEGMENTS:   4  SEGMENT LENGTH:   15998556      RECORD LENGTH: 524288

 Memory used in sort:      16.56 MW

 SORT1 READ    72555399. AND WROTE    53636519. INTEGRALS IN    156 RECORDS. CPU TIME:     0.47 SEC, REAL TIME:     0.68 SEC
 SORT2 READ    53636519. AND WROTE    58701685. INTEGRALS IN   1294 RECORDS. CPU TIME:     0.45 SEC, REAL TIME:     0.59 SEC

 FILE SIZES:   FILE 1:   370.0 MBYTE,  FILE 4:   654.4 MBYTE,   TOTAL:   1024.4 MBYTE

 OPERATOR DM      FOR CENTER  0  COORDINATES:    0.000000    0.000000    0.000000


 **********************************************************************************************************************************
 DATASETS  * FILE   NREC   LENGTH (MB)   RECORD NAMES
              1      19      294.48       500      610      700      900      950      970     1000      129      960     1100   
                                          VAR    BASINP    GEOM    SYMINP    ZMAT    AOBASIS   BASIS     P2S    ABASIS      S 
                                         1400     1410     1200     1210     1080     1600     1650     1300     1700   
                                           T        V       H0       H01     AOSYM     SMH    MOLCAS    ERIS     OPER   

 PROGRAMS   *        TOTAL       INT
 CPU TIMES  *         2.67      2.58
 REAL TIME  *         6.81 SEC
 DISK USED  *       977.35 MB
 **********************************************************************************************************************************


 Program * Restricted Hartree-Fock

 Orbital guess generated from atomic densities. Full valence occupancy:    6   2

 Initial occupancy:   4   1

 NELEC=   10   SYM=1   MS2= 0   THRE=1.0D-08   THRD=3.2D-06   THRG=3.2D-06  HFMA2=F  DIIS_START=2   DIIS_MAX=10   DIIS_INCORE=F

 Level shifts:    0.00 (CLOSED)    0.00 (OPEN)    0.30 (GAP_MIN)

 ITER           ETOT              DE          GRAD        DDIFF     DIIS  NEXP   TIME(IT)  TIME(TOT)  DIAG
   1      -56.19733881     -56.19733881     0.00D+00     0.51D-01     0     0       0.21      0.39    start
   2      -56.21806308      -0.02072427     0.75D-02     0.68D-02     1     0       0.21      0.60    diag
   3      -56.22296844      -0.00490536     0.38D-02     0.23D-02     2     0       0.21      0.81    diag
   4      -56.22319360      -0.00022517     0.57D-03     0.42D-03     3     0       0.22      1.03    diag
   5      -56.22320825      -0.00001465     0.13D-03     0.11D-03     4     0       0.20      1.23    diag
   6      -56.22320890      -0.00000065     0.23D-04     0.34D-04     5     0       0.22      1.45    diag
   7      -56.22320893      -0.00000002     0.40D-05     0.95D-05     6     0       0.20      1.65    diag
   8      -56.22320893      -0.00000000     0.11D-05     0.23D-05     7     0       0.20      1.85    fixocc
   9      -56.22320893      -0.00000000     0.14D-06     0.24D-06     0     0       0.20      2.05    diag

 Final occupancy:   4   1

 !RHF STATE 1.1 Energy                -56.223208927465
  RHF One-electron energy             -99.666885466420
  RHF Two-electron energy              31.473106564988
  RHF Kinetic energy                   56.171083496094
  RHF Nuclear energy                   11.970569973967
  RHF Virial quotient                  -1.000927976249

 !RHF STATE 1.1 Dipole moment           0.00000000     0.00000000    -0.64873957
 Dipole moment /Debye                   0.00000000     0.00000000    -1.64893151

 Orbital energies:

           1.1          2.1          3.1          4.1          5.1          6.1
    -15.536712    -1.141129    -0.626499    -0.429495     0.111390     0.182748

           1.2          2.2          3.2
     -0.626499     0.182748     0.379329


 HOMO      4.1    -0.429495 =     -11.6872eV
 LUMO      5.1     0.111390 =       3.0311eV
 LUMO-HOMO         0.540885 =      14.7182eV

 Orbitals saved in record  2100.2


 **********************************************************************************************************************************
 DATASETS  * FILE   NREC   LENGTH (MB)   RECORD NAMES
              1      19      294.48       500      610      700      900      950      970     1000      129      960     1100   
                                          VAR    BASINP    GEOM    SYMINP    ZMAT    AOBASIS   BASIS     P2S    ABASIS      S 
                                         1400     1410     1200     1210     1080     1600     1650     1300     1700   
                                           T        V       H0       H01     AOSYM     SMH    MOLCAS    ERIS     OPER   

              2       4        0.67       700     1000      520     2100   
                                         GEOM     BASIS   MCVARS     RHF  

 PROGRAMS   *        TOTAL    HF-SCF       INT
 CPU TIMES  *         4.72      2.05      2.58
 REAL TIME  *         9.71 SEC
 DISK USED  *       977.35 MB
 **********************************************************************************************************************************

 Dump information in style XML to xml output                                                                      

 Orbitals will not be exported.

 **********************************************************************************************************************************

 HF/cc-pCVQZ energy=    -56.223208927465

          HF-SCF
    -56.22320893
 **********************************************************************************************************************************
 Molpro calculation terminated
