
 Working directory              : /var/folders/2v/xbgp75_9785319ghcgb4zr4r0000gp/T//molpro.tEPOIMDqJm/
 Global scratch directory       : /var/folders/2v/xbgp75_9785319ghcgb4zr4r0000gp/T//molpro.tEPOIMDqJm/
 Wavefunction directory         : /Users/sacpjk/wfu/
 Main file repository           : /var/folders/2v/xbgp75_9785319ghcgb4zr4r0000gp/T//molpro.tEPOIMDqJm/

 id        : peterk

 Nodes                        nprocs
 Cardiff-University-G34YLXT77Y    1
 GA implementation: MPI file
 GA implementation (serial work in mppx): MPI file

 Using customized tuning parameters: mindgm=1; mindgv=20; mindgc=4; mindgr=1; noblas=0; minvec=7
 default implementation of scratch files=df  


 Variables initialized (1032), CPU time= 0.00 sec
 
 symmetry,nosym
 
 
 geometry={
            3
     C          0.00000000      0.00000000     -1.11118191
     N          0.00000000      0.00000000      0.05815587
     H          0.00000000      0.00000000      1.05302603
 }
 basis=cc-pVDZ
 
 
 
 hf; hf; papt; mp4
 
 
 
 {put,xml;noorbitals,nobasis}
 Commands initialized (841), CPU time= 0.01 sec, 704 directives.
 Default parameters read. Elapsed time= 0.08 sec

 Checking input...
 Passed
1


                                         ***  PROGRAM SYSTEM MOLPRO  ***
                                       Copyright, TTI GmbH Stuttgart, 2015
                                    Version 2023.1 linked Tue Jun  6 09:54:11 2023


 **********************************************************************************************************************************
 LABEL *                                                                                                                                                                 
  64 bit serial version                                                                  DATE: 09-Jun-23          TIME: 09:30:49  
 **********************************************************************************************************************************

 SHA1:             8ebb0dd001088a5c915591db1a321413035db0b1
 **********************************************************************************************************************************

 Memory per process:       805 MW
 Total memory per node:   1074 MW
 Total GA space:           268 MW

 GA preallocation disabled
 GA check enabled

 Variable memory set to 805.3 MW

 ZSYMEL=NOSYM


 Geometry recognized as XYZ

 SETTING BASIS          =    CC-PVDZ


 Recomputing integrals since basis changed


 Using spherical harmonics

 Library entry C      S cc-pVDZ              selected for orbital group  1
 Library entry C      P cc-pVDZ              selected for orbital group  1
 Library entry C      D cc-pVDZ              selected for orbital group  1
 Library entry N      S cc-pVDZ              selected for orbital group  2
 Library entry N      P cc-pVDZ              selected for orbital group  2
 Library entry N      D cc-pVDZ              selected for orbital group  2
 Library entry H      S cc-pVDZ              selected for orbital group  3
 Library entry H      P cc-pVDZ              selected for orbital group  3


 PROGRAM * SEWARD (Integral evaluation for generally contracted gaussian basis sets)     Author: Roland Lindh, 1990

 Geometry written to block  1 of record 700


 Point group  C1  



 ATOMIC COORDINATES

 NR  ATOM    CHARGE       X              Y              Z

   1  C       6.00    0.000000000    0.000000000   -2.099829485
   2  N       7.00    0.000000000    0.000000000    0.109898667
   3  H       1.00    0.000000000    0.000000000    1.989930799

 Bond lengths in Bohr (Angstrom)

 1-2  2.209728151  2-3  1.880032132
     ( 1.169337780)     ( 0.994870160)

 Bond angles

  1-2-3  180.00000000

 NUCLEAR CHARGE:                   14
 NUMBER OF PRIMITIVE AOS:          61
 NUMBER OF SYMMETRY AOS:           59
 NUMBER OF CONTRACTIONS:           33   (   33A   )
 NUMBER OF INNER CORE ORBITALS:     0   (    0A   )
 NUMBER OF OUTER CORE ORBITALS:     2   (    2A   )
 NUMBER OF VALENCE ORBITALS:        9   (    9A   )


 NUCLEAR REPULSION ENERGY   24.19728216

 EXTRA SYMMETRY OF AOS IN SYMMETRY 1:   1 1 1 2 3 1 2 3 1 1   4 2 5 3 1 1 1 2 3 1   2 3 1 1 4 2 5 3 1 1   2 3 1

 Eigenvalues of metric

         1 0.719E-02 0.253E-01 0.326E-01 0.394E-01 0.851E-01 0.121E+00 0.121E+00 0.134E+00


 Contracted 2-electron integrals neglected if value below      1.0D-11
 AO integral compression algorithm  1   Integral accuracy      1.0D-11

     0.524 MB (compressed) written to integral file ( 25.4%)


 NUMBER OF SORTED TWO-ELECTRON INTEGRALS:     157641.     BUFFER LENGTH:  32768
 NUMBER OF SEGMENTS:   1  SEGMENT LENGTH:     157641      RECORD LENGTH: 524288

 Memory used in sort:       0.71 MW

 SORT1 READ      211834. AND WROTE       38438. INTEGRALS IN      1 RECORDS. CPU TIME:     0.00 SEC, REAL TIME:     0.00 SEC
 SORT2 READ       38438. AND WROTE      157641. INTEGRALS IN      2 RECORDS. CPU TIME:     0.01 SEC, REAL TIME:     0.01 SEC

 FILE SIZES:   FILE 1:    30.6 MBYTE,  FILE 4:     4.3 MBYTE,   TOTAL:     34.8 MBYTE

 OPERATOR DM      FOR CENTER  0  COORDINATES:    0.000000    0.000000    0.000000


 **********************************************************************************************************************************
 DATASETS  * FILE   NREC   LENGTH (MB)   RECORD NAMES
              1      19       28.91       500      610      700      900      950      970     1000      129      960     1100   
                                          VAR    BASINP    GEOM    SYMINP    ZMAT    AOBASIS   BASIS     P2S    ABASIS      S 
                                         1400     1410     1200     1210     1080     1600     1650     1300     1700   
                                           T        V       H0       H01     AOSYM     SMH    MOLCAS    ERIS     OPER   

 PROGRAMS   *        TOTAL       INT
 CPU TIMES  *         0.19      0.10
 REAL TIME  *         0.47 SEC
 DISK USED  *        33.57 MB
 **********************************************************************************************************************************


 Program * Restricted Hartree-Fock

 Orbital guess generated from atomic densities. Full valence occupancy:   11

 Initial occupancy:   7

 NELEC=   14   SYM=1   MS2= 0   THRE=1.0D-08   THRD=3.2D-06   THRG=3.2D-06  HFMA2=F  DIIS_START=2   DIIS_MAX=10   DIIS_INCORE=F

 Level shifts:    0.00 (CLOSED)    0.00 (OPEN)    0.30 (GAP_MIN)

 ITER           ETOT              DE          GRAD        DDIFF     DIIS  NEXP   TIME(IT)  TIME(TOT)  DIAG
   1      -92.84778549     -92.84778549     0.00D+00     0.20D+00     0     0       0.00      0.00    start
   2      -92.86260177      -0.01481628     0.82D-02     0.17D-01     1     0       0.01      0.01    diag
   3      -92.86557299      -0.00297121     0.47D-02     0.88D-02     2     0       0.00      0.01    diag
   4      -92.86597173      -0.00039874     0.13D-02     0.20D-02     3     0       0.00      0.01    diag
   5      -92.86599000      -0.00001827     0.24D-03     0.63D-03     4     0       0.00      0.01    diag
   6      -92.86599140      -0.00000140     0.64D-04     0.19D-03     5     0       0.00      0.01    diag
   7      -92.86599146      -0.00000006     0.15D-04     0.40D-04     6     0       0.00      0.01    diag
   8      -92.86599146      -0.00000000     0.25D-05     0.59D-05     7     0       0.00      0.01    fixocc
   9      -92.86599146      -0.00000000     0.26D-06     0.73D-06     8     0       0.00      0.01    diag
  10      -92.86599146      -0.00000000     0.23D-07     0.61D-07     0     0       0.00      0.01    diag/orth

 Final occupancy:   7

 !RHF STATE 1.1 Energy                -92.865991459748
  RHF One-electron energy            -173.031101242969
  RHF Two-electron energy              55.967827622946
  RHF Kinetic energy                   92.717626495635
  RHF Nuclear energy                   24.197282160275
  RHF Virial quotient                  -1.001600180782

 !RHF STATE 1.1 Dipole moment           0.00000000     0.00000000     1.13290992
 Dipole moment /Debye                   0.00000000     0.00000000     2.87956979

 Orbital energies:

           1.1          2.1          3.1          4.1          5.1          6.1          7.1          8.1          9.1
    -15.606385   -11.298234    -1.261537    -0.870976    -0.513763    -0.513763    -0.483065     0.175953     0.195051


 HOMO      7.1    -0.483065 =     -13.1449eV
 LUMO      8.1     0.175953 =       4.7879eV
 LUMO-HOMO         0.659018 =      17.9328eV

 Orbitals saved in record  2100.2


 **********************************************************************************************************************************
 DATASETS  * FILE   NREC   LENGTH (MB)   RECORD NAMES
              1      19       28.91       500      610      700      900      950      970     1000      129      960     1100   
                                          VAR    BASINP    GEOM    SYMINP    ZMAT    AOBASIS   BASIS     P2S    ABASIS      S 
                                         1400     1410     1200     1210     1080     1600     1650     1300     1700   
                                           T        V       H0       H01     AOSYM     SMH    MOLCAS    ERIS     OPER   

              2       4        0.43       700     1000      520     2100   
                                         GEOM     BASIS   MCVARS     RHF  

 PROGRAMS   *        TOTAL    HF-SCF       INT
 CPU TIMES  *         0.20      0.00      0.10
 REAL TIME  *         0.53 SEC
 DISK USED  *        33.57 MB
 **********************************************************************************************************************************


 Program * Restricted Hartree-Fock

 Molecular orbitals read from record     2100.2  Type=RHF/CANONICAL  

 Initial occupancy:   7

 NELEC=   14   SYM=1   MS2= 0   THRE=1.0D-08   THRD=3.2D-06   THRG=3.2D-06  HFMA2=F  DIIS_START=2   DIIS_MAX=10   DIIS_INCORE=F

 Level shifts:    0.00 (CLOSED)    0.00 (OPEN)    0.30 (GAP_MIN)

 ITER           ETOT              DE          GRAD        DDIFF     DIIS  NEXP   TIME(IT)  TIME(TOT)  DIAG
   1      -92.86599146     -92.86599146     0.00D+00     0.20D+00     0     0       0.00      0.00    start
   2      -92.86599146       0.00000000     0.78D-08     0.20D-07     1     0       0.00      0.00    diag

 Final occupancy:   7

 !RHF STATE 1.1 Energy                -92.865991459748
  RHF One-electron energy            -173.031101298486
  RHF Two-electron energy              55.967827678462
  RHF Kinetic energy                   92.717626599439
  RHF Nuclear energy                   24.197282160275
  RHF Virial quotient                  -1.001600179661

 !RHF STATE 1.1 Dipole moment           0.00000000    -0.00000000     1.13290967
 Dipole moment /Debye                   0.00000000    -0.00000000     2.87956917

 Orbital energies:

           1.1          2.1          3.1          4.1          5.1          6.1          7.1          8.1          9.1
    -15.606385   -11.298234    -1.261537    -0.870976    -0.513763    -0.513763    -0.483065     0.175953     0.195051


 HOMO      7.1    -0.483065 =     -13.1449eV
 LUMO      8.1     0.175953 =       4.7879eV
 LUMO-HOMO         0.659018 =      17.9328eV

 Orbitals saved in record  2101.2


 **********************************************************************************************************************************
 DATASETS  * FILE   NREC   LENGTH (MB)   RECORD NAMES
              1      19       28.91       500      610      700      900      950      970     1000      129      960     1100   
                                          VAR    BASINP    GEOM    SYMINP    ZMAT    AOBASIS   BASIS     P2S    ABASIS      S 
                                         1400     1410     1200     1210     1080     1600     1650     1300     1700   
                                           T        V       H0       H01     AOSYM     SMH    MOLCAS    ERIS     OPER   

              2       5        0.55       700     1000      520     2100     2101   
                                         GEOM     BASIS   MCVARS     RHF      RHF  

 PROGRAMS   *        TOTAL    HF-SCF    HF-SCF       INT
 CPU TIMES  *         0.21      0.00      0.00      0.10
 REAL TIME  *         0.56 SEC
 DISK USED  *        33.57 MB
 **********************************************************************************************************************************


 PROGRAM * PAPT (Closed-shell)     Authors: C. Hampel, H.-J. Werner, 1991, P.J. Knowles, 2021


 Convergence thresholds:  THRVAR = 1.00D-08  THRDEN = 1.00D-06

 Number of core orbitals:           2 (   2 )
 Number of closed-shell orbitals:   5 (   5 )
 Number of external orbitals:      26 (  26 )

 Molecular orbitals read from record     2101.2  Type=RHF/CANONICAL  

 Number of N-1 electron functions:               5
 Number of N-2 electron functions:              15
 Number of singly external CSFs:               130
 Number of doubly external CSFs:              8515
 Total number of CSFs:                        8646

 Length of J-op  integral file:               0.00 MB
 Length of K-op  integral file:               0.14 MB

 Integral transformation finished. Total CPU:   0.00 sec, npass=  1  Memory used:   0.11 MW

 Reference energy:                    -92.86599146

                        CORR.ENERGY   TOTAL ENERGY   ENERGY CHANGE
 MP2:                   -0.27161314   -93.13760460    -0.27161314

 SCS-MP2 correlation energy:           -0.26629321   (PS=  1.200000  PT=  0.333333)
 SCS-MP2 total energy:                -93.13228467
 Iteration:   1     0.2394D+00
 Iteration:   2     0.7027D+00
 Iteration:   3     0.1384D+00
 Iteration:   4     0.8627D-01
 Iteration:   5     0.3063D-01
 Iteration:   6     0.2799D-01
 Iteration:   7     0.1494D-01
 Iteration:   8     0.3761D-02
 Iteration:   9     0.1416D-01
 Iteration:  10     0.1617D-02
 Iteration:  11     0.5483D-03
 Iteration:  12     0.1204D-02
 Iteration:  13     0.9016D-04
 PAPT operator written to  7000.1
 PAPT orbitals and eigenvalues written to  7000.2

 MP3(D):                -0.27976519   -93.14575665    -0.00815205



 RESULTS
 =======

  Reference energy                    -92.865991459748
  MP3 singlet pair energy              -0.186777307958
  MP3 triplet pair energy              -0.092987880615
  MP3 correlation energy               -0.279765188573

 !MP3 total energy                    -93.145756648321

 Timing summary (sec):

 STEP                 CPU(USER)    SYS     CPU(TOT)    WALL
 CCSD iterations         0.34      0.01      0.35      0.09

 Program statistics:

 Available memory in ccsd:               805306261
 Min. memory needed in ccsd:                 40095
 Max. memory used in ccsd:                   44920
 Max. memory used in cckext:                 72608 ( 1 integral passes)



 **********************************************************************************************************************************
 DATASETS  * FILE   NREC   LENGTH (MB)   RECORD NAMES
              1      21       29.12       500      610      700      900      950      970     1000      129      960     1100   
                                          VAR    BASINP    GEOM    SYMINP    ZMAT    AOBASIS   BASIS     P2S    ABASIS      S 
                                         1400     1410     1200     1210     1080     1600     1650     1300     1700     1380   
                                           T        V       H0       H01     AOSYM     SMH    MOLCAS    ERIS     OPER     JKOP   
                                         7000   
                                        PAPT AO    

              2       6        0.68       700     1000      520     2100     2101     7000   
                                         GEOM     BASIS   MCVARS     RHF      RHF     PAPT   

 PROGRAMS   *        TOTAL      PAPT    HF-SCF    HF-SCF       INT
 CPU TIMES  *         0.27      0.05      0.00      0.00      0.10
 REAL TIME  *         0.70 SEC
 DISK USED  *        33.57 MB
 **********************************************************************************************************************************


 PROGRAM * MP4 (Closed-shell)     Authors: C. Hampel, H.-J. Werner, 1991, M. Deegan, P.J. Knowles, 1992


 Convergence thresholds:  THRVAR = 1.00D-08  THRDEN = 1.00D-06

 MP4(T)     terms to be evaluated (factor= 0.000)


 Number of core orbitals:           2 (   2 )
 Number of closed-shell orbitals:   5 (   5 )
 Number of external orbitals:      26 (  26 )

 Molecular orbitals read from record     7000.2  Type=PAPT/CANONICAL (state 1.1)

 Number of N-1 electron functions:               5
 Number of N-2 electron functions:              15
 Number of singly external CSFs:               130
 Number of doubly external CSFs:              8515
 Total number of CSFs:                        8646

 Length of J-op  integral file:               0.00 MB
 Length of K-op  integral file:               0.14 MB

 Memory could be reduced to 0.22 Mwords without degradation in triples

 Integral transformation finished. Total CPU:   0.01 sec, npass=  1  Memory used:   0.22 MW
 Orbital energies read from record       7000.2  Type=PAPT/CANONICAL (state 1.1)

 Reference energy:                    -92.86599146

                        CORR.ENERGY   TOTAL ENERGY   ENERGY CHANGE
 MP2:                   -0.28446678   -93.15045824    -0.28446678

 SCS-MP2 correlation energy:           -0.28138055   (PS=  1.200000  PT=  0.333333)
 SCS-MP2 total energy:                -93.14737201

 MP3(D):                -0.28427189   -93.15026335     0.00019489
 MP4(DQ):               -0.28202640   -93.14801786     0.00224549
 MP4(SDQ):              -0.28563002   -93.15162148    -0.00360362

 Norm of t1 vector:      0.05877806      S-energy:    -0.00360362      T1 diagnostic:  0.01314317

 Largest off-diagonal element in interal  block of Fock matrix:  0.13D+00
 Largest off-diagonal element in external block of Fock matrix:  0.17D+00


 Total CPU time for triples:      0.01 sec


 RESULTS
 =======

  Reference energy                    -92.865991459748
  MP4(SDQ) singlet pair energy         -0.188249123660
  MP4(SDQ) triplet pair energy         -0.093777275285
  MP4(SDQ) correlation energy          -0.285630022651

  Triples contribution                 -0.012990193046
  Total correlation energy             -0.298620215697

  MP4(SDQ) total energy               -93.151621482399
 !MP4(SDTQ) total energy              -93.164611675445

 Timing summary (sec):

 STEP                 CPU(USER)    SYS     CPU(TOT)    WALL
 Transformation          0.01      0.00      0.01      0.01
 CCSD iterations         0.36      0.01      0.37      0.08
 Triples                 0.01      0.00      0.01      0.00

 Program statistics:

 Available memory in ccsd:               805306261
 Min. memory needed in ccsd:                 40095
 Max. memory used in ccsd:                   44920
 Max. memory used in cckext:                 72608 ( 1 integral passes)



 **********************************************************************************************************************************
 DATASETS  * FILE   NREC   LENGTH (MB)   RECORD NAMES
              1      22       29.47       500      610      700      900      950      970     1000      129      960     1100   
                                          VAR    BASINP    GEOM    SYMINP    ZMAT    AOBASIS   BASIS     P2S    ABASIS      S 
                                         1400     1410     1200     1210     1080     1600     1650     1300     1700     1380   
                                           T        V       H0       H01     AOSYM     SMH    MOLCAS    ERIS     OPER     JKOP   
                                         7000     1380(1)
                                        PAPT AO   JKOP   

              2       6        0.68       700     1000      520     2100     2101     7000   
                                         GEOM     BASIS   MCVARS     RHF      RHF     PAPT   

 PROGRAMS   *        TOTAL       MP4      PAPT    HF-SCF    HF-SCF       INT
 CPU TIMES  *         0.31      0.04      0.05      0.00      0.00      0.10
 REAL TIME  *         0.83 SEC
 DISK USED  *        33.57 MB
 **********************************************************************************************************************************

 Dump information in style XML to xml output                                                                      

 Orbitals will not be exported.

 **********************************************************************************************************************************

 MP4/cc-pVDZ energy=    -93.164611675445

             MP4            PAPT          HF-SCF          HF-SCF
    -93.16461168    -93.14575665    -92.86599146    -92.86599146
 **********************************************************************************************************************************
 Molpro calculation terminated
