
 Working directory              : /tmp/peterk/molpro.eGq3L8ENx7/
 Global scratch directory       : /tmp/peterk/molpro.eGq3L8ENx7/
 Wavefunction directory         : /home/peterk/wfu/
 Main file repository           : /tmp/peterk/molpro.eGq3L8ENx7/

 id        : peterk

 Nodes     nprocs
 marat        1
 GA implementation: MPI file
 GA implementation (serial work in mppx): MPI file

 Using customized tuning parameters: mindgm=1; mindgv=20; mindgc=4; mindgr=1; noblas=0; minvec=7
 default implementation of scratch files=df  


 Variables initialized (1032), CPU time= 0.00 sec
 
 symmetry,nosym
 
 
 geometry={
           12
     N         -1.20191411     -0.75939405      0.00000000
     P         -1.05835407      0.12455110     -1.47716751
     N          0.58567944      0.70758372     -1.37545632
     P          1.60012828      0.48099719      0.00000000
     N          0.58567944      0.70758372      1.37545632
     P         -1.05835407      0.12455110      1.47716751
     H         -0.68479837     -1.62767732      0.00000000
     H         -0.84723388     -1.04883155     -2.25457079
     H          0.68270745      1.63664799     -1.76047085
     H          1.56098630     -0.93382834      0.00000000
     H          0.68270745      1.63664799      1.76047085
     H         -0.84723388     -1.04883155      2.25457079
 }
 basis=cc-pVDZ
 
 
 
 hf; ccsd(t)
 
 
 
 {put,xml;noorbitals,nobasis}
 Commands initialized (841), CPU time= 0.01 sec, 708 directives.
 Default parameters read. Elapsed time= 0.06 sec

 Checking input...
 Passed
1


                                         ***  PROGRAM SYSTEM MOLPRO  ***
                                       Copyright, TTI GmbH Stuttgart, 2015
                                    Version 2023.1 linked Sat Jun 10 08:01:27 2023


 **********************************************************************************************************************************
 LABEL *                                                                                                                                                                 
  (16 PROC) 64 bit serial version                                                        DATE: 13-Jun-23          TIME: 11:41:04  
 **********************************************************************************************************************************

 SHA1:             8376d659ba1296ca7ee514c57770fe2c96af278c
 **********************************************************************************************************************************

 Memory per process:      1074 MW
 Total memory per node:   1074 MW

 GA preallocation disabled
 GA check disabled

 Variable memory set to 1073.7 MW

 ZSYMEL=NOSYM


 Geometry recognized as XYZ

 SETTING BASIS          =    CC-PVDZ


 Recomputing integrals since basis changed


 Using spherical harmonics

 Library entry N      S cc-pVDZ              selected for orbital group  1
 Library entry N      P cc-pVDZ              selected for orbital group  1
 Library entry N      D cc-pVDZ              selected for orbital group  1
 Library entry P      S cc-pVDZ              selected for orbital group  2
 Library entry P      P cc-pVDZ              selected for orbital group  2
 Library entry P      D cc-pVDZ              selected for orbital group  2
 Library entry H      S cc-pVDZ              selected for orbital group  7
 Library entry H      P cc-pVDZ              selected for orbital group  7


 PROGRAM * SEWARD (Integral evaluation for generally contracted gaussian basis sets)     Author: Roland Lindh, 1990

 Geometry written to block  1 of record 700


 Point group  C1  



 ATOMIC COORDINATES

 NR  ATOM    CHARGE       X              Y              Z

   1  N       7.00   -2.271288493   -1.435046775    0.000000000
   2  P      15.00   -1.999999335    0.235367468   -2.791442034
   3  N       7.00    1.106773738    1.337139441   -2.599235741
   4  P      15.00    3.023804213    0.908952956    0.000000000
   5  N       7.00    1.106773738    1.337139441    2.599235741
   6  P      15.00   -1.999999335    0.235367468    2.791442034
   7  H       1.00   -1.294081370   -3.075864354    0.000000000
   8  H       1.00   -1.601039997   -1.982004380   -4.260521322
   9  H       1.00    1.290130104    3.092816464   -3.326807757
  10  H       1.00    2.949836591   -1.764679810    0.000000000
  11  H       1.00    1.290130104    3.092816464    3.326807757
  12  H       1.00   -1.601039997   -1.982004380    4.260521322

 Bond lengths in Bohr (Angstrom)

 1-2  3.264357545  1-6  3.264357545  1-7  1.909768596  2-3  3.301951494  2-6  5.582884068
     ( 1.727423621)     ( 1.727423621)     ( 1.010606019)     ( 1.747317482)     ( 2.954335020)

  2- 8  2.689628305   3- 4  3.257971140   3- 9  1.909288454   4- 5  3.257971140   4-10  2.674655749
       ( 1.423290005)       ( 1.724044081)       ( 1.010351939)       ( 1.724044081)       ( 1.415366869)

  5- 6  3.301951494   5-11  1.909288454   6-12  2.689628305
       ( 1.747317482)       ( 1.010351939)       ( 1.423290005)

 Bond angles

  1-2-3  101.48795535   1-2-6   31.22617238   1-2-8   93.29834372   1-6-2   31.22617238

  1- 6- 5  101.48795535   1- 6-12   93.29834372   2- 1- 6  117.54765523   2- 1- 7  113.39852665

  2- 3- 4  123.79463993   2- 3- 9  112.02447692   2- 6- 5   86.66293158   2- 6-12  123.10681518

  3- 2- 6   86.66293158   3- 2- 8   99.63174455   3- 4- 5  105.84259494   3- 4-10   96.60965401

  4- 3- 9  111.61490224   4- 5- 6  123.79463993   4- 5-11  111.61490224   5- 4-10   96.60965401

  5- 6-12   99.63174455   6- 1- 7  113.39852665   6- 2- 8  123.10681518   6- 5-11  112.02447692

 NUCLEAR CHARGE:                   72
 NUMBER OF PRIMITIVE AOS:         249
 NUMBER OF SYMMETRY AOS:          243
 NUMBER OF CONTRACTIONS:          126   (  126A   )
 NUMBER OF INNER CORE ORBITALS:     3   (    3A   )
 NUMBER OF OUTER CORE ORBITALS:    15   (   15A   )
 NUMBER OF VALENCE ORBITALS:       30   (   30A   )


 NUCLEAR REPULSION ENERGY  480.51456426


 Eigenvalues of metric

         1 0.445E-02 0.459E-02 0.526E-02 0.135E-01 0.138E-01 0.203E-01 0.318E-01 0.319E-01


 Contracted 2-electron integrals neglected if value below      1.0D-11
 AO integral compression algorithm  1   Integral accuracy      1.0D-11

     133.431 MB (compressed) written to integral file ( 47.2%)


 NUMBER OF SORTED TWO-ELECTRON INTEGRALS:   32012001.     BUFFER LENGTH:  32768
 NUMBER OF SEGMENTS:   3  SEGMENT LENGTH:   15998004      RECORD LENGTH: 524288

 Memory used in sort:      16.56 MW

 SORT1 READ    35336834. AND WROTE    30876262. INTEGRALS IN     90 RECORDS. CPU TIME:     0.26 SEC, REAL TIME:     0.56 SEC
 SORT2 READ    30876262. AND WROTE    32012001. INTEGRALS IN    509 RECORDS. CPU TIME:     0.37 SEC, REAL TIME:     0.49 SEC

 FILE SIZES:   FILE 1:   164.2 MBYTE,  FILE 4:   377.6 MBYTE,   TOTAL:    541.8 MBYTE

 OPERATOR DM      FOR CENTER  0  COORDINATES:    0.000000    0.000000    0.000000


 **********************************************************************************************************************************
 DATASETS  * FILE   NREC   LENGTH (MB)   RECORD NAMES
              1      19      144.10       500      610      700      900      950      970     1000      129      960     1100   
                                          VAR    BASINP    GEOM    SYMINP    ZMAT    AOBASIS   BASIS     P2S    ABASIS      S 
                                         1400     1410     1200     1210     1080     1600     1650     1300     1700   
                                           T        V       H0       H01     AOSYM     SMH    MOLCAS    ERIS     OPER   

 PROGRAMS   *        TOTAL       INT
 CPU TIMES  *         3.55      3.42
 REAL TIME  *         4.82 SEC
 DISK USED  *       517.22 MB
 **********************************************************************************************************************************


 Program * Restricted Hartree-Fock

 Orbital guess generated from atomic densities. Full valence occupancy:   48

 Initial occupancy:  36

 NELEC=   72   SYM=1   MS2= 0   THRE=1.0D-08   THRD=3.2D-06   THRG=3.2D-06  HFMA2=F  DIIS_START=2   DIIS_MAX=10   DIIS_INCORE=F

 Level shifts:    0.00 (CLOSED)    0.00 (OPEN)    0.30 (GAP_MIN)

 ITER           ETOT              DE          GRAD        DDIFF     DIIS  NEXP   TIME(IT)  TIME(TOT)  DIAG
   1    -1188.99934567   -1188.99934567     0.00D+00     0.12D+00     0     0       0.16      0.32    start
   2    -1189.06558193      -0.06623626     0.40D-02     0.11D-01     1     0       0.17      0.49    diag
   3    -1189.07248274      -0.00690080     0.13D-02     0.27D-02     2     0       0.19      0.68    diag
   4    -1189.07376349      -0.00128075     0.55D-03     0.13D-02     3     0       0.17      0.85    diag
   5    -1189.07382813      -0.00006464     0.10D-03     0.25D-03     4     0       0.18      1.03    diag
   6    -1189.07383405      -0.00000593     0.27D-04     0.84D-04     5     0       0.17      1.20    diag
   7    -1189.07383450      -0.00000044     0.67D-05     0.24D-04     6     0       0.18      1.38    diag
   8    -1189.07383455      -0.00000005     0.23D-05     0.71D-05     7     0       0.18      1.56    fixocc
   9    -1189.07383455      -0.00000001     0.11D-05     0.31D-05     8     0       0.18      1.74    diag
  10    -1189.07383456      -0.00000000     0.34D-06     0.84D-06     0     0       0.17      1.91    diag/orth

 Final occupancy:  36

 !RHF STATE 1.1 Energy              -1189.073834556037
  RHF One-electron energy           -2599.187544590160
  RHF Two-electron energy             929.599145778843
  RHF Kinetic energy                 1188.783588672305
  RHF Nuclear energy                  480.514564255280
  RHF Virial quotient                  -1.000244153676

 !RHF STATE 1.1 Dipole moment           0.22868856    -0.08473275     0.00000000
 Dipole moment /Debye                   0.58126835    -0.21536918     0.00000000

 Orbital energies:

           1.1          2.1          3.1          4.1          5.1          6.1          7.1          8.1          9.1         10.1
    -79.995822   -79.995822   -79.993641   -15.566066   -15.556225   -15.556213    -7.530364    -7.530358    -7.527513    -5.424640

          11.1         12.1         13.1         14.1         15.1         16.1         17.1         18.1         19.1         20.1
     -5.424639    -5.423967    -5.423956    -5.422100    -5.422098    -5.421850    -5.421084    -5.419739    -1.221212    -1.150076

          21.1         22.1         23.1         24.1         25.1         26.1         27.1         28.1         29.1         30.1
     -1.145016    -0.844801    -0.837894    -0.757186    -0.670152    -0.626036    -0.614692    -0.594476    -0.546754    -0.518159

          31.1         32.1         33.1         34.1         35.1         36.1         37.1         38.1
     -0.484607    -0.445278    -0.418142    -0.378154    -0.359280    -0.326682     0.120294     0.156331


 HOMO     36.1    -0.326682 =      -8.8895eV
 LUMO     37.1     0.120294 =       3.2734eV
 LUMO-HOMO         0.446977 =      12.1629eV

 Orbitals saved in record  2100.2


 **********************************************************************************************************************************
 DATASETS  * FILE   NREC   LENGTH (MB)   RECORD NAMES
              1      19      144.10       500      610      700      900      950      970     1000      129      960     1100   
                                          VAR    BASINP    GEOM    SYMINP    ZMAT    AOBASIS   BASIS     P2S    ABASIS      S 
                                         1400     1410     1200     1210     1080     1600     1650     1300     1700   
                                           T        V       H0       H01     AOSYM     SMH    MOLCAS    ERIS     OPER   

              2       4        0.82       700     1000      520     2100   
                                         GEOM     BASIS   MCVARS     RHF  

 PROGRAMS   *        TOTAL    HF-SCF       INT
 CPU TIMES  *         5.46      1.91      3.42
 REAL TIME  *         6.94 SEC
 DISK USED  *       517.22 MB
 **********************************************************************************************************************************


 PROGRAM * CCSD (Closed-shell coupled cluster)     Authors: C. Hampel, H.-J. Werner, 1991, M. Deegan, P.J. Knowles, 1992


 Convergence thresholds:  THRVAR = 1.00D-08  THRDEN = 1.00D-06

 CCSD(T)     terms to be evaluated (factor= 1.000)


 Number of core orbitals:          18 (  18 )
 Number of closed-shell orbitals:  18 (  18 )
 Number of external orbitals:      90 (  90 )

 Molecular orbitals read from record     2100.2  Type=RHF/CANONICAL  

 Number of N-1 electron functions:              18
 Number of N-2 electron functions:             171
 Number of singly external CSFs:              1620
 Number of doubly external CSFs:           1313010
 Total number of CSFs:                     1314631

 Length of J-op  integral file:               0.00 MB
 Length of K-op  integral file:               1.15 MB
 Length of 3-ext integral record:             0.00 MB

 Memory could be reduced to 18.37 Mwords without degradation in triples

 Integral transformation finished. Total CPU:   1.65 sec, npass=  1  Memory used:  23.92 MW

 Reference energy:                  -1189.07383456

 MP2 singlet pair energy:              -0.52958275
 MP2 triplet pair energy:              -0.31938821
 MP2 correlation energy:               -0.84897096
 MP2 total energy:                  -1189.92280552

 SCS-MP2 correlation energy:           -0.83422974   (PS=  1.200000  PT=  0.333333)
 SCS-MP2 total energy:              -1189.90806430

 ITER.      SQ.NORM     CORR.ENERGY   TOTAL ENERGY   ENERGY CHANGE        DEN1      VAR(S)    VAR(P)  DIIS     TIME  TIME/IT
   1      1.34357702    -0.90447306 -1189.97830761    -0.05550210    -0.02795559  0.55D-02  0.67D-02  1  1    13.88     6.32
   2      1.37761071    -0.91048795 -1189.98432250    -0.00601489    -0.02737926  0.11D-03  0.94D-03  2  2    20.40     6.48
   3      1.38880132    -0.91070244 -1189.98453700    -0.00021450    -0.00502095  0.91D-04  0.44D-04  3  3    26.76     6.48
   4      1.39251005    -0.91070235 -1189.98453691     0.00000009    -0.00108503  0.78D-05  0.61D-05  4  4    33.23     6.50
   5      1.39364084    -0.91069420 -1189.98452876     0.00000815    -0.00021316  0.20D-05  0.65D-06  5  5    39.20     6.43
   6      1.39400393    -0.91067846 -1189.98451302     0.00001574    -0.00004450  0.24D-06  0.91D-07  6  6    45.22     6.38
   7      1.39408980    -0.91067565 -1189.98451021     0.00000281    -0.00000364  0.36D-07  0.18D-07  6  2    51.37     6.36
   8      1.39411719    -0.91067477 -1189.98450932     0.00000088    -0.00000308  0.73D-08  0.25D-08  6  1    57.46     6.34
   9      1.39412189    -0.91067469 -1189.98450925     0.00000008     0.00000161  0.13D-08  0.52D-09  6  4    63.62     6.33

 Norm of t1 vector:      0.11662150      S-energy:     0.00000036      T1 diagnostic:  0.01374398
                                                                       D1 diagnostic:  0.03730424
                                                                       D2 diagnostic:  0.16893027 (internal)


 Total CPU time for triples:     56.33 sec


 RESULTS
 =======

  Reference energy                  -1189.073834556038
  CCSD singlet pair energy             -0.620111765858
  CCSD triplet pair energy             -0.290563284149
  CCSD correlation energy              -0.910674689168

  Triples (T) contribution             -0.030667731411
  Total correlation energy             -0.941342420579

  CCSD total energy                 -1189.984509245206
  CCSD[T] energy                    -1190.016385986537
  CCSD-T energy                     -1190.014673740487
 !CCSD(T) total energy              -1190.015176976617

 Timing summary (sec):

 STEP                 CPU(USER)    SYS     CPU(TOT)    WALL
 Transformation          1.73      0.21      1.94      1.95
 CCSD iterations        62.00      1.01     63.01     57.12
 Triples                56.33      1.49     57.82     57.82

 Program statistics:

 Available memory in ccsd:              1073740492
 Min. memory needed in ccsd:               3549286
 Max. memory used in ccsd:                 4650238
 Max. memory used in cckext:               5670341 ( 9 integral passes)



 **********************************************************************************************************************************
 DATASETS  * FILE   NREC   LENGTH (MB)   RECORD NAMES
              1      20      226.11       500      610      700      900      950      970     1000      129      960     1100   
                                          VAR    BASINP    GEOM    SYMINP    ZMAT    AOBASIS   BASIS     P2S    ABASIS      S 
                                         1400     1410     1200     1210     1080     1600     1650     1300     1700     1380   
                                           T        V       H0       H01     AOSYM     SMH    MOLCAS    ERIS     OPER     JKOP   

              2       4        0.82       700     1000      520     2100   
                                         GEOM     BASIS   MCVARS     RHF  

 PROGRAMS   *        TOTAL   CCSD(T)    HF-SCF       INT
 CPU TIMES  *       119.67    114.21      1.91      3.42
 REAL TIME  *       123.89 SEC
 DISK USED  *       517.22 MB
 **********************************************************************************************************************************

 Dump information in style XML to xml output                                                                      

 Orbitals will not be exported.

 **********************************************************************************************************************************

 CCSD(T)/cc-pVDZ energy=  -1190.015176976617

         CCSD(T)          HF-SCF
  -1190.01517698  -1189.07383456
 **********************************************************************************************************************************
 Molpro calculation terminated
