
 Working directory              : /var/folders/2v/xbgp75_9785319ghcgb4zr4r0000gp/T//molpro.IUrMSHS5sx/
 Global scratch directory       : /var/folders/2v/xbgp75_9785319ghcgb4zr4r0000gp/T//molpro.IUrMSHS5sx/
 Wavefunction directory         : /Users/sacpjk/wfu/
 Main file repository           : /var/folders/2v/xbgp75_9785319ghcgb4zr4r0000gp/T//molpro.IUrMSHS5sx/

 id        : peterk

 Nodes                        nprocs
 Cardiff-University-G34YLXT77Y    1
 GA implementation: MPI file
 GA implementation (serial work in mppx): MPI file

 Using customized tuning parameters: mindgm=1; mindgv=20; mindgc=4; mindgr=1; noblas=0; minvec=7
 default implementation of scratch files=df  


 Variables initialized (1037), CPU time= 0.00 sec
 
 symmetry,nosym
 
 
 geometry={
 12
  c         -1.451532589048   -1.212963296421   -0.094727684545
  h         -0.801569745646   -2.074075173608   -0.227643071893
  h         -2.132508558849   -1.135491237646   -0.938592959757
  h         -2.064549486661   -1.351759283419    0.792280678295
  c         -0.696800510846    0.085049580740    0.037865822274
  o         -1.273515957695    1.160344436331    0.194454564502
  n          0.653832612108   -0.012453103688   -0.026752146478
  h          1.054784239927   -0.922987082530   -0.156267244560
  c          1.522074724085    1.139517356532    0.082690935242
  h          0.885580594204    2.007817799717    0.217475542263
  h          2.187664231432    1.048062158332    0.938783816528
  h          2.116540446989    1.268937845660   -0.819568251870
 }
 basis=aug-cc-pVDZ
 
 
 
 hf; mp2; counterpoise
 
 
 
 {put,xml;noorbitals,nobasis}
 Commands initialized (841), CPU time= 0.01 sec, 716 directives.
 Default parameters read. Elapsed time= 0.38 sec

 Checking input...
 Passed
1


                                         ***  PROGRAM SYSTEM MOLPRO  ***
                                       Copyright, TTI GmbH Stuttgart, 2015
                                    Version 2023.1 linked Fri Jul  7 12:12:39 2023


 **********************************************************************************************************************************
 LABEL *                                                                                                                                                                 
  64 bit serial version                                                                  DATE: 07-Jul-23          TIME: 15:57:51  
 **********************************************************************************************************************************

 SHA1:             0fe2fddcc441eb00bb4c7ecb49b93e22d4ddc339
 **********************************************************************************************************************************

 Memory per process:       393 MW
 Total memory per node:    524 MW
 Total GA space:           131 MW

 GA preallocation disabled
 GA check enabled

 Variable memory set to 393.2 MW

 ZSYMEL=NOSYM


 Geometry recognized as XYZ

 SETTING BASIS          =    AUG-CC-PVDZ


 Recomputing integrals since basis changed


 Using spherical harmonics

 Library entry C      S aug-cc-pVDZ          selected for orbital group  1
 Library entry C      P aug-cc-pVDZ          selected for orbital group  1
 Library entry C      D aug-cc-pVDZ          selected for orbital group  1
 Library entry H      S aug-cc-pVDZ          selected for orbital group  2
 Library entry H      P aug-cc-pVDZ          selected for orbital group  2
 Library entry O      S aug-cc-pVDZ          selected for orbital group  4
 Library entry O      P aug-cc-pVDZ          selected for orbital group  4
 Library entry O      D aug-cc-pVDZ          selected for orbital group  4
 Library entry N      S aug-cc-pVDZ          selected for orbital group  5
 Library entry N      P aug-cc-pVDZ          selected for orbital group  5
 Library entry N      D aug-cc-pVDZ          selected for orbital group  5


 PROGRAM * SEWARD (Integral evaluation for generally contracted gaussian basis sets)     Author: Roland Lindh, 1990

 Geometry written to block  1 of record 700


 Point group  C1  



 ATOMIC COORDINATES

 NR  ATOM    CHARGE       X              Y              Z

   1  C       6.00   -2.742999054   -2.292168429   -0.179009380
   2  H       1.00   -1.514747289   -3.919434040   -0.430183060
   3  H       1.00   -4.029857135   -2.145767456   -1.773683636
   4  H       1.00   -3.901433101   -2.554454832    1.497193496
   5  C       6.00   -1.316762129    0.160720415    0.071556034
   6  O       8.00   -2.406596375    2.192733195    0.367465871
   7  N       7.00    1.235564568   -0.023532955   -0.050554230
   8  H       1.00    1.993253334   -1.744192803   -0.295302294
   9  C       6.00    2.876304370    2.153375718    0.156263221
  10  H       1.00    1.673504784    3.794225750    0.410969214
  11  H       1.00    4.134086250    1.980550441    1.774044303
  12  H       1.00    3.999681777    2.397944997   -1.548759536

 Bond lengths in Bohr (Angstrom)

 1-2  2.054186940  1-3  2.054366800  1-4  2.054366004  1-5  2.848437901  5-6  2.324731652
     ( 1.087028915)     ( 1.087124093)     ( 1.087123672)     ( 1.507328424)     ( 1.230195012)

  5- 7  2.561880518   7- 8  1.895959965   7- 9  2.733812709   9-10  2.050363580   9-11  2.056477441
       ( 1.355688787)       ( 1.003298806)       ( 1.446671384)       ( 1.085005681)       ( 1.088240997)

  9-12  2.056427371
       ( 1.088214501)

 Bond angles

  1-5-6  121.94937241   1-5-7  115.63995729   2-1-3  109.63827190   2-1-4  109.62066912

  2-1-5  113.17461219   3-1-4  106.81163439   3-1-5  108.69676201   4-1-5  108.69400884

  5- 7- 8  118.00621069   5- 7- 9  122.48312985   6- 5- 7  122.41067020   7- 9-10  107.13197896

  7- 9-11  111.07971118   7- 9-12  111.09000569   8- 7- 9  119.51064217  10- 9-11  109.16700179

 10- 9-12  109.16453086  11- 9-12  109.15526957

 NUCLEAR CHARGE:                   40
 NUMBER OF PRIMITIVE AOS:         262
 NUMBER OF SYMMETRY AOS:          252
 NUMBER OF CONTRACTIONS:          178   (  178A   )
 NUMBER OF INNER CORE ORBITALS:     0   (    0A   )
 NUMBER OF OUTER CORE ORBITALS:     5   (    5A   )
 NUMBER OF VALENCE ORBITALS:       27   (   27A   )


 NUCLEAR REPULSION ENERGY  180.56084116


 Eigenvalues of metric

         1 0.397E-04 0.123E-03 0.148E-03 0.238E-03 0.394E-03 0.440E-03 0.530E-03 0.579E-03


 Contracted 2-electron integrals neglected if value below      1.0D-12
 AO integral compression algorithm  1   Integral accuracy      1.0D-12

     686.031 MB (compressed) written to integral file ( 60.0%)


 NUMBER OF SORTED TWO-ELECTRON INTEGRALS:  126906346.     BUFFER LENGTH:  32768
 NUMBER OF SEGMENTS:   8  SEGMENT LENGTH:   15999503      RECORD LENGTH: 524288

 Memory used in sort:      16.56 MW

 SORT1 READ   142775771. AND WROTE   125520332. INTEGRALS IN    363 RECORDS. CPU TIME:     1.00 SEC, REAL TIME:     1.35 SEC
 SORT2 READ   125520332. AND WROTE   126906346. INTEGRALS IN   2617 RECORDS. CPU TIME:     0.85 SEC, REAL TIME:     1.12 SEC

 FILE SIZES:   FILE 1:   717.4 MBYTE,  FILE 4:  1522.6 MBYTE,   TOTAL:   2240.0 MBYTE

 OPERATOR DM      FOR CENTER  0  COORDINATES:    0.000000    0.000000    0.000000


 **********************************************************************************************************************************
 DATASETS  * FILE   NREC   LENGTH (MB)   RECORD NAMES
              1      19      622.58       500      610      700      900      950      970     1000      129      960     1100   
                                          VAR    BASINP    GEOM    SYMINP    ZMAT    AOBASIS   BASIS     P2S    ABASIS      S 
                                         1400     1410     1200     1210     1080     1600     1650     1300     1700   
                                           T        V       H0       H01     AOSYM     SMH    MOLCAS    ERIS     OPER   

 PROGRAMS   *        TOTAL       INT
 CPU TIMES  *         5.02      4.92
 REAL TIME  *        16.70 SEC
 DISK USED  *         2.09 GB
 **********************************************************************************************************************************


 Program * Restricted Hartree-Fock

 Orbital guess generated from atomic densities. Full valence occupancy:   32

 Initial occupancy:  20

 NELEC=   40   SYM=1   MS2= 0   THRE=1.0D-08   THRD=3.2D-06   THRG=3.2D-06  HFMA2=F  DIIS_START=2   DIIS_MAX=10   DIIS_INCORE=F

 Level shifts:    0.00 (CLOSED)    0.00 (OPEN)    0.30 (GAP_MIN)

 ITER           ETOT              DE          GRAD        DDIFF     DIIS  NEXP   TIME(IT)  TIME(TOT)  DIAG
   1     -246.92829871    -246.92829871     0.00D+00     0.68D-01     0     0       0.51      1.02    start
   2     -246.99569348      -0.06739476     0.57D-02     0.11D-01     1     0       0.55      1.57    diag
   3     -247.03904551      -0.04335204     0.43D-02     0.41D-02     2     0       0.69      2.26    diag
   4     -247.04143999      -0.00239448     0.66D-03     0.13D-02     3     0       0.63      2.89    diag
   5     -247.04166554      -0.00022554     0.18D-03     0.42D-03     4     0       0.56      3.45    diag
   6     -247.04169625      -0.00003071     0.57D-04     0.15D-03     5     0       0.59      4.04    diag
   7     -247.04170123      -0.00000499     0.26D-04     0.53D-04     6     0       0.57      4.61    diag
   8     -247.04170212      -0.00000089     0.10D-04     0.24D-04     7     0       0.55      5.16    fixocc
   9     -247.04170226      -0.00000014     0.37D-05     0.11D-04     8     0       0.58      5.74    diag
  10     -247.04170227      -0.00000001     0.91D-06     0.28D-05     9     0       0.53      6.27    diag/orth
  11     -247.04170227      -0.00000000     0.24D-06     0.47D-06     0     0       0.53      6.80    diag

 Final occupancy:  20

 !RHF STATE 1.1 Energy               -247.041702271173
  RHF One-electron energy            -693.437068806044
  RHF Two-electron energy             265.834525371676
  RHF Kinetic energy                  246.732990570611
  RHF Nuclear energy                  180.560841163195
  RHF Virial quotient                  -1.001251197498

 !RHF STATE 1.1 Dipole moment           1.03939918    -1.26615575    -0.19869932
 Dipole moment /Debye                   2.64188919    -3.21824691    -0.50504330

 Orbital energies:

           1.1          2.1          3.1          4.1          5.1          6.1          7.1          8.1          9.1         10.1
    -20.518761   -15.594362   -11.355091   -11.263296   -11.242494    -1.374509    -1.233485    -1.021472    -0.935081    -0.791486

          11.1         12.1         13.1         14.1         15.1         16.1         17.1         18.1         19.1         20.1
     -0.691485    -0.653003    -0.632965    -0.586377    -0.578763    -0.556632    -0.544267    -0.502214    -0.418627    -0.389619

          21.1         22.1
      0.028885     0.042831


 HOMO     20.1    -0.389619 =     -10.6021eV
 LUMO     21.1     0.028885 =       0.7860eV
 LUMO-HOMO         0.418504 =      11.3881eV

 Orbitals saved in record  2100.2


 **********************************************************************************************************************************
 DATASETS  * FILE   NREC   LENGTH (MB)   RECORD NAMES
              1      19      622.58       500      610      700      900      950      970     1000      129      960     1100   
                                          VAR    BASINP    GEOM    SYMINP    ZMAT    AOBASIS   BASIS     P2S    ABASIS      S 
                                         1400     1410     1200     1210     1080     1600     1650     1300     1700   
                                           T        V       H0       H01     AOSYM     SMH    MOLCAS    ERIS     OPER   

              2       4        1.07       700     1000      520     2100   
                                         GEOM     BASIS   MCVARS     RHF  

 PROGRAMS   *        TOTAL    HF-SCF       INT
 CPU TIMES  *        11.82      6.80      4.92
 REAL TIME  *        26.15 SEC
 DISK USED  *         2.09 GB
 **********************************************************************************************************************************


 PROGRAM * MP2 (Closed-shell)     Authors: C. Hampel, H.-J. Werner, 1991, M. Deegan, P.J. Knowles, 1992


 Convergence thresholds:  THRVAR = 1.00D-08  THRDEN = 1.00D-06

 Number of core orbitals:           5 (   5 )
 Number of closed-shell orbitals:  15 (  15 )
 Number of external orbitals:     158 ( 158 )

 Molecular orbitals read from record     2100.2  Type=RHF/CANONICAL  

 Number of N-1 electron functions:              15
 Number of N-2 electron functions:             120
 Number of singly external CSFs:              2370
 Number of doubly external CSFs:           2809635
 Total number of CSFs:                     2812006

 Length of J-op  integral file:               0.00 MB
 Length of K-op  integral file:               2.24 MB

 Integral transformation finished. Total CPU:   1.36 sec, npass=  1  Memory used:   6.94 MW

 Memory needed for MP2:                      0.15 MW

 SCS-MP2 correlation energy:           -0.790252906799   (PS=  1.200000  PT=  0.333333)
 SCS-MP2 total energy:               -247.831955177974


  Reference energy                   -247.041702271174
  MP2 singlet pair energy              -0.501144135376
  MP2 triplet pair energy              -0.303557053416
  MP2 correlation energy               -0.804701188792

 !MP2 total energy                   -247.846403459967


 **********************************************************************************************************************************
 DATASETS  * FILE   NREC   LENGTH (MB)   RECORD NAMES
              1      20      666.66       500      610      700      900      950      970     1000      129      960     1100   
                                          VAR    BASINP    GEOM    SYMINP    ZMAT    AOBASIS   BASIS     P2S    ABASIS      S 
                                         1400     1410     1200     1210     1080     1600     1650     1300     1700     1380   
                                           T        V       H0       H01     AOSYM     SMH    MOLCAS    ERIS     OPER     JKOP   

              2       4        1.07       700     1000      520     2100   
                                         GEOM     BASIS   MCVARS     RHF  

 PROGRAMS   *        TOTAL       MP2    HF-SCF       INT
 CPU TIMES  *        13.45      1.63      6.80      4.92
 REAL TIME  *        30.19 SEC
 DISK USED  *         2.09 GB
 **********************************************************************************************************************************

 Counterpoise: absolute minimum monomer separation=    -1.000 Bragg radius scale factor=     1.400 Number of monomers= 1
 Counterpoise skipped because only a single monomer


 **********************************************************************************************************************************
 DATASETS  * FILE   NREC   LENGTH (MB)   RECORD NAMES
              1      20      666.66       500      610      700      900      950      970     1000      129      960     1100   
                                          VAR    BASINP    GEOM    SYMINP    ZMAT    AOBASIS   BASIS     P2S    ABASIS      S 
                                         1400     1410     1200     1210     1080     1600     1650     1300     1700     1380   
                                           T        V       H0       H01     AOSYM     SMH    MOLCAS    ERIS     OPER     JKOP   

              2       4        1.07       700     1000      520     2100   
                                         GEOM     BASIS   MCVARS     RHF  

 PROGRAMS   *        TOTALCOUNTERPOI       MP2    HF-SCF       INT
 CPU TIMES  *        13.45      0.00      1.63      6.80      4.92
 REAL TIME  *        30.27 SEC
 DISK USED  *         2.09 GB
 **********************************************************************************************************************************

 Dump information in style XML to xml output                                                                      

 Orbitals will not be exported.

 **********************************************************************************************************************************

 MP2/aug-cc-pVDZ energy=   -247.846403459967

             MP2          HF-SCF
   -247.84640346   -247.04170227
 **********************************************************************************************************************************
 Molpro calculation terminated
