
 Working directory              : /var/folders/2v/xbgp75_9785319ghcgb4zr4r0000gp/T//molpro.OsVxcLuHE6/
 Global scratch directory       : /var/folders/2v/xbgp75_9785319ghcgb4zr4r0000gp/T//molpro.OsVxcLuHE6/
 Wavefunction directory         : /Users/sacpjk/wfu/
 Main file repository           : /var/folders/2v/xbgp75_9785319ghcgb4zr4r0000gp/T//molpro.OsVxcLuHE6/

 id        : peterk

 Nodes                        nprocs
 Cardiff-University-G34YLXT77Y    1
 GA implementation: MPI file
 GA implementation (serial work in mppx): MPI file

 Using customized tuning parameters: mindgm=1; mindgv=20; mindgc=4; mindgr=1; noblas=0; minvec=7
 default implementation of scratch files=df  


 Variables initialized (1032), CPU time= 0.00 sec
 
 symmetry,nosym
 
 
 geometry={
            3
     H         -0.60861063      0.82103438      0.00000000
     C          0.30430532      0.17779826      0.00000000
     O          0.30430532     -0.99883264      0.00000000
 }
 basis=cc-pVDZ
 
 
 spin=1
 uhf
 
 
 
 {put,xml;noorbitals,nobasis}
 Commands initialized (841), CPU time= 0.00 sec, 704 directives.
 Default parameters read. Elapsed time= 0.18 sec

 Checking input...
 Passed
1


                                         ***  PROGRAM SYSTEM MOLPRO  ***
                                       Copyright, TTI GmbH Stuttgart, 2015
                                    Version 2023.1 linked Tue Jun  6 09:54:11 2023


 **********************************************************************************************************************************
 LABEL *                                                                                                                                                                 
  64 bit serial version                                                                  DATE: 09-Jun-23          TIME: 09:26:53  
 **********************************************************************************************************************************

 SHA1:             8ebb0dd001088a5c915591db1a321413035db0b1
 **********************************************************************************************************************************

 Memory per process:       805 MW
 Total memory per node:   1074 MW
 Total GA space:           268 MW

 GA preallocation disabled
 GA check enabled

 Variable memory set to 805.3 MW

 ZSYMEL=NOSYM


 Geometry recognized as XYZ

 SETTING BASIS          =    CC-PVDZ
 SETTING SPIN           =         1.00000000                                  


 Recomputing integrals since basis changed


 Using spherical harmonics

 Library entry H      S cc-pVDZ              selected for orbital group  1
 Library entry H      P cc-pVDZ              selected for orbital group  1
 Library entry C      S cc-pVDZ              selected for orbital group  2
 Library entry C      P cc-pVDZ              selected for orbital group  2
 Library entry C      D cc-pVDZ              selected for orbital group  2
 Library entry O      S cc-pVDZ              selected for orbital group  3
 Library entry O      P cc-pVDZ              selected for orbital group  3
 Library entry O      D cc-pVDZ              selected for orbital group  3


 PROGRAM * SEWARD (Integral evaluation for generally contracted gaussian basis sets)     Author: Roland Lindh, 1990

 Geometry written to block  1 of record 700


 Point group  C1  



 ATOMIC COORDINATES

 NR  ATOM    CHARGE       X              Y              Z

   1  H       1.00   -1.150107407    1.551530117    0.000000000
   2  C       6.00    0.575053713    0.335990017    0.000000000
   3  O       8.00    0.575053713   -1.887520134    0.000000000

 Bond lengths in Bohr (Angstrom)

 1-2  2.110383526  2-3  2.223510151
     ( 1.116766868)     ( 1.176630900)

 Bond angles

  1-2-3  125.16833752

 NUCLEAR CHARGE:                   15
 NUMBER OF PRIMITIVE AOS:          61
 NUMBER OF SYMMETRY AOS:           59
 NUMBER OF CONTRACTIONS:           33   (   33A   )
 NUMBER OF INNER CORE ORBITALS:     0   (    0A   )
 NUMBER OF OUTER CORE ORBITALS:     2   (    2A   )
 NUMBER OF VALENCE ORBITALS:        9   (    9A   )


 NUCLEAR REPULSION ENERGY   26.50984657

 EXTRA SYMMETRY OF AOS IN SYMMETRY 1:   1 1 1 1 2 1 1 1 1 1   2 1 1 2 1 1 2 1 2 1   1 1 1 1 2 1 1 2 1 1   2 1 2

 Eigenvalues of metric

         1 0.136E-01 0.198E-01 0.452E-01 0.671E-01 0.114E+00 0.129E+00 0.140E+00 0.148E+00


 Contracted 2-electron integrals neglected if value below      1.0D-11
 AO integral compression algorithm  1   Integral accuracy      1.0D-11

     0.524 MB (compressed) written to integral file ( 39.9%)


 NUMBER OF SORTED TWO-ELECTRON INTEGRALS:     157641.     BUFFER LENGTH:  32768
 NUMBER OF SEGMENTS:   1  SEGMENT LENGTH:     157641      RECORD LENGTH: 524288

 Memory used in sort:       0.71 MW

 SORT1 READ      218914. AND WROTE       60892. INTEGRALS IN      1 RECORDS. CPU TIME:     0.01 SEC, REAL TIME:     0.00 SEC
 SORT2 READ       60892. AND WROTE      157641. INTEGRALS IN      2 RECORDS. CPU TIME:     0.00 SEC, REAL TIME:     0.00 SEC

 FILE SIZES:   FILE 1:    30.6 MBYTE,  FILE 4:     4.3 MBYTE,   TOTAL:     34.8 MBYTE

 OPERATOR DM      FOR CENTER  0  COORDINATES:    0.000000    0.000000    0.000000


 **********************************************************************************************************************************
 DATASETS  * FILE   NREC   LENGTH (MB)   RECORD NAMES
              1      19       29.00       500      610      700      900      950      970     1000      129      960     1100   
                                          VAR    BASINP    GEOM    SYMINP    ZMAT    AOBASIS   BASIS     P2S    ABASIS      S 
                                         1400     1410     1200     1210     1080     1600     1650     1300     1700   
                                           T        V       H0       H01     AOSYM     SMH    MOLCAS    ERIS     OPER   

 PROGRAMS   *        TOTAL       INT
 CPU TIMES  *         0.18      0.10
 REAL TIME  *         0.86 SEC
 DISK USED  *        33.57 MB
 **********************************************************************************************************************************


 Program * Unrestricted Hartree-Fock

 Orbital guess generated from atomic densities. Full valence occupancy:   11

 Initial alpha occupancy:   8
 Initial beta  occupancy:   7

 Elapsed time for starting guess:      0.00 sec

 NELEC=   15   SYM=1   MS2=1   THRE=1.0D-08   THRD=3.2D-06   THRG=3.2D-06  HFMA2=F  DIIS_START=2   DIIS_MAX=10   DIIS_INCORE=F

 Initial level shifts:    0.20 (ALPHA)    0.20 (BETA)

 ITER         ETOT            DE          GRAD         DDIFF    DIIS  NEXP   TIME(IT)  TIME(TOT)  DIAG
   1   -113.21988925  -113.21988925     0.00D+00     0.00D+00     0     0       0.00      0.00    start
   2   -113.24912278    -0.02923353     0.15D-01     0.21D+00     1     0       0.00      0.00    diag
   3   -113.25794741    -0.00882464     0.82D-02     0.30D-01     2     0       0.00      0.00    diag
   4   -113.25869463    -0.00074722     0.16D-02     0.95D-02     3     0       0.00      0.00    diag
   5   -113.25884951    -0.00015488     0.65D-03     0.22D-02     4     0       0.00      0.00    diag
   6   -113.25888224    -0.00003273     0.23D-03     0.10D-02     5     0       0.01      0.01    diag
   7   -113.25889481    -0.00001257     0.12D-03     0.37D-03     6     0       0.00      0.01    diag
   8   -113.25890790    -0.00001309     0.91D-04     0.14D-03     6     0       0.00      0.01    diag
   9   -113.25891995    -0.00001205     0.71D-04     0.14D-03     6     0       0.00      0.01    diag
  10   -113.25892722    -0.00000727     0.50D-04     0.15D-03     7     0       0.00      0.01    diag/ort
  11   -113.25893152    -0.00000430     0.35D-04     0.11D-03     8     0       0.00      0.01    diag
  12   -113.25893238    -0.00000086     0.22D-04     0.11D-03     9     0       0.00      0.01    diag
  13   -113.25893265    -0.00000027     0.11D-04     0.43D-04     9     0       0.00      0.01    diag
  14   -113.25893268    -0.00000003     0.64D-05     0.31D-04     9     0       0.01      0.02    diag
  15   -113.25893269    -0.00000000     0.23D-05     0.10D-04     9     0       0.00      0.02    diag
  16   -113.25893269    -0.00000000     0.85D-06     0.33D-05     9     0       0.00      0.02    diag

 Final alpha occupancy:   8
 Final beta  occupancy:   7

 !UHF STATE 1.1 Energy               -113.258932685929
  UHF One-electron energy            -207.008822447149
  UHF Two-electron energy              67.240043187681
  UHF Kinetic energy                  113.130842548693
  UHF Nuclear energy                   26.509846573538
  UHF Virial quotient                  -1.001132230030

 !UHF STATE 1.1 Dipole moment          -0.35756425     0.74302887     0.00000000
 Dipole moment /Debye                  -0.90883767     1.88859101     0.00000000

 EXPECTATION VALUE OF S**2:             0.76343712

 Orbital energies for positive spin:

           1.1          2.1          3.1          4.1          5.1          6.1          7.1          8.1          9.1         10.1
    -20.621352   -11.357312    -1.459721    -0.855857    -0.709376    -0.646327    -0.569719    -0.384257     0.129794     0.205426

 Orbital energies for negative spin:

           1.1          2.1          3.1          4.1          5.1          6.1          7.1          8.1          9.1
    -20.609079   -11.338072    -1.430666    -0.795170    -0.661807    -0.570510    -0.519511     0.111097     0.155052


 HOMO      8.1    -0.384257 =     -10.4562eV
 LUMO     -8.1     0.111097 =       3.0231eV
 LUMO-HOMO         0.495353 =      13.4792eV

 Orbitals saved in record  2200.2

 Occupation number threshold for pseudo-canonical orbitals: 1.9990 (occupied), 0.0010 (virtual)

 Number of pseudo-canonical occupied orbitals per symmetry:    4
 Number of active natural orbitals per symmetry:               7

 Natural orbitals saved to record    2200.2 (Orbital set 3)

 Orbital spaces for UNO-CAS (Min. occupation: 0.020  Max. occupation: 1.980):

 Closed:        7
 Active:        1


 **********************************************************************************************************************************
 DATASETS  * FILE   NREC   LENGTH (MB)   RECORD NAMES
              1      19       29.00       500      610      700      900      950      970     1000      129      960     1100   
                                          VAR    BASINP    GEOM    SYMINP    ZMAT    AOBASIS   BASIS     P2S    ABASIS      S 
                                         1400     1410     1200     1210     1080     1600     1650     1300     1700   
                                           T        V       H0       H01     AOSYM     SMH    MOLCAS    ERIS     OPER   

              2       4        0.46       700     1000      520     2200   
                                         GEOM     BASIS   MCVARS     UHF  

              4       3        0.25      2900     3000     3100   

 PROGRAMS   *        TOTAL   UHF-SCF       INT
 CPU TIMES  *         0.20      0.02      0.10
 REAL TIME  *         1.10 SEC
 DISK USED  *        33.57 MB
 **********************************************************************************************************************************

 Dump information in style XML to xml output                                                                      

 Orbitals will not be exported.

 **********************************************************************************************************************************

 UHF/cc-pVDZ energy=   -113.258932685929

         UHF-SCF
   -113.25893269
 **********************************************************************************************************************************
 Molpro calculation terminated
