
 Working directory              : /var/folders/2v/xbgp75_9785319ghcgb4zr4r0000gp/T//molpro.4THII7nSUB/
 Global scratch directory       : /var/folders/2v/xbgp75_9785319ghcgb4zr4r0000gp/T//molpro.4THII7nSUB/
 Wavefunction directory         : /Users/sacpjk/wfu/
 Main file repository           : /var/folders/2v/xbgp75_9785319ghcgb4zr4r0000gp/T//molpro.4THII7nSUB/

 id        : peterk

 Nodes                        nprocs
 Cardiff-University-G34YLXT77Y    1
 GA implementation: MPI file
 GA implementation (serial work in mppx): MPI file

 Using customized tuning parameters: mindgm=1; mindgv=20; mindgc=4; mindgr=1; noblas=0; minvec=7
 default implementation of scratch files=df  


 Variables initialized (1032), CPU time= 0.00 sec
 
 symmetry,nosym
 
 
 geometry={
           13
     O          2.54770164      0.17637118     -0.96243673
     P          1.35740121      0.08791102      0.07309955
     O          1.26604298      1.25023263      0.98046732
     O          0.00000000      0.00000000     -0.84441869
     P         -1.35740121     -0.08791102      0.07309955
     O         -1.26604298     -1.25023263      0.98046732
     O         -1.48629943      1.36580219      0.69233965
     O         -2.54770164     -0.17637118     -0.96243673
     O          1.48629943     -1.36580219      0.69233965
     H          2.75416576     -0.67569426     -1.38395250
     H         -0.58663145      1.63952936      1.02269206
     H         -2.75416576      0.67569426     -1.38395250
     H          0.58663145     -1.63952936      1.02269206
 }
 basis=cc-pVTZ
 
 
 
 hf; mp4
 
 
 
 {put,xml;noorbitals,nobasis}
 Commands initialized (841), CPU time= 0.01 sec, 704 directives.
 Default parameters read. Elapsed time= 0.41 sec

 Checking input...
 Passed
1


                                         ***  PROGRAM SYSTEM MOLPRO  ***
                                       Copyright, TTI GmbH Stuttgart, 2015
                                    Version 2023.1 linked Tue Jun  6 09:54:11 2023


 **********************************************************************************************************************************
 LABEL *                                                                                                                                                                 
  64 bit serial version                                                                  DATE: 13-Jun-23          TIME: 02:36:11  
 **********************************************************************************************************************************

 SHA1:             8ebb0dd001088a5c915591db1a321413035db0b1
 **********************************************************************************************************************************

 Memory per process:       393 MW
 Total memory per node:    524 MW
 Total GA space:           131 MW

 GA preallocation disabled
 GA check enabled

 Variable memory set to 393.2 MW

 ZSYMEL=NOSYM


 Geometry recognized as XYZ

 SETTING BASIS          =    CC-PVTZ


 Recomputing integrals since basis changed


 Using spherical harmonics

 Library entry O      S cc-pVTZ              selected for orbital group  1
 Library entry O      P cc-pVTZ              selected for orbital group  1
 Library entry O      D cc-pVTZ              selected for orbital group  1
 Library entry O      F cc-pVTZ              selected for orbital group  1
 Library entry P      S cc-pVTZ              selected for orbital group  2
 Library entry P      P cc-pVTZ              selected for orbital group  2
 Library entry P      D cc-pVTZ              selected for orbital group  2
 Library entry P      F cc-pVTZ              selected for orbital group  2
 Library entry H      S cc-pVTZ              selected for orbital group  6
 Library entry H      P cc-pVTZ              selected for orbital group  6
 Library entry H      D cc-pVTZ              selected for orbital group  6


 PROGRAM * SEWARD (Integral evaluation for generally contracted gaussian basis sets)     Author: Roland Lindh, 1990

 Geometry written to block  1 of record 700


 Point group  C1  



 ATOMIC COORDINATES

 NR  ATOM    CHARGE       X              Y              Z

   1  O       8.00    4.814458347    0.333293226   -1.818741832
   2  P      15.00    2.565116528    0.166127751    0.138138129
   3  O       8.00    2.392474494    2.362597263    1.852814709
   4  O       8.00    0.000000000    0.000000000   -1.595720059
   5  P      15.00   -2.565116528   -0.166127751    0.138138129
   6  O       8.00   -2.392474494   -2.362597263    1.852814709
   7  O       8.00   -2.808698862    2.580992080    1.308332324
   8  O       8.00   -4.814458347   -0.333293226   -1.818741832
   9  O       8.00    2.808698862   -2.580992080    1.308332324
  10  H       1.00    5.204618988   -1.276877095   -2.615291194
  11  H       1.00   -1.108572777    3.098261464    1.932607903
  12  H       1.00   -5.204618988    1.276877095   -2.615291194
  13  H       1.00    1.108572777   -3.098261464    1.932607903

 Bond lengths in Bohr (Angstrom)

  1- 2  2.986111535   1-10  1.838304838   2- 3  2.791845153   2- 4  3.100594370   2- 5  5.140980931
       ( 1.580182173)       ( 0.972789027)       ( 1.477380832)       ( 1.640763881)       ( 2.720489950)

 2-9  2.995889546  4-5  3.100594370  5-6  2.791845153  5-7  2.995889546  5-8  2.986111535
     ( 1.585356474)     ( 1.640763881)     ( 1.477380832)     ( 1.585356474)     ( 1.580182173)

  7-11  1.883538245   8-12  1.838304838   9-13  1.883538245
       ( 0.996725515)       ( 0.972789027)       ( 0.996725515)

 Bond angles

  1-2-3  113.89251853   1-2-4  105.05323994   1-2-5  139.05255464   1-2-9  104.24439011

  2- 1-10  113.25330491   2- 4- 5  111.99875982   2- 5- 4   34.00062009   2- 5- 6   89.37762333

  2- 5- 7   91.25334784   2- 5- 8  139.05255464   2- 9-13  107.93233078   3- 2- 4  109.53858740

  3-2-5   89.37762333   3-2-9  119.11391481   4-2-5   34.00062009   4-2-9  103.68347112

  4-5-6  109.53858740   4-5-7  103.68347112   4-5-8  105.05323994   5-2-9   91.25334784

  5- 7-11  107.93233078   5- 8-12  113.25330491   6- 5- 7  119.11391481   6- 5- 8  113.89251853

  7-5-8  104.24439011

 NUCLEAR CHARGE:                   90
 NUMBER OF PRIMITIVE AOS:         525
 NUMBER OF SYMMETRY AOS:          476
 NUMBER OF CONTRACTIONS:          334   (  334A   )
 NUMBER OF INNER CORE ORBITALS:     2   (    2A   )
 NUMBER OF OUTER CORE ORBITALS:    15   (   15A   )
 NUMBER OF VALENCE ORBITALS:       40   (   40A   )


 NUCLEAR REPULSION ENERGY  791.92811763


 Eigenvalues of metric

         1 0.146E-02 0.154E-02 0.155E-02 0.173E-02 0.189E-02 0.213E-02 0.235E-02 0.238E-02


 Contracted 2-electron integrals neglected if value below      1.0D-11
 AO integral compression algorithm  1   Integral accuracy      1.0D-11

     3947.364 MB (compressed) written to integral file ( 32.3%)


 NUMBER OF SORTED TWO-ELECTRON INTEGRALS: 1564949485.     BUFFER LENGTH:  32768
 NUMBER OF SEGMENTS:  49  SEGMENT LENGTH:   31998710      RECORD LENGTH: 524288

 Memory used in sort:      32.56 MW

 SORT1 READ  1528693193. AND WROTE  1089794140. INTEGRALS IN   3142 RECORDS. CPU TIME:    11.73 SEC, REAL TIME:    15.73 SEC
 SORT2 READ  1089794140. AND WROTE  1564949485. INTEGRALS IN  15058 RECORDS. CPU TIME:     8.90 SEC, REAL TIME:    11.48 SEC

 FILE SIZES:   FILE 1:  3981.7 MBYTE,  FILE 4: 13178.6 MBYTE,   TOTAL:  17160.3 MBYTE

 OPERATOR DM      FOR CENTER  0  COORDINATES:    0.000000    0.000000    0.000000


 **********************************************************************************************************************************
 DATASETS  * FILE   NREC   LENGTH (MB)   RECORD NAMES
              1      19     3415.44       500      610      700      900      950      970     1000      129      960     1100   
                                          VAR    BASINP    GEOM    SYMINP    ZMAT    AOBASIS   BASIS     P2S    ABASIS      S 
                                         1400     1410     1200     1210     1080     1600     1650     1300     1700   
                                           T        V       H0       H01     AOSYM     SMH    MOLCAS    ERIS     OPER   

 PROGRAMS   *        TOTAL       INT
 CPU TIMES  *        54.39     54.29
 REAL TIME  *        66.47 SEC
 DISK USED  *        15.98 GB
 **********************************************************************************************************************************


 Program * Restricted Hartree-Fock

 Orbital guess generated from atomic densities. Full valence occupancy:   57

 Initial occupancy:  45

 NELEC=   90   SYM=1   MS2= 0   THRE=1.0D-08   THRD=3.2D-06   THRG=3.2D-06  HFMA2=F  DIIS_START=2   DIIS_MAX=10   DIIS_INCORE=F

 Level shifts:    0.00 (CLOSED)    0.00 (OPEN)    0.30 (GAP_MIN)

 ITER           ETOT              DE          GRAD        DDIFF     DIIS  NEXP   TIME(IT)  TIME(TOT)  DIAG
   1    -1208.09315876   -1208.09315876     0.00D+00     0.53D-01     0     0       7.95     15.30    start
   2    -1208.26415417      -0.17099540     0.52D-02     0.79D-02     1     0       7.90     23.20    diag
   3    -1208.36231668      -0.09816251     0.34D-02     0.30D-02     2     0       7.86     31.06    diag
   4    -1208.36418055      -0.00186387     0.42D-03     0.52D-03     3     0       7.85     38.91    diag
   5    -1208.36446473      -0.00028418     0.17D-03     0.19D-03     4     0       7.85     46.76    diag
   6    -1208.36448229      -0.00001757     0.34D-04     0.44D-04     5     0       7.89     54.65    diag
   7    -1208.36448388      -0.00000159     0.75D-05     0.13D-04     6     0       7.71     62.36    diag
   8    -1208.36448400      -0.00000012     0.21D-05     0.37D-05     7     0       8.03     70.39    fixocc
   9    -1208.36448401      -0.00000001     0.63D-06     0.12D-05     8     0       8.09     78.48    diag
  10    -1208.36448401      -0.00000000     0.17D-06     0.33D-06     9     0       8.05     86.53    diag/orth
  11    -1208.36448401      -0.00000000     0.64D-07     0.92D-07     0     0       8.10     94.63    diag

 Final occupancy:  45

 !RHF STATE 1.1 Energy              -1208.364484011253
  RHF One-electron energy           -3247.108559035225
  RHF Two-electron energy            1246.815957398799
  RHF Kinetic energy                 1207.051865615027
  RHF Nuclear energy                  791.928117625172
  RHF Virial quotient                  -1.001087458156

 !RHF STATE 1.1 Dipole moment           0.00000000     0.00000000    -1.48742713
 Dipole moment /Debye                   0.00000000     0.00000000    -3.78066266

 Orbital energies:

           1.1          2.1          3.1          4.1          5.1          6.1          7.1          8.1          9.1         10.1
    -80.144163   -80.144163   -20.641113   -20.638563   -20.638562   -20.619697   -20.619696   -20.546131   -20.546130    -7.661592

          11.1         12.1         13.1         14.1         15.1         16.1         17.1         18.1         19.1         20.1
     -7.661589    -5.560323    -5.560270    -5.559774    -5.559765    -5.558348    -5.558343    -1.504753    -1.466181    -1.420121

          21.1         22.1         23.1         24.1         25.1         26.1         27.1         28.1         29.1         30.1
     -1.407881    -1.400004    -1.339374    -1.328176    -0.902732    -0.857095    -0.786221    -0.783359    -0.777237    -0.743186

          31.1         32.1         33.1         34.1         35.1         36.1         37.1         38.1         39.1         40.1
     -0.688556    -0.670979    -0.659910    -0.630851    -0.623848    -0.614973    -0.604042    -0.589093    -0.569826    -0.569174

          41.1         42.1         43.1         44.1         45.1         46.1         47.1
     -0.564795    -0.509244    -0.507287    -0.503433    -0.497773     0.114449     0.126121


 HOMO     45.1    -0.497773 =     -13.5451eV
 LUMO     46.1     0.114449 =       3.1143eV
 LUMO-HOMO         0.612222 =      16.6594eV

 Orbitals saved in record  2100.2


 **********************************************************************************************************************************
 DATASETS  * FILE   NREC   LENGTH (MB)   RECORD NAMES
              1      19     3415.44       500      610      700      900      950      970     1000      129      960     1100   
                                          VAR    BASINP    GEOM    SYMINP    ZMAT    AOBASIS   BASIS     P2S    ABASIS      S 
                                         1400     1410     1200     1210     1080     1600     1650     1300     1700   
                                           T        V       H0       H01     AOSYM     SMH    MOLCAS    ERIS     OPER   

              2       4        2.34       700     1000      520     2100   
                                         GEOM     BASIS   MCVARS     RHF  

 PROGRAMS   *        TOTAL    HF-SCF       INT
 CPU TIMES  *       149.04     94.65     54.29
 REAL TIME  *       201.87 SEC
 DISK USED  *        15.98 GB
 **********************************************************************************************************************************


 PROGRAM * MP4 (Closed-shell)     Authors: C. Hampel, H.-J. Werner, 1991, M. Deegan, P.J. Knowles, 1992


 Convergence thresholds:  THRVAR = 1.00D-08  THRDEN = 1.00D-06

 MP4(T)     terms to be evaluated (factor= 0.000)


 Number of core orbitals:          17 (  17 )
 Number of closed-shell orbitals:  28 (  28 )
 Number of external orbitals:     289 ( 289 )

 Molecular orbitals read from record     2100.2  Type=RHF/CANONICAL  

 Number of N-1 electron functions:              28
 Number of N-2 electron functions:             406
 Number of singly external CSFs:              8092
 Number of doubly external CSFs:          32744278
 Total number of CSFs:                    32752371

 Length of J-op  integral file:               0.00 MB
 Length of K-op  integral file:               7.72 MB

 For full I/O caching in triples, increase memory by 419.42 Mwords to 812.69 Mwords.

 Multipassing necessary in transformation. To avoid, increase memory by 222.66 Mwords.

 Integral transformation finished. Total CPU: 116.64 sec, npass=  2  Memory used: 390.15 MW

 Reference energy:                  -1208.36448401

                        CORR.ENERGY   TOTAL ENERGY   ENERGY CHANGE
 MP2:                   -1.96469241 -1210.32917642    -1.96469241

 SCS-MP2 correlation energy:           -1.90508820   (PS=  1.200000  PT=  0.333333)
 SCS-MP2 total energy:              -1210.26957221

 MP3(D):                -1.94962837 -1210.31411238     0.01506404
 MP4(DQ):               -1.94790444 -1210.31238845     0.00172393
 MP4(SDQ):              -1.97030743 -1210.33479144    -0.02240299

 Norm of t1 vector:      0.12384672      S-energy:    -0.02240299      T1 diagnostic:  0.01170241

   CPU time for triples:   1951.37 sec for i =  1 - 17 / 28 (~  23.6 % done)
   CPU time for triples:   1959.20 sec for i = 18 - 23 / 28 (~  56.5 % done)
   CPU time for triples:   1923.81 sec for i = 24 - 27 / 28 (~  90.0 % done)
   CPU time for triples:    462.69 sec for i = 28 - 28 / 28 (  100.0 % done)

 Total CPU time for triples:   6297.07 sec


 RESULTS
 =======

  Reference energy                  -1208.364484011253
  MP4(SDQ) singlet pair energy         -1.236537263538
  MP4(SDQ) triplet pair energy         -0.711367174756
  MP4(SDQ) correlation energy          -1.970307431029

  Triples contribution                 -0.090772580924
  Total correlation energy             -2.061080011953

  MP4(SDQ) total energy             -1210.334791442281
 !MP4(SDTQ) total energy            -1210.425564023205

 Timing summary (sec):

 STEP                 CPU(USER)    SYS     CPU(TOT)    WALL
 Transformation        119.75     12.72    132.47    143.72
 CCSD iterations       547.67     17.24    564.91    357.32
 Triples              6297.07    310.07   6607.14   5642.87

 Program statistics:

 Available memory in ccsd:               393212819
 Min. memory needed in ccsd:              75791165
 Max. memory used in ccsd:               106585215
 Max. memory used in cckext:              92167240 ( 1 integral passes)



 **********************************************************************************************************************************
 DATASETS  * FILE   NREC   LENGTH (MB)   RECORD NAMES
              1      20     6523.08       500      610      700      900      950      970     1000      129      960     1100   
                                          VAR    BASINP    GEOM    SYMINP    ZMAT    AOBASIS   BASIS     P2S    ABASIS      S 
                                         1400     1410     1200     1210     1080     1600     1650     1300     1700     1380   
                                           T        V       H0       H01     AOSYM     SMH    MOLCAS    ERIS     OPER     JKOP   

              2       4        2.34       700     1000      520     2100   
                                         GEOM     BASIS   MCVARS     RHF  

 PROGRAMS   *        TOTAL       MP4    HF-SCF       INT
 CPU TIMES  *      6964.38   6815.34     94.65     54.29
 REAL TIME  *      6345.89 SEC
 DISK USED  *        15.98 GB
 **********************************************************************************************************************************

 Dump information in style XML to xml output                                                                      

 Orbitals will not be exported.

 **********************************************************************************************************************************

 MP4/cc-pVTZ energy=  -1210.425564023205

             MP4          HF-SCF
  -1210.42556402  -1208.36448401
 **********************************************************************************************************************************
 Molpro calculation terminated
