
 Working directory              : /tmp/peterk/molpro.6AjTk6HJLp/
 Global scratch directory       : /tmp/peterk/molpro.6AjTk6HJLp/
 Wavefunction directory         : /home/peterk/wfu/
 Main file repository           : /tmp/peterk/molpro.6AjTk6HJLp/

 id        : peterk

 Nodes     nprocs
 marat        1
 GA implementation: MPI file
 GA implementation (serial work in mppx): MPI file

 Using customized tuning parameters: mindgm=1; mindgv=20; mindgc=4; mindgr=1; noblas=0; minvec=7
 default implementation of scratch files=df  


 Variables initialized (1032), CPU time= 0.00 sec
 
 core,small
 angstrom
 
 geometry={
 H1;C1,H1,1.06209557;C2,C1,1.20366063,H1,180;H2,C2,1.06209557,C1,180,H1,0
 }
 basis=cc-pCVTZ
 
 
 
 hf; hf; papt; mp2
 
 
 
 {put,xml;noorbitals,nobasis}
 Commands initialized (841), CPU time= 0.01 sec, 708 directives.
 Default parameters read. Elapsed time= 0.05 sec

 Checking input...
 Passed
1


                                         ***  PROGRAM SYSTEM MOLPRO  ***
                                       Copyright, TTI GmbH Stuttgart, 2015
                                    Version 2023.1 linked Sat Jun 10 08:01:27 2023


 **********************************************************************************************************************************
 LABEL *                                                                                                                                                                 
  (16 PROC) 64 bit serial version                                                        DATE: 12-Jun-23          TIME: 10:28:58  
 **********************************************************************************************************************************

 SHA1:             8376d659ba1296ca7ee514c57770fe2c96af278c
 **********************************************************************************************************************************

 Memory per process:      1074 MW
 Total memory per node:   1074 MW

 GA preallocation disabled
 GA check disabled

 Variable memory set to 1073.7 MW

 ZUNIT=ANG

 SETTING BASIS          =    CC-PCVTZ


 Recomputing integrals since basis changed


 Using spherical harmonics

 Library entry H      S cc-pVTZ              selected for orbital group  1
 Library entry H      P cc-pVTZ              selected for orbital group  1
 Library entry H      D cc-pVTZ              selected for orbital group  1
 Library entry C      S cc-pCVTZ             selected for orbital group  2
 Library entry C      P cc-pCVTZ             selected for orbital group  2
 Library entry C      D cc-pCVTZ             selected for orbital group  2
 Library entry C      F cc-pCVTZ             selected for orbital group  2


 PROGRAM * SEWARD (Integral evaluation for generally contracted gaussian basis sets)     Author: Roland Lindh, 1990

 Geometry written to block  1 of record 700

 Orientation using atomic masses  
 Molecule type: Linear
 Symmetry elements: X,Y,Z
 Rotational constants:      35.3856639     35.3856639      0.0000000 GHz  (calculated with average atomic masses)

 Point group  D2h 



 ATOMIC COORDINATES

 NR  ATOM    CHARGE       X              Y              Z

   1  H1      1.00    0.000000000    0.000000000   -3.144364214
   2  H2      1.00    0.000000000    0.000000000    3.144364214
   3  C1      6.00    0.000000000    0.000000000   -1.137294469
   4  C2      6.00    0.000000000    0.000000000    1.137294469

 Bond lengths in Bohr (Angstrom)

 1-3  2.007069745  2-4  2.007069745  3-4  2.274588938
     ( 1.062095570)     ( 1.062095570)     ( 1.203660630)

 Bond angles

  1-3-4  179.99999829   2-4-3  179.99999829

 NUCLEAR CHARGE:                   14
 NUMBER OF PRIMITIVE AOS:         156
 NUMBER OF SYMMETRY AOS:          142
 NUMBER OF CONTRACTIONS:          114   (   26Ag  +   13B3u +   13B2u +    5B1g +   26B1u +   13B2g +   13B3g +    5Au  )
 NUMBER OF INNER CORE ORBITALS:     0   (    0Ag  +    0B3u +    0B2u +    0B1g +    0B1u +    0B2g +    0B3g +    0Au  )
 NUMBER OF OUTER CORE ORBITALS:     2   (    1Ag  +    0B3u +    0B2u +    0B1g +    1B1u +    0B2g +    0B3g +    0Au  )
 NUMBER OF VALENCE ORBITALS:       10   (    3Ag  +    1B3u +    1B2u +    0B1g +    3B1u +    1B2g +    1B3g +    0Au  )


 NUCLEAR REPULSION ENERGY   24.76756786

 EXTRA SYMMETRY OF AOS IN SYMMETRY 1:   1 1 1 1 1 1 2 1 1 1   1 1 1 1 1 1 1 1 1 2   1 2 1 2 1 2
 EXTRA SYMMETRY OF AOS IN SYMMETRY 2:   1 1 1 1 1 1 1 1 1 1   1 1 2
 EXTRA SYMMETRY OF AOS IN SYMMETRY 3:   1 1 1 1 1 1 1 1 1 1   1 1 2
 EXTRA SYMMETRY OF AOS IN SYMMETRY 5:   1 1 1 1 1 1 2 1 1 1   1 1 1 1 1 1 1 1 1 2   1 2 1 2 1 2
 EXTRA SYMMETRY OF AOS IN SYMMETRY 6:   1 1 1 1 1 1 1 1 1 1   1 1 2
 EXTRA SYMMETRY OF AOS IN SYMMETRY 7:   1 1 1 1 1 1 1 1 1 1   1 1 2

 Eigenvalues of metric

         1 0.904E-03 0.344E-02 0.606E-02 0.113E-01 0.134E-01 0.209E-01 0.348E-01 0.113E+00
         2 0.207E-01 0.939E-01 0.221E+00 0.356E+00 0.435E+00 0.541E+00 0.994E+00 0.114E+01
         3 0.207E-01 0.939E-01 0.221E+00 0.356E+00 0.435E+00 0.541E+00 0.994E+00 0.114E+01
         4 0.530E+00 0.706E+00 0.101E+01 0.154E+01 0.213E+01
         5 0.110E-03 0.315E-03 0.110E-02 0.601E-02 0.123E-01 0.194E-01 0.235E-01 0.487E-01
         6 0.703E-02 0.405E-01 0.550E-01 0.962E-01 0.339E+00 0.403E+00 0.441E+00 0.860E+00
         7 0.703E-02 0.405E-01 0.550E-01 0.962E-01 0.339E+00 0.403E+00 0.441E+00 0.860E+00
         8 0.262E+00 0.391E+00 0.869E+00 0.102E+01 0.155E+01


 Contracted 2-electron integrals neglected if value below      1.0D-11
 AO integral compression algorithm  1   Integral accuracy      1.0D-11

     19.923 MB (compressed) written to integral file ( 51.1%)


 NUMBER OF SORTED TWO-ELECTRON INTEGRALS:    2896873.     BUFFER LENGTH:  32768
 NUMBER OF SEGMENTS:   1  SEGMENT LENGTH:    2896873      RECORD LENGTH: 524288

 Memory used in sort:       3.45 MW

 SORT1 READ     4910616. AND WROTE     2488475. INTEGRALS IN      8 RECORDS. CPU TIME:     0.10 SEC, REAL TIME:     0.11 SEC
 SORT2 READ     2488475. AND WROTE     2896873. INTEGRALS IN     76 RECORDS. CPU TIME:     0.12 SEC, REAL TIME:     0.13 SEC

 FILE SIZES:   FILE 1:    50.3 MBYTE,  FILE 4:    33.6 MBYTE,   TOTAL:     83.9 MBYTE

 OPERATOR DM      FOR CENTER  0  COORDINATES:    0.000000    0.000000    0.000000


 **********************************************************************************************************************************
 DATASETS  * FILE   NREC   LENGTH (MB)   RECORD NAMES
              1      19       40.31       500      610      700      900      950      970     1000      129      960     1100   
                                          VAR    BASINP    GEOM    SYMINP    ZMAT    AOBASIS   BASIS     P2S    ABASIS      S 
                                         1400     1410     1200     1210     1080     1600     1650     1300     1700   
                                           T        V       H0       H01     AOSYM     SMH    MOLCAS    ERIS     OPER   

 PROGRAMS   *        TOTAL       INT
 CPU TIMES  *         1.13      1.00
 REAL TIME  *         1.81 SEC
 DISK USED  *        80.37 MB
 **********************************************************************************************************************************


 Program * Restricted Hartree-Fock

 Orbital guess generated from atomic densities. Full valence occupancy:    4   1   1   0   4   1   1   0


 Initial occupancy:   3   1   1   0   2   0   0   0

 NELEC=   14   SYM=1   MS2= 0   THRE=1.0D-08   THRD=3.2D-06   THRG=3.2D-06  HFMA2=F  DIIS_START=2   DIIS_MAX=10   DIIS_INCORE=F

 Level shifts:    0.00 (CLOSED)    0.00 (OPEN)    0.30 (GAP_MIN)

 ITER           ETOT              DE          GRAD        DDIFF     DIIS  NEXP   TIME(IT)  TIME(TOT)  DIAG
   1      -76.83470960     -76.83470960     0.00D+00     0.15D+00     0     0       0.01      0.01    start
   2      -76.84858736      -0.01387776     0.10D-01     0.14D-01     1     0       0.00      0.01    diag
   3      -76.84986744      -0.00128009     0.30D-02     0.30D-02     2     0       0.00      0.01    diag
   4      -76.84998282      -0.00011538     0.63D-03     0.11D-02     3     0       0.01      0.02    diag
   5      -76.84998735      -0.00000452     0.13D-03     0.23D-03     4     0       0.01      0.03    diag
   6      -76.84998750      -0.00000015     0.22D-04     0.52D-04     5     0       0.00      0.03    diag
   7      -76.84998750      -0.00000000     0.29D-05     0.79D-05     6     0       0.01      0.04    diag
   8      -76.84998750      -0.00000000     0.39D-06     0.10D-05     7     0       0.00      0.04    fixocc
   9      -76.84998750      -0.00000000     0.38D-07     0.10D-06     0     0       0.01      0.05    diag

 Final occupancy:   3   1   1   0   2   0   0   0

 !RHF STATE 1.1 Energy                -76.849987499616
  RHF One-electron energy            -151.689360805607
  RHF Two-electron energy              50.071805447076
  RHF Kinetic energy                   76.696224986570
  RHF Nuclear energy                   24.767567858915
  RHF Virial quotient                  -1.002004825049

 !RHF STATE 1.1 Dipole moment           0.00000000     0.00000000     0.00000000
 Dipole moment /Debye                   0.00000000     0.00000000     0.00000000

 Orbital energies:

           1.1          2.1          3.1          4.1          5.1
    -11.241282    -1.028559    -0.679946     0.171105     0.304367

           1.2          2.2          3.2
     -0.409549     0.432975     0.803977

           1.3          2.3          3.3
     -0.409549     0.432975     0.803977

           1.4          2.4
      0.772719     2.714277

           1.5          2.5          3.5          4.5
    -11.237483    -0.766506     0.150530     0.405060

           1.6          2.6
      0.176950     0.573383

           1.7          2.7
      0.176950     0.573383

           1.8          2.8
      1.095936     3.295931


 HOMO      1.3    -0.409549 =     -11.1444eV
 LUMO      3.5     0.150530 =       4.0961eV
 LUMO-HOMO         0.560080 =      15.2405eV

 Orbitals saved in record  2100.2


 **********************************************************************************************************************************
 DATASETS  * FILE   NREC   LENGTH (MB)   RECORD NAMES
              1      19       40.31       500      610      700      900      950      970     1000      129      960     1100   
                                          VAR    BASINP    GEOM    SYMINP    ZMAT    AOBASIS   BASIS     P2S    ABASIS      S 
                                         1400     1410     1200     1210     1080     1600     1650     1300     1700   
                                           T        V       H0       H01     AOSYM     SMH    MOLCAS    ERIS     OPER   

              2       4        0.44       700     1000      520     2100   
                                         GEOM     BASIS   MCVARS     RHF  

 PROGRAMS   *        TOTAL    HF-SCF       INT
 CPU TIMES  *         1.18      0.05      1.00
 REAL TIME  *         1.87 SEC
 DISK USED  *        80.37 MB
 **********************************************************************************************************************************


 Program * Restricted Hartree-Fock

 Molecular orbitals read from record     2100.2  Type=RHF/CANONICAL  

 Initial occupancy:   3   1   1   0   2   0   0   0

 NELEC=   14   SYM=1   MS2= 0   THRE=1.0D-08   THRD=3.2D-06   THRG=3.2D-06  HFMA2=F  DIIS_START=2   DIIS_MAX=10   DIIS_INCORE=F

 Level shifts:    0.00 (CLOSED)    0.00 (OPEN)    0.30 (GAP_MIN)

 ITER           ETOT              DE          GRAD        DDIFF     DIIS  NEXP   TIME(IT)  TIME(TOT)  DIAG
   1      -76.84998750     -76.84998750     0.00D+00     0.15D+00     0     0       0.00      0.00    start
   2      -76.84998750      -0.00000000     0.12D-07     0.26D-07     1     0       0.00      0.00    diag

 Final occupancy:   3   1   1   0   2   0   0   0

 !RHF STATE 1.1 Energy                -76.849987499616
  RHF One-electron energy            -151.689360948808
  RHF Two-electron energy              50.071805590277
  RHF Kinetic energy                   76.696225177550
  RHF Nuclear energy                   24.767567858915
  RHF Virial quotient                  -1.002004822554

 !RHF STATE 1.1 Dipole moment           0.00000000     0.00000000     0.00000000
 Dipole moment /Debye                   0.00000000     0.00000000     0.00000000

 Orbital energies:

           1.1          2.1          3.1          4.1          5.1
    -11.241282    -1.028559    -0.679946     0.171105     0.304367

           1.2          2.2          3.2
     -0.409550     0.432975     0.803977

           1.3          2.3          3.3
     -0.409550     0.432975     0.803977

           1.4          2.4
      0.772719     2.714277

           1.5          2.5          3.5          4.5
    -11.237483    -0.766506     0.150530     0.405060

           1.6          2.6
      0.176950     0.573383

           1.7          2.7
      0.176950     0.573383

           1.8          2.8
      1.095936     3.295931


 HOMO      1.3    -0.409550 =     -11.1444eV
 LUMO      3.5     0.150530 =       4.0961eV
 LUMO-HOMO         0.560080 =      15.2405eV

 Orbitals saved in record  2101.2


 **********************************************************************************************************************************
 DATASETS  * FILE   NREC   LENGTH (MB)   RECORD NAMES
              1      19       40.31       500      610      700      900      950      970     1000      129      960     1100   
                                          VAR    BASINP    GEOM    SYMINP    ZMAT    AOBASIS   BASIS     P2S    ABASIS      S 
                                         1400     1410     1200     1210     1080     1600     1650     1300     1700   
                                           T        V       H0       H01     AOSYM     SMH    MOLCAS    ERIS     OPER   

              2       5        0.60       700     1000      520     2100     2101   
                                         GEOM     BASIS   MCVARS     RHF      RHF  

 PROGRAMS   *        TOTAL    HF-SCF    HF-SCF       INT
 CPU TIMES  *         1.20      0.02      0.05      1.00
 REAL TIME  *         1.89 SEC
 DISK USED  *        80.37 MB
 **********************************************************************************************************************************


 PROGRAM * PAPT (Closed-shell)     Authors: C. Hampel, H.-J. Werner, 1991, P.J. Knowles, 2021


 CORETYPE=SMALL

 Convergence thresholds:  THRVAR = 1.00D-08  THRDEN = 1.00D-06

 Number of closed-shell orbitals:   7 (   3   1   1   0   2   0   0   0 )
 Number of external orbitals:     107 (  23  12  12   5  24  13  13   5 )

 Molecular orbitals read from record     2101.2  Type=RHF/CANONICAL  

 Number of N-1 electron functions:               7
 Number of N-2 electron functions:              28
 Number of singly external CSFs:               141
 Number of doubly external CSFs:             39748
 Total number of CSFs:                       39890

 Length of J-op  integral file:               0.00 MB
 Length of K-op  integral file:               0.21 MB

 Integral transformation finished. Total CPU:   0.01 sec, npass=  1  Memory used:   0.11 MW

 Reference energy:                    -76.84998750

                        CORR.ENERGY   TOTAL ENERGY   ENERGY CHANGE
 MP2:                   -0.40703355   -77.25702105    -0.40703355

 SCS-MP2 correlation energy:           -0.41863706   (PS=  1.200000  PT=  0.333333)
 SCS-MP2 total energy:                -77.26862456
 Iteration:   1     0.4696D+00
 Iteration:   2     0.8311D+00
 Iteration:   3     0.1739D+00
 Iteration:   4     0.1403D+00
 Iteration:   5     0.4019D+00
 Iteration:   6     0.4412D-01
 Iteration:   7     0.1243D+00
 Iteration:   8     0.7896D-02
 Iteration:   9     0.7990D-02
 Iteration:  10     0.9748D-02
 Iteration:  11     0.1010D-02
 Iteration:  12     0.7701D-03
 Iteration:  13     0.9531D-03
 Iteration:  14     0.6642D-04
 PAPT operator written to  7000.1
 PAPT orbitals and eigenvalues written to  7000.2

 MP3(D):                -0.42000993   -77.26999742    -0.01297638



 RESULTS
 =======

  Reference energy                    -76.849987499616

  Correlated core orbitals:             1.1       1.5
  Orbital energies:                   -11.2413  -11.2375

  MP3 core-core energy                 -0.077128323353
  MP3 core-valence energy              -0.022347846382
  MP3 valence correlation energy       -0.320533755290

  MP3 singlet pair energy              -0.308410489375
  MP3 triplet pair energy              -0.111599435650
  MP3 correlation energy               -0.420009925025

 !MP3 total energy                    -77.269997424641

 Timing summary (sec):

 STEP                 CPU(USER)    SYS     CPU(TOT)    WALL
 Transformation          0.01      0.01      0.02      0.02
 CCSD iterations         1.61      0.00      1.61      0.11

 Program statistics:

 Available memory in ccsd:              1073741625
 Min. memory needed in ccsd:                133522
 Max. memory used in ccsd:                  165656
 Max. memory used in cckext:                167061 ( 1 integral passes)



 **********************************************************************************************************************************
 DATASETS  * FILE   NREC   LENGTH (MB)   RECORD NAMES
              1      21       40.96       500      610      700      900      950      970     1000      129      960     1100   
                                          VAR    BASINP    GEOM    SYMINP    ZMAT    AOBASIS   BASIS     P2S    ABASIS      S 
                                         1400     1410     1200     1210     1080     1600     1650     1300     1700     1380   
                                           T        V       H0       H01     AOSYM     SMH    MOLCAS    ERIS     OPER     JKOP   
                                         7000   
                                        PAPT AO    

              2       6        0.75       700     1000      520     2100     2101     7000   
                                         GEOM     BASIS   MCVARS     RHF      RHF     PAPT   

 PROGRAMS   *        TOTAL      PAPT    HF-SCF    HF-SCF       INT
 CPU TIMES  *         1.33      0.13      0.02      0.05      1.00
 REAL TIME  *         2.05 SEC
 DISK USED  *        80.37 MB
 **********************************************************************************************************************************


 PROGRAM * MP2 (Closed-shell)     Authors: C. Hampel, H.-J. Werner, 1991, M. Deegan, P.J. Knowles, 1992


 CORETYPE=SMALL

 Convergence thresholds:  THRVAR = 1.00D-08  THRDEN = 1.00D-06

 Number of closed-shell orbitals:   7 (   3   1   1   0   2   0   0   0 )
 Number of external orbitals:     107 (  23  12  12   5  24  13  13   5 )

 Molecular orbitals read from record     7000.2  Type=PAPT/CANONICAL (state 1.1)

 Number of N-1 electron functions:               7
 Number of N-2 electron functions:              28
 Number of singly external CSFs:               141
 Number of doubly external CSFs:             39748
 Total number of CSFs:                       39890

 Length of J-op  integral file:               0.00 MB
 Length of K-op  integral file:               0.21 MB

 Integral transformation finished. Total CPU:   0.01 sec, npass=  1  Memory used:   0.11 MW
 Orbital energies read from record       7000.2  Type=PAPT/CANONICAL (state 1.1)

 Memory needed for MP2:                      0.01 MW

 SCS-MP2 correlation energy:           -0.438079155841   (PS=  1.200000  PT=  0.333333)
 SCS-MP2 total energy:                -77.288066655457


  Reference energy                    -76.849987499616

  Correlated core orbitals:             1.1       1.5
  Orbital energies:                   -10.3280  -10.3136

  MP2 core-core energy                 -0.077594121933
  MP2 core-valence energy              -0.022259127163
  MP2 valence correlation energy       -0.324149786421

  MP2 singlet pair energy              -0.301595269937
  MP2 triplet pair energy              -0.122407765581
  MP2 correlation energy               -0.424003035517

 !MP2 total energy                    -77.273990535133


 **********************************************************************************************************************************
 DATASETS  * FILE   NREC   LENGTH (MB)   RECORD NAMES
              1      21       40.96       500      610      700      900      950      970     1000      129      960     1100   
                                          VAR    BASINP    GEOM    SYMINP    ZMAT    AOBASIS   BASIS     P2S    ABASIS      S 
                                         1400     1410     1200     1210     1080     1600     1650     1300     1700     1380   
                                           T        V       H0       H01     AOSYM     SMH    MOLCAS    ERIS     OPER     JKOP   
                                         7000   
                                        PAPT AO    

              2       6        0.75       700     1000      520     2100     2101     7000   
                                         GEOM     BASIS   MCVARS     RHF      RHF     PAPT   

 PROGRAMS   *        TOTAL       MP2      PAPT    HF-SCF    HF-SCF       INT
 CPU TIMES  *         1.39      0.06      0.13      0.02      0.05      1.00
 REAL TIME  *         2.12 SEC
 DISK USED  *        80.37 MB
 **********************************************************************************************************************************

 Dump information in style XML to xml output                                                                      

 Orbitals will not be exported.

 **********************************************************************************************************************************

 MP2/cc-pCVTZ energy=    -77.273990535133

             MP2            PAPT          HF-SCF          HF-SCF
    -77.27399054    -77.26999742    -76.84998750    -76.84998750
 **********************************************************************************************************************************
 Molpro calculation terminated
