
 Working directory              : /var/folders/2v/xbgp75_9785319ghcgb4zr4r0000gp/T//molpro.eVd7iEfFau/
 Global scratch directory       : /var/folders/2v/xbgp75_9785319ghcgb4zr4r0000gp/T//molpro.eVd7iEfFau/
 Wavefunction directory         : /Users/sacpjk/wfu/
 Main file repository           : /var/folders/2v/xbgp75_9785319ghcgb4zr4r0000gp/T//molpro.eVd7iEfFau/

 id        : peterk

 Nodes                        nprocs
 Cardiff-University-G34YLXT77Y    1
 GA implementation: MPI file
 GA implementation (serial work in mppx): MPI file

 Using customized tuning parameters: mindgm=1; mindgv=20; mindgc=4; mindgr=1; noblas=0; minvec=7
 default implementation of scratch files=df  


 Variables initialized (1032), CPU time= 0.00 sec
 
 symmetry,nosym
 
 
 geometry={
 7
  n          0.417200135251   -0.477271134948   -0.662731774095
  h          0.321512727175   -1.446102175141   -0.386878863336
  h         -0.171939531839   -0.363837067214   -1.477491632290
  c         -0.066245324842    0.390808478814    0.417645924696
  h          0.037904429088    1.427874118971    0.109793626562
  h         -1.104073161745    0.217404506673    0.708776063553
  h          0.565640726860    0.251123272951    1.290886655016
 }
 basis=aug-cc-pVDZ
 
 
 
 hf; hf; papt; mp4
 
 
 
 {put,xml;noorbitals,nobasis}
 Commands initialized (841), CPU time= 0.01 sec, 704 directives.
 Default parameters read. Elapsed time= 0.13 sec

 Checking input...
 Passed
1


                                         ***  PROGRAM SYSTEM MOLPRO  ***
                                       Copyright, TTI GmbH Stuttgart, 2015
                                    Version 2023.1 linked Tue Jun  6 09:54:11 2023


 **********************************************************************************************************************************
 LABEL *                                                                                                                                                                 
  64 bit serial version                                                                  DATE: 08-Jun-23          TIME: 21:55:46  
 **********************************************************************************************************************************

 SHA1:             8ebb0dd001088a5c915591db1a321413035db0b1
 **********************************************************************************************************************************

 Memory per process:       805 MW
 Total memory per node:   1074 MW
 Total GA space:           268 MW

 GA preallocation disabled
 GA check enabled

 Variable memory set to 805.3 MW

 ZSYMEL=NOSYM


 Geometry recognized as XYZ

 SETTING BASIS          =    AUG-CC-PVDZ


 Recomputing integrals since basis changed


 Using spherical harmonics

 Library entry N      S aug-cc-pVDZ          selected for orbital group  1
 Library entry N      P aug-cc-pVDZ          selected for orbital group  1
 Library entry N      D aug-cc-pVDZ          selected for orbital group  1
 Library entry H      S aug-cc-pVDZ          selected for orbital group  2
 Library entry H      P aug-cc-pVDZ          selected for orbital group  2
 Library entry C      S aug-cc-pVDZ          selected for orbital group  3
 Library entry C      P aug-cc-pVDZ          selected for orbital group  3
 Library entry C      D aug-cc-pVDZ          selected for orbital group  3


 PROGRAM * SEWARD (Integral evaluation for generally contracted gaussian basis sets)     Author: Roland Lindh, 1990

 Geometry written to block  1 of record 700


 Point group  C1  



 ATOMIC COORDINATES

 NR  ATOM    CHARGE       X              Y              Z

   1  N       7.00    0.788393995   -0.901911732   -1.252381547
   2  H       1.00    0.607571000   -2.732737059   -0.731095095
   3  H       1.00   -0.324918625   -0.687552411   -2.792054536
   4  C       6.00   -0.125185521    0.738520992    0.789236415
   5  H       1.00    0.071628990    2.698291025    0.207479884
   6  H       1.00   -2.086395897    0.410834976    1.339392644
   7  H       1.00    1.068906059    0.474554209    2.439422236

 Bond lengths in Bohr (Angstrom)

 1-2  1.912160532  1-3  1.912068990  1-4  2.773779183  4-5  2.053746624  4-6  2.063103522
     ( 1.011871777)     ( 1.011823335)     ( 1.467820732)     ( 1.086795910)     ( 1.091747367)

 4-7  2.053934373
     ( 1.086895263)

 Bond angles

  1-4-5  108.92232449   1-4-6  114.54691082   1-4-7  108.89704666   2-1-3  105.77144000

  2-1-4  109.53896727   3-1-4  109.54911814   5-4-6  108.55407821   5-4-7  107.12795867

  6-4-7  108.54184764

 NUCLEAR CHARGE:                   18
 NUMBER OF PRIMITIVE AOS:         129
 NUMBER OF SYMMETRY AOS:          125
 NUMBER OF CONTRACTIONS:           91   (   91A   )
 NUMBER OF INNER CORE ORBITALS:     0   (    0A   )
 NUMBER OF OUTER CORE ORBITALS:     2   (    2A   )
 NUMBER OF VALENCE ORBITALS:       13   (   13A   )


 NUCLEAR REPULSION ENERGY   42.04336543

 Eigenvalues of metric

         1 0.509E-03 0.629E-03 0.711E-03 0.849E-03 0.124E-02 0.131E-02 0.296E-02 0.448E-02


 Contracted 2-electron integrals neglected if value below      1.0D-11
 AO integral compression algorithm  1   Integral accuracy      1.0D-11

     48.234 MB (compressed) written to integral file ( 56.7%)


 NUMBER OF SORTED TWO-ELECTRON INTEGRALS:    8763391.     BUFFER LENGTH:  32768
 NUMBER OF SEGMENTS:   1  SEGMENT LENGTH:    8763391      RECORD LENGTH: 524288

 Memory used in sort:       9.32 MW

 SORT1 READ    10676406. AND WROTE     8692393. INTEGRALS IN     25 RECORDS. CPU TIME:     0.06 SEC, REAL TIME:     0.08 SEC
 SORT2 READ     8692393. AND WROTE     8763391. INTEGRALS IN    184 RECORDS. CPU TIME:     0.11 SEC, REAL TIME:     0.13 SEC

 FILE SIZES:   FILE 1:    78.6 MBYTE,  FILE 4:   104.9 MBYTE,   TOTAL:    183.6 MBYTE

 OPERATOR DM      FOR CENTER  0  COORDINATES:    0.000000    0.000000    0.000000


 **********************************************************************************************************************************
 DATASETS  * FILE   NREC   LENGTH (MB)   RECORD NAMES
              1      19       67.57       500      610      700      900      950      970     1000      129      960     1100   
                                          VAR    BASINP    GEOM    SYMINP    ZMAT    AOBASIS   BASIS     P2S    ABASIS      S 
                                         1400     1410     1200     1210     1080     1600     1650     1300     1700   
                                           T        V       H0       H01     AOSYM     SMH    MOLCAS    ERIS     OPER   

 PROGRAMS   *        TOTAL       INT
 CPU TIMES  *         0.60      0.50
 REAL TIME  *         1.03 SEC
 DISK USED  *       175.49 MB
 **********************************************************************************************************************************


 Program * Restricted Hartree-Fock

 Orbital guess generated from atomic densities. Full valence occupancy:   15

 Initial occupancy:   9

 NELEC=   18   SYM=1   MS2= 0   THRE=1.0D-08   THRD=3.2D-06   THRG=3.2D-06  HFMA2=F  DIIS_START=2   DIIS_MAX=10   DIIS_INCORE=F

 Level shifts:    0.00 (CLOSED)    0.00 (OPEN)    0.30 (GAP_MIN)

 ITER           ETOT              DE          GRAD        DDIFF     DIIS  NEXP   TIME(IT)  TIME(TOT)  DIAG
   1      -95.20184773     -95.20184773     0.00D+00     0.86D-01     0     0       0.04      0.07    start
   2      -95.22669725      -0.02484952     0.55D-02     0.93D-02     1     0       0.04      0.11    diag
   3      -95.23013707      -0.00343982     0.22D-02     0.28D-02     2     0       0.04      0.15    diag
   4      -95.23063854      -0.00050147     0.68D-03     0.11D-02     3     0       0.04      0.19    diag
   5      -95.23066130      -0.00002276     0.13D-03     0.21D-03     4     0       0.04      0.23    diag
   6      -95.23066277      -0.00000147     0.29D-04     0.58D-04     5     0       0.03      0.26    diag
   7      -95.23066287      -0.00000010     0.82D-05     0.15D-04     6     0       0.04      0.30    diag
   8      -95.23066288      -0.00000001     0.22D-05     0.63D-05     7     0       0.04      0.34    fixocc
   9      -95.23066288      -0.00000000     0.56D-06     0.15D-05     8     0       0.04      0.38    diag
  10      -95.23066288      -0.00000000     0.11D-06     0.23D-06     0     0       0.03      0.41    diag/orth

 Final occupancy:   9

 !RHF STATE 1.1 Energy                -95.230662883365
  RHF One-electron energy            -211.357756110266
  RHF Two-electron energy              74.083727792595
  RHF Kinetic energy                   95.082800112185
  RHF Nuclear energy                   42.043365434307
  RHF Virial quotient                  -1.001555094833

 !RHF STATE 1.1 Dipole moment          -0.54368471    -0.13276665     0.11447074
 Dipole moment /Debye                  -1.38190869    -0.33745917     0.29095559

 Orbital energies:

           1.1          2.1          3.1          4.1          5.1          6.1          7.1          8.1          9.1         10.1
    -15.548410   -11.247669    -1.171678    -0.897717    -0.661466    -0.603589    -0.555377    -0.516719    -0.392524     0.035759

          11.1
      0.051472


 HOMO      9.1    -0.392524 =     -10.6811eV
 LUMO     10.1     0.035759 =       0.9730eV
 LUMO-HOMO         0.428283 =      11.6542eV

 Orbitals saved in record  2100.2


 **********************************************************************************************************************************
 DATASETS  * FILE   NREC   LENGTH (MB)   RECORD NAMES
              1      19       67.57       500      610      700      900      950      970     1000      129      960     1100   
                                          VAR    BASINP    GEOM    SYMINP    ZMAT    AOBASIS   BASIS     P2S    ABASIS      S 
                                         1400     1410     1200     1210     1080     1600     1650     1300     1700   
                                           T        V       H0       H01     AOSYM     SMH    MOLCAS    ERIS     OPER   

              2       4        0.61       700     1000      520     2100   
                                         GEOM     BASIS   MCVARS     RHF  

 PROGRAMS   *        TOTAL    HF-SCF       INT
 CPU TIMES  *         1.01      0.40      0.50
 REAL TIME  *         1.63 SEC
 DISK USED  *       175.49 MB
 **********************************************************************************************************************************


 Program * Restricted Hartree-Fock

 Molecular orbitals read from record     2100.2  Type=RHF/CANONICAL  

 Initial occupancy:   9

 NELEC=   18   SYM=1   MS2= 0   THRE=1.0D-08   THRD=3.2D-06   THRG=3.2D-06  HFMA2=F  DIIS_START=2   DIIS_MAX=10   DIIS_INCORE=F

 Level shifts:    0.00 (CLOSED)    0.00 (OPEN)    0.30 (GAP_MIN)

 ITER           ETOT              DE          GRAD        DDIFF     DIIS  NEXP   TIME(IT)  TIME(TOT)  DIAG
   1      -95.23066288     -95.23066288     0.00D+00     0.89D-01     0     0       0.04      0.04    start
   2      -95.23066288      -0.00000000     0.51D-07     0.92D-07     1     0       0.04      0.08    diag

 Final occupancy:   9

 !RHF STATE 1.1 Energy                -95.230662883371
  RHF One-electron energy            -211.357758131469
  RHF Two-electron energy              74.083729813791
  RHF Kinetic energy                   95.082800333546
  RHF Nuclear energy                   42.043365434307
  RHF Virial quotient                  -1.001555092502

 !RHF STATE 1.1 Dipole moment          -0.54368609    -0.13276666     0.11447136
 Dipole moment /Debye                  -1.38191221    -0.33745919     0.29095717

 Orbital energies:

           1.1          2.1          3.1          4.1          5.1          6.1          7.1          8.1          9.1         10.1
    -15.548411   -11.247669    -1.171678    -0.897717    -0.661466    -0.603589    -0.555377    -0.516719    -0.392524     0.035759

          11.1
      0.051472


 HOMO      9.1    -0.392524 =     -10.6811eV
 LUMO     10.1     0.035759 =       0.9730eV
 LUMO-HOMO         0.428283 =      11.6542eV

 Orbitals saved in record  2101.2


 **********************************************************************************************************************************
 DATASETS  * FILE   NREC   LENGTH (MB)   RECORD NAMES
              1      19       67.57       500      610      700      900      950      970     1000      129      960     1100   
                                          VAR    BASINP    GEOM    SYMINP    ZMAT    AOBASIS   BASIS     P2S    ABASIS      S 
                                         1400     1410     1200     1210     1080     1600     1650     1300     1700   
                                           T        V       H0       H01     AOSYM     SMH    MOLCAS    ERIS     OPER   

              2       5        0.93       700     1000      520     2100     2101   
                                         GEOM     BASIS   MCVARS     RHF      RHF  

 PROGRAMS   *        TOTAL    HF-SCF    HF-SCF       INT
 CPU TIMES  *         1.10      0.09      0.40      0.50
 REAL TIME  *         1.79 SEC
 DISK USED  *       175.49 MB
 **********************************************************************************************************************************


 PROGRAM * PAPT (Closed-shell)     Authors: C. Hampel, H.-J. Werner, 1991, P.J. Knowles, 2021


 Convergence thresholds:  THRVAR = 1.00D-08  THRDEN = 1.00D-06

 Number of core orbitals:           2 (   2 )
 Number of closed-shell orbitals:   7 (   7 )
 Number of external orbitals:      82 (  82 )

 Molecular orbitals read from record     2101.2  Type=RHF/CANONICAL  

 Number of N-1 electron functions:               7
 Number of N-2 electron functions:              28
 Number of singly external CSFs:               574
 Number of doubly external CSFs:            165025
 Total number of CSFs:                      165600

 Length of J-op  integral file:               0.00 MB
 Length of K-op  integral file:               0.63 MB

 Integral transformation finished. Total CPU:   0.09 sec, npass=  1  Memory used:   0.58 MW

 Reference energy:                    -95.23066288

                        CORR.ENERGY   TOTAL ENERGY   ENERGY CHANGE
 MP2:                   -0.34247288   -95.57313577    -0.34247288

 SCS-MP2 correlation energy:           -0.34336734   (PS=  1.200000  PT=  0.333333)
 SCS-MP2 total energy:                -95.57403023
 Iteration:   1     0.1859D+00
 Iteration:   2     0.3232D+00
 Iteration:   3     0.6031D-01
 Iteration:   4     0.3560D-01
 Iteration:   5     0.2081D-01
 Iteration:   6     0.9242D-02
 Iteration:   7     0.6712D-01
 Iteration:   8     0.2793D-02
 Iteration:   9     0.2907D-02
 Iteration:  10     0.2931D-02
 Iteration:  11     0.1216D-02
 Iteration:  12     0.5164D-02
 Iteration:  13     0.4482D-03
 Iteration:  14     0.5646D-03
 Iteration:  15     0.3015D-03
 Iteration:  16     0.9710D-04
 PAPT operator written to  7000.1
 PAPT orbitals and eigenvalues written to  7000.2

 MP3(D):                -0.36753337   -95.59819626    -0.02506049



 RESULTS
 =======

  Reference energy                    -95.230662883371
  MP3 singlet pair energy              -0.255300104593
  MP3 triplet pair energy              -0.112233267349
  MP3 correlation energy               -0.367533371942

 !MP3 total energy                    -95.598196255313

 Timing summary (sec):

 STEP                 CPU(USER)    SYS     CPU(TOT)    WALL
 Transformation          0.10      0.02      0.12      0.23
 CCSD iterations         1.64      0.04      1.68      0.53

 Program statistics:

 Available memory in ccsd:               805306163
 Min. memory needed in ccsd:                547472
 Max. memory used in ccsd:                  678351
 Max. memory used in cckext:                543688 ( 1 integral passes)



 **********************************************************************************************************************************
 DATASETS  * FILE   NREC   LENGTH (MB)   RECORD NAMES
              1      21       70.39       500      610      700      900      950      970     1000      129      960     1100   
                                          VAR    BASINP    GEOM    SYMINP    ZMAT    AOBASIS   BASIS     P2S    ABASIS      S 
                                         1400     1410     1200     1210     1080     1600     1650     1300     1700     1380   
                                           T        V       H0       H01     AOSYM     SMH    MOLCAS    ERIS     OPER     JKOP   
                                         7000   
                                        PAPT AO    

              2       6        1.22       700     1000      520     2100     2101     7000   
                                         GEOM     BASIS   MCVARS     RHF      RHF     PAPT   

 PROGRAMS   *        TOTAL      PAPT    HF-SCF    HF-SCF       INT
 CPU TIMES  *         1.64      0.54      0.09      0.40      0.50
 REAL TIME  *         2.60 SEC
 DISK USED  *       175.49 MB
 **********************************************************************************************************************************


 PROGRAM * MP4 (Closed-shell)     Authors: C. Hampel, H.-J. Werner, 1991, M. Deegan, P.J. Knowles, 1992


 Convergence thresholds:  THRVAR = 1.00D-08  THRDEN = 1.00D-06

 MP4(T)     terms to be evaluated (factor= 0.000)


 Number of core orbitals:           2 (   2 )
 Number of closed-shell orbitals:   7 (   7 )
 Number of external orbitals:      82 (  82 )

 Molecular orbitals read from record     7000.2  Type=PAPT/CANONICAL (state 1.1)

 Number of N-1 electron functions:               7
 Number of N-2 electron functions:              28
 Number of singly external CSFs:               574
 Number of doubly external CSFs:            165025
 Total number of CSFs:                      165600

 Length of J-op  integral file:               0.00 MB
 Length of K-op  integral file:               0.63 MB

 Memory could be reduced to 5.79 Mwords without degradation in triples

 Integral transformation finished. Total CPU:   0.15 sec, npass=  1  Memory used:   3.63 MW
 Orbital energies read from record       7000.2  Type=PAPT/CANONICAL (state 1.1)

 Reference energy:                    -95.23066288

                        CORR.ENERGY   TOTAL ENERGY   ENERGY CHANGE
 MP2:                   -0.37229374   -95.60295663    -0.37229374

 SCS-MP2 correlation energy:           -0.37531832   (PS=  1.200000  PT=  0.333333)
 SCS-MP2 total energy:                -95.60598120

 MP3(D):                -0.37245545   -95.60311833    -0.00016170
 MP4(DQ):               -0.36967994   -95.60034282     0.00277551
 MP4(SDQ):              -0.37176126   -95.60242414    -0.00208132

 Norm of t1 vector:      0.03882418      S-energy:    -0.00208132      T1 diagnostic:  0.00733708

 Largest off-diagonal element in interal  block of Fock matrix:  0.86D-01
 Largest off-diagonal element in external block of Fock matrix:  0.19D+00


 Total CPU time for triples:      1.24 sec


 RESULTS
 =======

  Reference energy                    -95.230662883371
  MP4(SDQ) singlet pair energy         -0.257915407584
  MP4(SDQ) triplet pair energy         -0.111764529159
  MP4(SDQ) correlation energy          -0.371761258435

  Triples contribution                 -0.012508166260
  Total correlation energy             -0.384269424695

  MP4(SDQ) total energy               -95.602424141806
 !MP4(SDTQ) total energy              -95.614932308066

 Timing summary (sec):

 STEP                 CPU(USER)    SYS     CPU(TOT)    WALL
 Transformation          0.19      0.02      0.21      0.33
 CCSD iterations         2.01      0.02      2.03      0.36
 Triples                 1.24      0.07      1.31      1.37

 Program statistics:

 Available memory in ccsd:               805306163
 Min. memory needed in ccsd:                547472
 Max. memory used in ccsd:                  678351
 Max. memory used in cckext:                543688 ( 1 integral passes)



 **********************************************************************************************************************************
 DATASETS  * FILE   NREC   LENGTH (MB)   RECORD NAMES
              1      22       85.29       500      610      700      900      950      970     1000      129      960     1100   
                                          VAR    BASINP    GEOM    SYMINP    ZMAT    AOBASIS   BASIS     P2S    ABASIS      S 
                                         1400     1410     1200     1210     1080     1600     1650     1300     1700     1380   
                                           T        V       H0       H01     AOSYM     SMH    MOLCAS    ERIS     OPER     JKOP   
                                         7000     1380(1)
                                        PAPT AO   JKOP   

              2       6        1.22       700     1000      520     2100     2101     7000   
                                         GEOM     BASIS   MCVARS     RHF      RHF     PAPT   

 PROGRAMS   *        TOTAL       MP4      PAPT    HF-SCF    HF-SCF       INT
 CPU TIMES  *         3.36      1.72      0.54      0.09      0.40      0.50
 REAL TIME  *         4.79 SEC
 DISK USED  *       175.49 MB
 **********************************************************************************************************************************

 Dump information in style XML to xml output                                                                      

 Orbitals will not be exported.

 **********************************************************************************************************************************

 MP4/aug-cc-pVDZ energy=    -95.614932308066

             MP4            PAPT          HF-SCF          HF-SCF
    -95.61493231    -95.59819626    -95.23066288    -95.23066288
 **********************************************************************************************************************************
 Molpro calculation terminated
