
 Working directory              : /var/folders/2v/xbgp75_9785319ghcgb4zr4r0000gp/T//molpro.SnzUSwUKC3/
 Global scratch directory       : /var/folders/2v/xbgp75_9785319ghcgb4zr4r0000gp/T//molpro.SnzUSwUKC3/
 Wavefunction directory         : /Users/sacpjk/wfu/
 Main file repository           : /var/folders/2v/xbgp75_9785319ghcgb4zr4r0000gp/T//molpro.SnzUSwUKC3/

 id        : peterk

 Nodes                        nprocs
 Cardiff-University-G34YLXT77Y    1
 GA implementation: MPI file
 GA implementation (serial work in mppx): MPI file

 Using customized tuning parameters: mindgm=1; mindgv=20; mindgc=4; mindgr=1; noblas=0; minvec=7
 default implementation of scratch files=df  


 Variables initialized (1032), CPU time= 0.01 sec
 
 symmetry,nosym
 
 
 geometry={
            4
     C          0.00000000      0.00000000     -0.61465700
     H          0.00000000      0.00000000     -1.67439300
     N          0.00000000      0.00000000      0.54494500
     O          0.00000000      0.00000000      1.74410500
 }
 basis=cc-pVTZ
 
 
 
 hf; mp4
 
 
 
 {put,xml;noorbitals,nobasis}
 Commands initialized (841), CPU time= 0.00 sec, 704 directives.
 Default parameters read. Elapsed time= 0.06 sec

 Checking input...
 Passed
1


                                         ***  PROGRAM SYSTEM MOLPRO  ***
                                       Copyright, TTI GmbH Stuttgart, 2015
                                    Version 2023.1 linked Tue Jun  6 09:54:11 2023


 **********************************************************************************************************************************
 LABEL *                                                                                                                                                                 
  64 bit serial version                                                                  DATE: 11-Jun-23          TIME: 06:47:27  
 **********************************************************************************************************************************

 SHA1:             8ebb0dd001088a5c915591db1a321413035db0b1
 **********************************************************************************************************************************

 Memory per process:       393 MW
 Total memory per node:    524 MW
 Total GA space:           131 MW

 GA preallocation disabled
 GA check enabled

 Variable memory set to 393.2 MW

 ZSYMEL=NOSYM


 Geometry recognized as XYZ

 SETTING BASIS          =    CC-PVTZ


 Recomputing integrals since basis changed


 Using spherical harmonics

 Library entry C      S cc-pVTZ              selected for orbital group  1
 Library entry C      P cc-pVTZ              selected for orbital group  1
 Library entry C      D cc-pVTZ              selected for orbital group  1
 Library entry C      F cc-pVTZ              selected for orbital group  1
 Library entry H      S cc-pVTZ              selected for orbital group  2
 Library entry H      P cc-pVTZ              selected for orbital group  2
 Library entry H      D cc-pVTZ              selected for orbital group  2
 Library entry N      S cc-pVTZ              selected for orbital group  3
 Library entry N      P cc-pVTZ              selected for orbital group  3
 Library entry N      D cc-pVTZ              selected for orbital group  3
 Library entry N      F cc-pVTZ              selected for orbital group  3
 Library entry O      S cc-pVTZ              selected for orbital group  4
 Library entry O      P cc-pVTZ              selected for orbital group  4
 Library entry O      D cc-pVTZ              selected for orbital group  4
 Library entry O      F cc-pVTZ              selected for orbital group  4


 PROGRAM * SEWARD (Integral evaluation for generally contracted gaussian basis sets)     Author: Roland Lindh, 1990

 Geometry written to block  1 of record 700


 Point group  C1  



 ATOMIC COORDINATES

 NR  ATOM    CHARGE       X              Y              Z

   1  C       6.00    0.000000000    0.000000000   -1.161533391
   2  H       1.00    0.000000000    0.000000000   -3.164144195
   3  N       7.00    0.000000000    0.000000000    1.029796803
   4  O       8.00    0.000000000    0.000000000    3.295880783

 Bond lengths in Bohr (Angstrom)

 1-2  2.002610804  1-3  2.191330194  3-4  2.266083980
     ( 1.059736000)     ( 1.159602000)     ( 1.199160000)

 Bond angles

  1-3-4  179.99999852   2-1-3  179.99999879

 NUCLEAR CHARGE:                   22
 NUMBER OF PRIMITIVE AOS:         158
 NUMBER OF SYMMETRY AOS:          142
 NUMBER OF CONTRACTIONS:          104   (  104A   )
 NUMBER OF INNER CORE ORBITALS:     0   (    0A   )
 NUMBER OF OUTER CORE ORBITALS:     3   (    3A   )
 NUMBER OF VALENCE ORBITALS:       13   (   13A   )


 NUCLEAR REPULSION ENERGY   60.55079965

 EXTRA SYMMETRY OF AOS IN SYMMETRY 1:   1 1 1 1 2 3 1 2 3 1   2 3 1 1 4 2 5 3 1 4   2 5 3 2 3 1 6 4 7 5   1 1 1 2 3 1 2 3 1 1
                                        4 2 5 3 1 1 1 1 2 3   1 2 3 1 2 3 1 1 4 2   5 3 1 4 2 5 3 2 3 1   6 4 7 5 1 1 1 1 2 3
                                        1 2 3 1 2 3 1 1 4 2   5 3 1 4 2 5 3 2 3 1   6 4 7 5

 Eigenvalues of metric

         1 0.759E-03 0.128E-02 0.170E-02 0.220E-02 0.367E-02 0.610E-02 0.110E-01 0.136E-01


 Contracted 2-electron integrals neglected if value below      1.0D-11
 AO integral compression algorithm  1   Integral accuracy      1.0D-11

     20.185 MB (compressed) written to integral file ( 14.0%)


 NUMBER OF SORTED TWO-ELECTRON INTEGRALS:   14908530.     BUFFER LENGTH:  32768
 NUMBER OF SEGMENTS:   1  SEGMENT LENGTH:   14908530      RECORD LENGTH: 524288

 Memory used in sort:      15.47 MW

 SORT1 READ    18266260. AND WROTE     3049656. INTEGRALS IN      9 RECORDS. CPU TIME:     0.07 SEC, REAL TIME:     0.08 SEC
 SORT2 READ     3049656. AND WROTE    14908530. INTEGRALS IN     77 RECORDS. CPU TIME:     0.12 SEC, REAL TIME:     0.13 SEC

 FILE SIZES:   FILE 1:    50.6 MBYTE,  FILE 4:    37.8 MBYTE,   TOTAL:     88.4 MBYTE

 OPERATOR DM      FOR CENTER  0  COORDINATES:    0.000000    0.000000    0.000000


 **********************************************************************************************************************************
 DATASETS  * FILE   NREC   LENGTH (MB)   RECORD NAMES
              1      19       43.54       500      610      700      900      950      970     1000      129      960     1100   
                                          VAR    BASINP    GEOM    SYMINP    ZMAT    AOBASIS   BASIS     P2S    ABASIS      S 
                                         1400     1410     1200     1210     1080     1600     1650     1300     1700   
                                           T        V       H0       H01     AOSYM     SMH    MOLCAS    ERIS     OPER   

 PROGRAMS   *        TOTAL       INT
 CPU TIMES  *         0.70      0.62
 REAL TIME  *         0.84 SEC
 DISK USED  *        84.74 MB
 **********************************************************************************************************************************


 Program * Restricted Hartree-Fock

 Orbital guess generated from atomic densities. Full valence occupancy:   16

 Initial occupancy:  11

 NELEC=   22   SYM=1   MS2= 0   THRE=1.0D-08   THRD=3.2D-06   THRG=3.2D-06  HFMA2=F  DIIS_START=2   DIIS_MAX=10   DIIS_INCORE=F

 Level shifts:    0.00 (CLOSED)    0.00 (OPEN)    0.30 (GAP_MIN)

 ITER           ETOT              DE          GRAD        DDIFF     DIIS  NEXP   TIME(IT)  TIME(TOT)  DIAG
   1     -167.63971309    -167.63971309     0.00D+00     0.82D-01     0     0       0.06      0.12    start
   2     -167.66869190      -0.02897881     0.84D-02     0.10D-01     1     0       0.06      0.18    diag
   3     -167.69359133      -0.02489943     0.60D-02     0.49D-02     2     0       0.06      0.24    diag
   4     -167.69422021      -0.00062888     0.83D-03     0.88D-03     3     0       0.06      0.30    diag
   5     -167.69432965      -0.00010944     0.28D-03     0.44D-03     4     0       0.06      0.36    diag
   6     -167.69436687      -0.00003723     0.19D-03     0.19D-03     5     0       0.06      0.42    diag
   7     -167.69437042      -0.00000355     0.37D-04     0.77D-04     6     0       0.07      0.49    diag
   8     -167.69437057      -0.00000015     0.90D-05     0.16D-04     7     0       0.06      0.55    fixocc
   9     -167.69437058      -0.00000001     0.19D-05     0.33D-05     8     0       0.06      0.61    diag
  10     -167.69437058      -0.00000000     0.20D-06     0.37D-06     9     0       0.06      0.67    diag/orth
  11     -167.69437058      -0.00000000     0.25D-07     0.31D-07     0     0       0.06      0.73    diag

 Final occupancy:  11

 !RHF STATE 1.1 Energy               -167.694370578182
  RHF One-electron energy            -348.260211054535
  RHF Two-electron energy             120.015040826168
  RHF Kinetic energy                  167.384421751828
  RHF Nuclear energy                   60.550799650184
  RHF Virial quotient                  -1.001851718476

 !RHF STATE 1.1 Dipole moment          -0.00000000    -0.00000000    -1.64222183
 Dipole moment /Debye                  -0.00000000    -0.00000000    -4.17411153

 Orbital energies:

           1.1          2.1          3.1          4.1          5.1          6.1          7.1          8.1          9.1         10.1
    -20.580797   -15.760200   -11.315959    -1.511837    -1.227551    -0.817916    -0.730694    -0.679061    -0.679061    -0.405994

          11.1         12.1         13.1
     -0.405994     0.133532     0.157487


 HOMO     11.1    -0.405994 =     -11.0477eV
 LUMO     12.1     0.133532 =       3.6336eV
 LUMO-HOMO         0.539526 =      14.6812eV

 Orbitals saved in record  2100.2


 **********************************************************************************************************************************
 DATASETS  * FILE   NREC   LENGTH (MB)   RECORD NAMES
              1      19       43.54       500      610      700      900      950      970     1000      129      960     1100   
                                          VAR    BASINP    GEOM    SYMINP    ZMAT    AOBASIS   BASIS     P2S    ABASIS      S 
                                         1400     1410     1200     1210     1080     1600     1650     1300     1700   
                                           T        V       H0       H01     AOSYM     SMH    MOLCAS    ERIS     OPER   

              2       4        0.61       700     1000      520     2100   
                                         GEOM     BASIS   MCVARS     RHF  

 PROGRAMS   *        TOTAL    HF-SCF       INT
 CPU TIMES  *         1.43      0.73      0.62
 REAL TIME  *         1.61 SEC
 DISK USED  *        84.74 MB
 **********************************************************************************************************************************


 PROGRAM * MP4 (Closed-shell)     Authors: C. Hampel, H.-J. Werner, 1991, M. Deegan, P.J. Knowles, 1992


 Convergence thresholds:  THRVAR = 1.00D-08  THRDEN = 1.00D-06

 MP4(T)     terms to be evaluated (factor= 0.000)


 Number of core orbitals:           3 (   3 )
 Number of closed-shell orbitals:   8 (   8 )
 Number of external orbitals:      93 (  93 )

 Molecular orbitals read from record     2100.2  Type=RHF/CANONICAL  

 Number of N-1 electron functions:               8
 Number of N-2 electron functions:              36
 Number of singly external CSFs:               744
 Number of doubly external CSFs:            277140
 Total number of CSFs:                      277885

 Length of J-op  integral file:               0.00 MB
 Length of K-op  integral file:               0.81 MB

 Memory could be reduced to 9.31 Mwords without degradation in triples

 Integral transformation finished. Total CPU:   0.26 sec, npass=  1  Memory used:   6.00 MW

 Reference energy:                   -167.69437058

                        CORR.ENERGY   TOTAL ENERGY   ENERGY CHANGE
 MP2:                   -0.60384025  -168.29821083    -0.60384025

 SCS-MP2 correlation energy:           -0.58625440   (PS=  1.200000  PT=  0.333333)
 SCS-MP2 total energy:               -168.28062498

 MP3(D):                -0.58565145  -168.28002202     0.01818881
 MP4(DQ):               -0.58593041  -168.28030099    -0.00027896
 MP4(SDQ):              -0.59855107  -168.29292165    -0.01262066

 Norm of t1 vector:      0.11052446      S-energy:    -0.01262066      T1 diagnostic:  0.01953815


 Total CPU time for triples:      2.74 sec


 RESULTS
 =======

  Reference energy                   -167.694370578182
  MP4(SDQ) singlet pair energy         -0.375935324799
  MP4(SDQ) triplet pair energy         -0.209995083049
  MP4(SDQ) correlation energy          -0.598551069373

  Triples contribution                 -0.041989122029
  Total correlation energy             -0.640540191401

  MP4(SDQ) total energy              -168.292921647555
 !MP4(SDTQ) total energy             -168.334910769584

 Timing summary (sec):

 STEP                 CPU(USER)    SYS     CPU(TOT)    WALL
 Transformation          0.27      0.02      0.29      0.29
 CCSD iterations         1.84      0.01      1.85      0.32
 Triples                 2.74      0.15      2.89      3.28

 Program statistics:

 Available memory in ccsd:               393215733
 Min. memory needed in ccsd:                862184
 Max. memory used in ccsd:                 1087764
 Max. memory used in cckext:                876418 ( 1 integral passes)



 **********************************************************************************************************************************
 DATASETS  * FILE   NREC   LENGTH (MB)   RECORD NAMES
              1      20       72.99       500      610      700      900      950      970     1000      129      960     1100   
                                          VAR    BASINP    GEOM    SYMINP    ZMAT    AOBASIS   BASIS     P2S    ABASIS      S 
                                         1400     1410     1200     1210     1080     1600     1650     1300     1700     1380   
                                           T        V       H0       H01     AOSYM     SMH    MOLCAS    ERIS     OPER     JKOP   

              2       4        0.61       700     1000      520     2100   
                                         GEOM     BASIS   MCVARS     RHF  

 PROGRAMS   *        TOTAL       MP4    HF-SCF       INT
 CPU TIMES  *         4.77      3.34      0.73      0.62
 REAL TIME  *         5.53 SEC
 DISK USED  *       115.48 MB
 **********************************************************************************************************************************

 Dump information in style XML to xml output                                                                      

 Orbitals will not be exported.

 **********************************************************************************************************************************

 MP4/cc-pVTZ energy=   -168.334910769584

             MP4          HF-SCF
   -168.33491077   -167.69437058
 **********************************************************************************************************************************
 Molpro calculation terminated
