
 Working directory              : /var/folders/2v/xbgp75_9785319ghcgb4zr4r0000gp/T//molpro.CMSSrwO8NQ/
 Global scratch directory       : /var/folders/2v/xbgp75_9785319ghcgb4zr4r0000gp/T//molpro.CMSSrwO8NQ/
 Wavefunction directory         : /Users/sacpjk/wfu/
 Main file repository           : /var/folders/2v/xbgp75_9785319ghcgb4zr4r0000gp/T//molpro.CMSSrwO8NQ/

 id        : peterk

 Nodes                        nprocs
 Cardiff-University-G34YLXT77Y    1
 GA implementation: MPI file
 GA implementation (serial work in mppx): MPI file

 Using customized tuning parameters: mindgm=1; mindgv=20; mindgc=4; mindgr=1; noblas=0; minvec=7
 default implementation of scratch files=df  


 Variables initialized (1032), CPU time= 0.00 sec
 
 symmetry,nosym
 
 
 geometry={
 6
  o         -0.350846522910   -0.783222408161   -0.684135090557
  h         -0.068820403941   -0.413273643348   -1.523999170866
  c          0.035067324752    0.128361852579    0.335301071427
  h         -0.288115724054   -0.301270820150    1.278367615473
  h          1.116122563095    0.267445321468    0.374341038266
  h         -0.443407236942    1.101959697613    0.220124536257
 }
 basis=aug-cc-pVTZ
 
 
 
 hf; ccsd(t)
 
 
 
 {put,xml;noorbitals,nobasis}
 Commands initialized (841), CPU time= 0.01 sec, 704 directives.
 Default parameters read. Elapsed time= 0.54 sec

 Checking input...
 Passed
1


                                         ***  PROGRAM SYSTEM MOLPRO  ***
                                       Copyright, TTI GmbH Stuttgart, 2015
                                    Version 2023.1 linked Tue Jun  6 09:54:11 2023


 **********************************************************************************************************************************
 LABEL *                                                                                                                                                                 
  64 bit serial version                                                                  DATE: 09-Jun-23          TIME: 02:36:53  
 **********************************************************************************************************************************

 SHA1:             8ebb0dd001088a5c915591db1a321413035db0b1
 **********************************************************************************************************************************

 Memory per process:       805 MW
 Total memory per node:   1074 MW
 Total GA space:           268 MW

 GA preallocation disabled
 GA check enabled

 Variable memory set to 805.3 MW

 ZSYMEL=NOSYM


 Geometry recognized as XYZ

 SETTING BASIS          =    AUG-CC-PVTZ


 Recomputing integrals since basis changed


 Using spherical harmonics

 Library entry O      S aug-cc-pVTZ          selected for orbital group  1
 Library entry O      P aug-cc-pVTZ          selected for orbital group  1
 Library entry O      D aug-cc-pVTZ          selected for orbital group  1
 Library entry O      F aug-cc-pVTZ          selected for orbital group  1
 Library entry H      S aug-cc-pVTZ          selected for orbital group  2
 Library entry H      P aug-cc-pVTZ          selected for orbital group  2
 Library entry H      D aug-cc-pVTZ          selected for orbital group  2
 Library entry C      S aug-cc-pVTZ          selected for orbital group  3
 Library entry C      P aug-cc-pVTZ          selected for orbital group  3
 Library entry C      D aug-cc-pVTZ          selected for orbital group  3
 Library entry C      F aug-cc-pVTZ          selected for orbital group  3


 PROGRAM * SEWARD (Integral evaluation for generally contracted gaussian basis sets)     Author: Roland Lindh, 1990

 Geometry written to block  1 of record 700


 Point group  C1  



 ATOMIC COORDINATES

 NR  ATOM    CHARGE       X              Y              Z

   1  O       8.00   -0.663003840   -1.480075846   -1.292827953
   2  H       1.00   -0.130051715   -0.780974000   -2.879941047
   3  C       6.00    0.066267640    0.242568746    0.633627194
   4  H       1.00   -0.544459811   -0.569319339    2.415764680
   5  H       1.00    2.109165966    0.505398411    0.707402040
   6  H       1.00   -0.837918239    2.082402029    0.415975087

 Bond lengths in Bohr (Angstrom)

 1-2  1.814306846  1-3  2.685250588  3-4  2.051381071  3-5  2.061056945  3-6  2.061531240
     ( 0.960089836)     ( 1.420973417)     ( 1.085544114)     ( 1.090664366)     ( 1.090915352)

 Bond angles

  1-3-4  106.76853260   1-3-5  112.12813205   1-3-6  112.18950395   2-1-3  107.49423241

  4-3-5  108.32856604   4-3-6  108.32203169   5-3-6  108.94776655

 NUCLEAR CHARGE:                   18
 NUMBER OF PRIMITIVE AOS:         242
 NUMBER OF SYMMETRY AOS:          216
 NUMBER OF CONTRACTIONS:          184   (  184A   )
 NUMBER OF INNER CORE ORBITALS:     0   (    0A   )
 NUMBER OF OUTER CORE ORBITALS:     2   (    2A   )
 NUMBER OF VALENCE ORBITALS:       12   (   12A   )


 NUCLEAR REPULSION ENERGY   40.34710778

 Eigenvalues of metric

         1 0.605E-04 0.734E-04 0.883E-04 0.203E-03 0.406E-03 0.485E-03 0.755E-03 0.771E-03


 Contracted 2-electron integrals neglected if value below      1.0D-11
 AO integral compression algorithm  1   Integral accuracy      1.0D-11

     721.945 MB (compressed) written to integral file ( 53.1%)


 NUMBER OF SORTED TWO-ELECTRON INTEGRALS:  144848710.     BUFFER LENGTH:  32768
 NUMBER OF SEGMENTS:  10  SEGMENT LENGTH:   15999503      RECORD LENGTH: 524288

 Memory used in sort:      16.56 MW

 SORT1 READ   170053774. AND WROTE   143586203. INTEGRALS IN    414 RECORDS. CPU TIME:     1.04 SEC, REAL TIME:     1.60 SEC
 SORT2 READ   143586203. AND WROTE   144848710. INTEGRALS IN   2754 RECORDS. CPU TIME:     0.85 SEC, REAL TIME:     2.10 SEC

 FILE SIZES:   FILE 1:   753.3 MBYTE,  FILE 4:  1736.5 MBYTE,   TOTAL:   2489.8 MBYTE

 OPERATOR DM      FOR CENTER  0  COORDINATES:    0.000000    0.000000    0.000000


 **********************************************************************************************************************************
 DATASETS  * FILE   NREC   LENGTH (MB)   RECORD NAMES
              1      19      630.80       500      610      700      900      950      970     1000      129      960     1100   
                                          VAR    BASINP    GEOM    SYMINP    ZMAT    AOBASIS   BASIS     P2S    ABASIS      S 
                                         1400     1410     1200     1210     1080     1600     1650     1300     1700   
                                           T        V       H0       H01     AOSYM     SMH    MOLCAS    ERIS     OPER   

 PROGRAMS   *        TOTAL       INT
 CPU TIMES  *         5.06      4.96
 REAL TIME  *        19.45 SEC
 DISK USED  *         2.32 GB
 **********************************************************************************************************************************


 Program * Restricted Hartree-Fock

 Orbital guess generated from atomic densities. Full valence occupancy:   14

 Initial occupancy:   9

 NELEC=   18   SYM=1   MS2= 0   THRE=1.0D-08   THRD=3.2D-06   THRG=3.2D-06  HFMA2=F  DIIS_START=2   DIIS_MAX=10   DIIS_INCORE=F

 Level shifts:    0.00 (CLOSED)    0.00 (OPEN)    0.30 (GAP_MIN)

 ITER           ETOT              DE          GRAD        DDIFF     DIIS  NEXP   TIME(IT)  TIME(TOT)  DIAG
   1     -115.05618394    -115.05618394     0.00D+00     0.46D-01     0     0       0.69      1.27    start
   2     -115.08424245      -0.02805852     0.49D-02     0.53D-02     1     0       0.62      1.89    diag
   3     -115.09152251      -0.00728006     0.27D-02     0.17D-02     2     0       0.67      2.56    diag
   4     -115.09205104      -0.00052853     0.53D-03     0.44D-03     3     0       0.63      3.19    diag
   5     -115.09208369      -0.00003265     0.10D-03     0.10D-03     4     0       0.62      3.81    diag
   6     -115.09208519      -0.00000150     0.19D-04     0.26D-04     5     0       0.65      4.46    diag
   7     -115.09208526      -0.00000007     0.41D-05     0.59D-05     6     0       0.65      5.11    diag
   8     -115.09208527      -0.00000000     0.10D-05     0.16D-05     7     0       0.62      5.73    fixocc
   9     -115.09208527      -0.00000000     0.32D-06     0.36D-06     0     0       0.70      6.43    diag

 Final occupancy:   9

 !RHF STATE 1.1 Energy               -115.092085266623
  RHF One-electron energy            -236.922735443662
  RHF Two-electron energy              81.483542400058
  RHF Kinetic energy                  114.927958593796
  RHF Nuclear energy                   40.347107776982
  RHF Virial quotient                  -1.001428083078

 !RHF STATE 1.1 Dipole moment           0.34124345     0.62183636    -0.08313637
 Dipole moment /Debye                   0.86735432     1.58055038    -0.21131158

 Orbital energies:

           1.1          2.1          3.1          4.1          5.1          6.1          7.1          8.1          9.1         10.1
    -20.559588   -11.270518    -1.358075    -0.926443    -0.691504    -0.620940    -0.593222    -0.505215    -0.452281     0.028472

          11.1
      0.042977


 HOMO      9.1    -0.452281 =     -12.3072eV
 LUMO     10.1     0.028472 =       0.7748eV
 LUMO-HOMO         0.480753 =      13.0819eV

 Orbitals saved in record  2100.2


 **********************************************************************************************************************************
 DATASETS  * FILE   NREC   LENGTH (MB)   RECORD NAMES
              1      19      630.80       500      610      700      900      950      970     1000      129      960     1100   
                                          VAR    BASINP    GEOM    SYMINP    ZMAT    AOBASIS   BASIS     P2S    ABASIS      S 
                                         1400     1410     1200     1210     1080     1600     1650     1300     1700   
                                           T        V       H0       H01     AOSYM     SMH    MOLCAS    ERIS     OPER   

              2       4        1.00       700     1000      520     2100   
                                         GEOM     BASIS   MCVARS     RHF  

 PROGRAMS   *        TOTAL    HF-SCF       INT
 CPU TIMES  *        11.50      6.43      4.96
 REAL TIME  *        28.37 SEC
 DISK USED  *         2.32 GB
 **********************************************************************************************************************************


 PROGRAM * CCSD (Closed-shell coupled cluster)     Authors: C. Hampel, H.-J. Werner, 1991, M. Deegan, P.J. Knowles, 1992


 Convergence thresholds:  THRVAR = 1.00D-08  THRDEN = 1.00D-06

 CCSD(T)     terms to be evaluated (factor= 1.000)


 Number of core orbitals:           2 (   2 )
 Number of closed-shell orbitals:   7 (   7 )
 Number of external orbitals:     175 ( 175 )

 Molecular orbitals read from record     2100.2  Type=RHF/CANONICAL  

 Number of N-1 electron functions:               7
 Number of N-2 electron functions:              28
 Number of singly external CSFs:              1225
 Number of doubly external CSFs:            750925
 Total number of CSFs:                      752151

 Length of J-op  integral file:               0.00 MB
 Length of K-op  integral file:               2.39 MB
 Length of 3-ext integral record:             0.00 MB

 Memory could be reduced to 53.22 Mwords without degradation in triples

 Integral transformation finished. Total CPU:   2.62 sec, npass=  1  Memory used:  27.38 MW

 Reference energy:                   -115.09208527

 MP2 singlet pair energy:              -0.28682800
 MP2 triplet pair energy:              -0.15007254
 MP2 correlation energy:               -0.43690054
 MP2 total energy:                   -115.52898581

 SCS-MP2 correlation energy:           -0.43757207   (PS=  1.200000  PT=  0.333333)
 SCS-MP2 total energy:               -115.52965734

 ITER.      SQ.NORM     CORR.ENERGY   TOTAL ENERGY   ENERGY CHANGE        DEN1      VAR(S)    VAR(P)  DIIS     TIME  TIME/IT
   1      1.12027388    -0.45322841  -115.54531368    -0.01632787    -0.00554550  0.16D-02  0.19D-02  1  1    16.28     2.41
   2      1.12853011    -0.45431546  -115.54640073    -0.00108705    -0.00965687  0.20D-04  0.25D-03  2  2    18.35     2.44
   3      1.13138815    -0.45440325  -115.54648852    -0.00008779    -0.00185140  0.16D-04  0.11D-04  3  3    20.36     2.40
   4      1.13216140    -0.45438850  -115.54647377     0.00001475    -0.00036641  0.92D-06  0.12D-05  4  4    22.47     2.43
   5      1.13233042    -0.45438990  -115.54647517    -0.00000140    -0.00005325  0.23D-06  0.10D-06  5  5    24.36     2.39
   6      1.13237707    -0.45438611  -115.54647138     0.00000379    -0.00000989  0.36D-07  0.97D-08  6  6    26.42     2.37
   7      1.13238735    -0.45438517  -115.54647044     0.00000094    -0.00000151  0.49D-08  0.21D-08  6  2    28.46     2.39
   8      1.13238992    -0.45438508  -115.54647035     0.00000009    -0.00000001  0.80D-09  0.27D-09  6  1    30.81     2.44

 Norm of t1 vector:      0.05244043      S-energy:    -0.00000017      T1 diagnostic:  0.00991031
                                                                       D1 diagnostic:  0.02319217
                                                                       D2 diagnostic:  0.13802185 (internal)


 Total CPU time for triples:     27.14 sec


 RESULTS
 =======

  Reference energy                   -115.092085266622
  CCSD singlet pair energy             -0.318196663937
  CCSD triplet pair energy             -0.136188251194
  CCSD correlation energy              -0.454385084963

  Triples (T) contribution             -0.015850270208
  Total correlation energy             -0.470235355172

  CCSD total energy                  -115.546470351586
  CCSD[T] energy                     -115.562888033686
  CCSD-T energy                      -115.562028528267
 !CCSD(T) total energy               -115.562320621794

 Timing summary (sec):

 STEP                 CPU(USER)    SYS     CPU(TOT)    WALL
 Transformation          2.64      0.29      2.93      3.61
 CCSD iterations        28.20      1.29     29.49     20.34
 Triples                27.14      0.78     27.92     29.50

 Program statistics:

 Available memory in ccsd:               805306163
 Min. memory needed in ccsd:               2385617
 Max. memory used in ccsd:                 3007350
 Max. memory used in cckext:               2165242 ( 8 integral passes)



 **********************************************************************************************************************************
 DATASETS  * FILE   NREC   LENGTH (MB)   RECORD NAMES
              1      20      786.12       500      610      700      900      950      970     1000      129      960     1100   
                                          VAR    BASINP    GEOM    SYMINP    ZMAT    AOBASIS   BASIS     P2S    ABASIS      S 
                                         1400     1410     1200     1210     1080     1600     1650     1300     1700     1380   
                                           T        V       H0       H01     AOSYM     SMH    MOLCAS    ERIS     OPER     JKOP   

              2       4        1.00       700     1000      520     2100   
                                         GEOM     BASIS   MCVARS     RHF  

 PROGRAMS   *        TOTAL   CCSD(T)    HF-SCF       INT
 CPU TIMES  *        57.86     46.36      6.43      4.96
 REAL TIME  *        84.19 SEC
 DISK USED  *         2.32 GB
 **********************************************************************************************************************************

 Dump information in style XML to xml output                                                                      

 Orbitals will not be exported.

 **********************************************************************************************************************************

 CCSD(T)/aug-cc-pVTZ energy=   -115.562320621794

         CCSD(T)          HF-SCF
   -115.56232062   -115.09208527
 **********************************************************************************************************************************
 Molpro calculation terminated
