
 Working directory              : /tmp/peterk/molpro.ToSNYlT15v/
 Global scratch directory       : /tmp/peterk/molpro.ToSNYlT15v/
 Wavefunction directory         : /home/peterk/wfu/
 Main file repository           : /tmp/peterk/molpro.ToSNYlT15v/

 id        : peterk

 Nodes     nprocs
 marat        1
 GA implementation: MPI file
 GA implementation (serial work in mppx): MPI file

 Using customized tuning parameters: mindgm=1; mindgv=20; mindgc=4; mindgr=1; noblas=0; minvec=7
 default implementation of scratch files=df  


 Variables initialized (1032), CPU time= 0.01 sec
 
 symmetry,nosym
 
 
 geometry={
           13
     C         -1.95562211     -0.53954090      0.00000805
     C         -1.13108458      0.71318040      0.00005005
     C          0.20564837      0.80700882      0.00002705
     C          1.15756998     -0.30167414     -0.00004295
     C          2.48359820     -0.12620320     -0.00003495
     H         -2.60507076     -0.56886261      0.87713351
     H         -2.60511309     -0.56877265     -0.87708907
     H         -1.35131756     -1.44334918     -0.00005395
     H         -1.69365291      1.64032011      0.00010405
     H          0.64577091      1.79837477      0.00006505
     H          0.76527501     -1.31050982     -0.00010395
     H          3.16470753     -0.96498882     -0.00008695
     H          2.91929100      0.86501723      0.00002405
 }
 basis=cc-pVQZ
 
 
 
 hf
 
 
 
 {put,xml;noorbitals,nobasis}
 Commands initialized (841), CPU time= 0.01 sec, 708 directives.
 Default parameters read. Elapsed time= 0.05 sec

 Checking input...
 Passed
1


                                         ***  PROGRAM SYSTEM MOLPRO  ***
                                       Copyright, TTI GmbH Stuttgart, 2015
                                    Version 2023.1 linked Sat Jun 10 08:01:27 2023


 **********************************************************************************************************************************
 LABEL *                                                                                                                                                                 
  (16 PROC) 64 bit serial version                                                        DATE: 10-Jun-23          TIME: 11:56:07  
 **********************************************************************************************************************************

 SHA1:             8376d659ba1296ca7ee514c57770fe2c96af278c
 **********************************************************************************************************************************

 Memory per process:      1074 MW
 Total memory per node:   1074 MW

 GA preallocation disabled
 GA check disabled

 Variable memory set to 1073.7 MW

 ZSYMEL=NOSYM


 Geometry recognized as XYZ

 SETTING BASIS          =    CC-PVQZ


 Recomputing integrals since basis changed


 Using spherical harmonics

 Library entry C      S cc-pVQZ              selected for orbital group  1
 Library entry C      P cc-pVQZ              selected for orbital group  1
 Library entry C      D cc-pVQZ              selected for orbital group  1
 Library entry C      F cc-pVQZ              selected for orbital group  1
 Library entry C      G cc-pVQZ              selected for orbital group  1
 Library entry H      S cc-pVQZ              selected for orbital group  2
 Library entry H      P cc-pVQZ              selected for orbital group  2
 Library entry H      D cc-pVQZ              selected for orbital group  2
 Library entry H      F cc-pVQZ              selected for orbital group  2


 PROGRAM * SEWARD (Integral evaluation for generally contracted gaussian basis sets)     Author: Roland Lindh, 1990

 Geometry written to block  1 of record 700


 Point group  C1  



 ATOMIC COORDINATES

 NR  ATOM    CHARGE       X              Y              Z

   1  C       6.00   -3.695590191   -1.019584534    0.000015212
   2  C       6.00   -2.137440080    1.347715633    0.000094581
   3  C       6.00    0.388619097    1.525025650    0.000051117
   4  C       6.00    2.187490232   -0.570081503   -0.000081164
   5  C       6.00    4.693320402   -0.238489484   -0.000066046
   6  H       1.00   -4.922870272   -1.074994535    1.657542109
   7  H       1.00   -4.922950264   -1.074824536   -1.657458129
   8  H       1.00   -2.553620096   -2.727534652   -0.000101951
   9  H       1.00   -3.200540150    3.099755765    0.000196626
  10  H       1.00    1.220330159    3.398435785    0.000122927
  11  H       1.00    1.446160179   -2.476504643   -0.000196437
  12  H       1.00    5.980430496   -1.823564583   -0.000164312
  13  H       1.00    5.516660468    1.634645658    0.000045448

 Bond lengths in Bohr (Angstrom)

 1-2  2.834068076  1-6  2.063172818  1-7  2.063172820  1-8  2.054553314  2-3  2.532274434
     ( 1.499724240)     ( 1.091784037)     ( 1.091784038)     ( 1.087222792)     ( 1.340021922)

  2- 9  2.049347796   3- 4  2.761414739   3-10  2.049733843   4- 5  2.527674446   4-11  2.045487582
       ( 1.084468151)       ( 1.461277750)       ( 1.084672438)       ( 1.337587713)       ( 1.082425414)

  5-12  2.041841197   5-13  2.046099738
       ( 1.080495830)       ( 1.082749352)

 Bond angles

  1-2-3  127.36793620   1-2-9  115.39873262   2-1-6  110.45402152   2-1-7  110.45386782

  2- 1- 8  112.87971288   2- 3- 4  126.63443987   2- 3-10  117.95423915   3- 2- 9  117.23333118

  3- 4- 5  123.11152689   3- 4-11  118.10139595   4- 3-10  115.41132098   4- 5-12  121.53918017

  4- 5-13  121.26603237   5- 4-11  118.78707715   6- 1- 7  106.90709601   6- 1- 8  107.95995642

  7- 1- 8  107.95986127  12- 5-13  117.19478746

 NUCLEAR CHARGE:                   38
 NUMBER OF PRIMITIVE AOS:         711
 NUMBER OF SYMMETRY AOS:          596
 NUMBER OF CONTRACTIONS:          515   (  515A   )
 NUMBER OF INNER CORE ORBITALS:     0   (    0A   )
 NUMBER OF OUTER CORE ORBITALS:     5   (    5A   )
 NUMBER OF VALENCE ORBITALS:       28   (   28A   )


 NUCLEAR REPULSION ENERGY  155.81513849


 Eigenvalues of metric

         1 0.328E-04 0.644E-04 0.660E-04 0.826E-04 0.934E-04 0.111E-03 0.140E-03 0.153E-03


 Contracted 2-electron integrals neglected if value below      1.0D-12
 AO integral compression algorithm  1   Integral accuracy      1.0D-12

     21075.591 MB (compressed) written to integral file ( 30.1%)


 NUMBER OF SORTED TWO-ELECTRON INTEGRALS: 8827284885.     BUFFER LENGTH:  32768
 NUMBER OF SEGMENTS: 185  SEGMENT LENGTH:   47999545      RECORD LENGTH: 131072

 Memory used in sort:      48.16 MW

 SORT1 READ  8746625500. AND WROTE  5673039240. INTEGRALS IN  65018 RECORDS. CPU TIME:   105.91 SEC, REAL TIME:   376.71 SEC
 SORT2 READ  5673039240. AND WROTE  8827284885. INTEGRALS IN  80397 RECORDS. CPU TIME:    67.40 SEC, REAL TIME:   452.25 SEC

 FILE SIZES:   FILE 1: 21115.5 MBYTE,  FILE 4: 68176.4 MBYTE,   TOTAL:  89291.9 MBYTE

 OPERATOR DM      FOR CENTER  0  COORDINATES:    0.000000    0.000000    0.000000


 **********************************************************************************************************************************
 DATASETS  * FILE   NREC   LENGTH (MB)   RECORD NAMES
              1      19    18258.09       500      610      700      900      950      970     1000      129      960     1100   
                                          VAR    BASINP    GEOM    SYMINP    ZMAT    AOBASIS   BASIS     P2S    ABASIS      S 
                                         1400     1410     1200     1210     1080     1600     1650     1300     1700   
                                           T        V       H0       H01     AOSYM     SMH    MOLCAS    ERIS     OPER   

 PROGRAMS   *        TOTAL       INT
 CPU TIMES  *       382.16    382.07
 REAL TIME  *      1056.22 SEC
 DISK USED  *        83.16 GB
 **********************************************************************************************************************************


 Program * Restricted Hartree-Fock

 Orbital guess generated from atomic densities. Full valence occupancy:   33

 Initial occupancy:  19

 NELEC=   38   SYM=1   MS2= 0   THRE=1.0D-08   THRD=3.2D-06   THRG=3.2D-06  HFMA2=F  DIIS_START=2   DIIS_MAX=10   DIIS_INCORE=F

 Level shifts:    0.00 (CLOSED)    0.00 (OPEN)    0.30 (GAP_MIN)

 ITER           ETOT              DE          GRAD        DDIFF     DIIS  NEXP   TIME(IT)  TIME(TOT)  DIAG
   1     -193.97547252    -193.97547252     0.00D+00     0.24D-01     0     0      62.43    138.19    start
   2     -194.03201148      -0.05653895     0.20D-02     0.20D-02     1     0      61.74    199.93    diag
   3     -194.03840708      -0.00639560     0.73D-03     0.62D-03     2     0      61.80    261.73    diag
   4     -194.03944822      -0.00104114     0.25D-03     0.27D-03     3     0      61.89    323.62    diag
   5     -194.03949995      -0.00005173     0.66D-04     0.63D-04     4     0      61.85    385.47    diag
   6     -194.03950625      -0.00000629     0.18D-04     0.26D-04     5     0      61.89    447.36    diag
   7     -194.03950667      -0.00000043     0.41D-05     0.70D-05     6     0      61.90    509.26    diag
   8     -194.03950672      -0.00000005     0.12D-05     0.20D-05     7     0      61.80    571.06    fixocc
   9     -194.03950673      -0.00000001     0.70D-06     0.93D-06     8     0      61.73    632.79    diag
  10     -194.03950673      -0.00000000     0.19D-06     0.26D-06     0     0      61.76    694.55    diag/orth

 Final occupancy:  19

 !RHF STATE 1.1 Energy               -194.039506733096
  RHF One-electron energy            -568.850008679899
  RHF Two-electron energy             218.995363459324
  RHF Kinetic energy                  193.826481930718
  RHF Nuclear energy                  155.815138487479
  RHF Virial quotient                  -1.001099049006

 !RHF STATE 1.1 Dipole moment          -0.20680257    -0.06309745     0.00000118
 Dipole moment /Debye                  -0.52563969    -0.16037772     0.00000300

 Orbital energies:

           1.1          2.1          3.1          4.1          5.1          6.1          7.1          8.1          9.1         10.1
    -11.233968   -11.233466   -11.226309   -11.222558   -11.222513    -1.095868    -1.026436    -0.933388    -0.809062    -0.728388

          11.1         12.1         13.1         14.1         15.1         16.1         17.1         18.1         19.1         20.1
     -0.658216    -0.616663    -0.570893    -0.568215    -0.537545    -0.523453    -0.476975    -0.432791    -0.312950     0.113507

          21.1
      0.116190


 HOMO     19.1    -0.312950 =      -8.5158eV
 LUMO     20.1     0.113507 =       3.0887eV
 LUMO-HOMO         0.426457 =      11.6045eV

 Orbitals saved in record  2100.2


 **********************************************************************************************************************************
 DATASETS  * FILE   NREC   LENGTH (MB)   RECORD NAMES
              1      19    18258.09       500      610      700      900      950      970     1000      129      960     1100   
                                          VAR    BASINP    GEOM    SYMINP    ZMAT    AOBASIS   BASIS     P2S    ABASIS      S 
                                         1400     1410     1200     1210     1080     1600     1650     1300     1700   
                                           T        V       H0       H01     AOSYM     SMH    MOLCAS    ERIS     OPER   

              2       4        4.71       700     1000      520     2100   
                                         GEOM     BASIS   MCVARS     RHF  

 PROGRAMS   *        TOTAL    HF-SCF       INT
 CPU TIMES  *      1076.73    694.57    382.07
 REAL TIME  *      1872.88 SEC
 DISK USED  *        83.16 GB
 **********************************************************************************************************************************

 Dump information in style XML to xml output                                                                      

 Orbitals will not be exported.

 **********************************************************************************************************************************

 HF/cc-pVQZ energy=   -194.039506733096

          HF-SCF
   -194.03950673
 **********************************************************************************************************************************
 Molpro calculation terminated
