
 Working directory              : /var/folders/2v/xbgp75_9785319ghcgb4zr4r0000gp/T//molpro.4LXtoL3Z0q/
 Global scratch directory       : /var/folders/2v/xbgp75_9785319ghcgb4zr4r0000gp/T//molpro.4LXtoL3Z0q/
 Wavefunction directory         : /Users/sacpjk/wfu/
 Main file repository           : /var/folders/2v/xbgp75_9785319ghcgb4zr4r0000gp/T//molpro.4LXtoL3Z0q/

 id        : peterk

 Nodes                        nprocs
 Cardiff-University-G34YLXT77Y    1
 GA implementation: MPI file
 GA implementation (serial work in mppx): MPI file

 Using customized tuning parameters: mindgm=1; mindgv=20; mindgc=4; mindgr=1; noblas=0; minvec=7
 default implementation of scratch files=df  


 Variables initialized (1032), CPU time= 0.01 sec
 
 symmetry,nosym
 
 
 geometry={
            2
     N          0.00000000      0.00000000      0.51836669
     H          0.00000000      0.00000000     -0.51836669
 }
 basis=cc-pVDZ
 
 
 spin=2
 uhf
 
 
 
 {put,xml;noorbitals,nobasis}
 Commands initialized (841), CPU time= 0.00 sec, 704 directives.
 Default parameters read. Elapsed time= 0.15 sec

 Checking input...
 Passed
1


                                         ***  PROGRAM SYSTEM MOLPRO  ***
                                       Copyright, TTI GmbH Stuttgart, 2015
                                    Version 2023.1 linked Tue Jun  6 09:54:11 2023


 **********************************************************************************************************************************
 LABEL *                                                                                                                                                                 
  64 bit serial version                                                                  DATE: 09-Jun-23          TIME: 09:26:54  
 **********************************************************************************************************************************

 SHA1:             8ebb0dd001088a5c915591db1a321413035db0b1
 **********************************************************************************************************************************

 Memory per process:       805 MW
 Total memory per node:   1074 MW
 Total GA space:           268 MW

 GA preallocation disabled
 GA check enabled

 Variable memory set to 805.3 MW

 ZSYMEL=NOSYM


 Geometry recognized as XYZ

 SETTING BASIS          =    CC-PVDZ
 SETTING SPIN           =         2.00000000                                  


 Recomputing integrals since basis changed


 Using spherical harmonics

 Library entry N      S cc-pVDZ              selected for orbital group  1
 Library entry N      P cc-pVDZ              selected for orbital group  1
 Library entry N      D cc-pVDZ              selected for orbital group  1
 Library entry H      S cc-pVDZ              selected for orbital group  2
 Library entry H      P cc-pVDZ              selected for orbital group  2


 PROGRAM * SEWARD (Integral evaluation for generally contracted gaussian basis sets)     Author: Roland Lindh, 1990

 Geometry written to block  1 of record 700


 Point group  C1  



 ATOMIC COORDINATES

 NR  ATOM    CHARGE       X              Y              Z

   1  N       7.00    0.000000000    0.000000000    0.979571076
   2  H       1.00    0.000000000    0.000000000   -0.979571076

 Bond lengths in Bohr (Angstrom)

 1-2  1.959142152
     ( 1.036733380)

 NUCLEAR CHARGE:                    8
 NUMBER OF PRIMITIVE AOS:          34
 NUMBER OF SYMMETRY AOS:           33
 NUMBER OF CONTRACTIONS:           19   (   19A   )
 NUMBER OF INNER CORE ORBITALS:     0   (    0A   )
 NUMBER OF OUTER CORE ORBITALS:     1   (    1A   )
 NUMBER OF VALENCE ORBITALS:        5   (    5A   )


 NUCLEAR REPULSION ENERGY    3.57299239

 EXTRA SYMMETRY OF AOS IN SYMMETRY 1:   1 1 1 2 3 1 2 3 1 1   4 2 5 3 1 1 2 3 1

 Eigenvalues of metric

         1 0.255E-01 0.477E-01 0.145E+00 0.163E+00 0.181E+00 0.181E+00 0.537E+00 0.537E+00


 Contracted 2-electron integrals neglected if value below      1.0D-11
 AO integral compression algorithm  1   Integral accuracy      1.0D-11

     0.262 MB (compressed) written to integral file ( 49.2%)


 NUMBER OF SORTED TWO-ELECTRON INTEGRALS:      18145.     BUFFER LENGTH:  32768
 NUMBER OF SEGMENTS:   1  SEGMENT LENGTH:      18145      RECORD LENGTH: 524288

 Memory used in sort:       0.58 MW

 SORT1 READ       24532. AND WROTE        4125. INTEGRALS IN      1 RECORDS. CPU TIME:     0.00 SEC, REAL TIME:     0.00 SEC
 SORT2 READ        4125. AND WROTE       18145. INTEGRALS IN      1 RECORDS. CPU TIME:     0.01 SEC, REAL TIME:     0.01 SEC

 FILE SIZES:   FILE 1:    30.3 MBYTE,  FILE 4:     4.3 MBYTE,   TOTAL:     34.5 MBYTE

 OPERATOR DM      FOR CENTER  0  COORDINATES:    0.000000    0.000000    0.000000


 **********************************************************************************************************************************
 DATASETS  * FILE   NREC   LENGTH (MB)   RECORD NAMES
              1      19       28.65       500      610      700      900      950      970     1000      129      960     1100   
                                          VAR    BASINP    GEOM    SYMINP    ZMAT    AOBASIS   BASIS     P2S    ABASIS      S 
                                         1400     1410     1200     1210     1080     1600     1650     1300     1700   
                                           T        V       H0       H01     AOSYM     SMH    MOLCAS    ERIS     OPER   

 PROGRAMS   *        TOTAL       INT
 CPU TIMES  *         0.16      0.08
 REAL TIME  *         0.73 SEC
 DISK USED  *        33.25 MB
 **********************************************************************************************************************************


 Program * Unrestricted Hartree-Fock

 Orbital guess generated from atomic densities. Full valence occupancy:    6

 Initial alpha occupancy:   5
 Initial beta  occupancy:   3

 Elapsed time for starting guess:      0.00 sec

 NELEC=    8   SYM=1   MS2=2   THRE=1.0D-08   THRD=3.2D-06   THRG=3.2D-06  HFMA2=F  DIIS_START=2   DIIS_MAX=10   DIIS_INCORE=F

 Initial level shifts:    0.20 (ALPHA)    0.20 (BETA)

 ITER         ETOT            DE          GRAD         DDIFF    DIIS  NEXP   TIME(IT)  TIME(TOT)  DIAG
   1    -54.94455303   -54.94455303     0.00D+00     0.00D+00     0     0       0.00      0.00    start
   2    -54.96349809    -0.01894506     0.18D-01     0.25D+00     1     0       0.00      0.00    diag
   3    -54.96576505    -0.00226696     0.66D-02     0.25D-01     2     0       0.00      0.00    diag
   4    -54.96637648    -0.00061144     0.24D-02     0.93D-02     3     0       0.00      0.00    diag
   5    -54.96649324    -0.00011676     0.11D-02     0.34D-02     4     0       0.00      0.00    diag
   6    -54.96651922    -0.00002598     0.40D-03     0.14D-02     5     0       0.00      0.00    diag
   7    -54.96652674    -0.00000751     0.17D-03     0.38D-03     6     0       0.00      0.00    diag
   8    -54.96652779    -0.00000105     0.59D-04     0.83D-04     6     0       0.00      0.00    diag
   9    -54.96652786    -0.00000007     0.17D-04     0.32D-04     6     0       0.00      0.00    diag
  10    -54.96652787    -0.00000001     0.71D-05     0.80D-05     7     0       0.00      0.00    diag/ort
  11    -54.96652787    -0.00000000     0.20D-05     0.50D-05     6     0       0.00      0.00    diag
  12    -54.96652787    -0.00000000     0.55D-06     0.15D-05     6     0       0.00      0.00    diag

 Final alpha occupancy:   5
 Final beta  occupancy:   3

 !UHF STATE 1.1 Energy                -54.966527870779
  UHF One-electron energy             -81.645897732491
  UHF Two-electron energy              23.106377472559
  UHF Kinetic energy                   54.947103380165
  UHF Nuclear energy                    3.572992389153
  UHF Virial quotient                  -1.000353512550

 !UHF STATE 1.1 Dipole moment           0.00000000     0.00000000    -0.65034438
 Dipole moment /Debye                   0.00000000     0.00000000    -1.65301053

 EXPECTATION VALUE OF S**2:             2.01379808

 Orbital energies for positive spin:

           1.1          2.1          3.1          4.1          5.1          6.1          7.1
    -15.633594    -1.165549    -0.576619    -0.536437    -0.536437     0.190820     0.758052

 Orbital energies for negative spin:

           1.1          2.1          3.1          4.1          5.1
    -15.571340    -0.914416    -0.498751     0.160633     0.160633


 HOMO     -3.1    -0.498751 =     -13.5717eV
 LUMO     -4.1     0.160633 =       4.3710eV
 LUMO-HOMO         0.659384 =      17.9428eV

 Orbitals saved in record  2200.2

 Occupation number threshold for pseudo-canonical orbitals: 1.9990 (occupied), 0.0010 (virtual)

 Number of pseudo-canonical occupied orbitals per symmetry:    1
 Number of active natural orbitals per symmetry:               6

 Natural orbitals saved to record    2200.2 (Orbital set 3)

 Orbital spaces for UNO-CAS (Min. occupation: 0.020  Max. occupation: 1.980):

 Closed:        3
 Active:        2


 **********************************************************************************************************************************
 DATASETS  * FILE   NREC   LENGTH (MB)   RECORD NAMES
              1      19       28.65       500      610      700      900      950      970     1000      129      960     1100   
                                          VAR    BASINP    GEOM    SYMINP    ZMAT    AOBASIS   BASIS     P2S    ABASIS      S 
                                         1400     1410     1200     1210     1080     1600     1650     1300     1700   
                                           T        V       H0       H01     AOSYM     SMH    MOLCAS    ERIS     OPER   

              2       4        0.41       700     1000      520     2200   
                                         GEOM     BASIS   MCVARS     UHF  

              4       3        0.13      2900     3000     3100   

 PROGRAMS   *        TOTAL   UHF-SCF       INT
 CPU TIMES  *         0.16      0.00      0.08
 REAL TIME  *         0.81 SEC
 DISK USED  *        33.25 MB
 **********************************************************************************************************************************

 Dump information in style XML to xml output                                                                      

 Orbitals will not be exported.

 **********************************************************************************************************************************

 UHF/cc-pVDZ energy=    -54.966527870779

         UHF-SCF
    -54.96652787
 **********************************************************************************************************************************
 Molpro calculation terminated
