
 Working directory              : /var/folders/2v/xbgp75_9785319ghcgb4zr4r0000gp/T//molpro.WP2GfKKYa6/
 Global scratch directory       : /var/folders/2v/xbgp75_9785319ghcgb4zr4r0000gp/T//molpro.WP2GfKKYa6/
 Wavefunction directory         : /Users/sacpjk/wfu/
 Main file repository           : /var/folders/2v/xbgp75_9785319ghcgb4zr4r0000gp/T//molpro.WP2GfKKYa6/

 id        : peterk

 Nodes                        nprocs
 Cardiff-University-G34YLXT77Y    1
 GA implementation: MPI file
 GA implementation (serial work in mppx): MPI file

 Using customized tuning parameters: mindgm=1; mindgv=20; mindgc=4; mindgr=1; noblas=0; minvec=7
 default implementation of scratch files=df  


 Variables initialized (1032), CPU time= 0.00 sec
 
 core,small
 angstrom
 
 geometry={
 N;N,N,1.09811947
 }
 basis=cc-pCVDZ
 
 
 
 hf; hf; papt; mp4
 
 
 
 {put,xml;noorbitals,nobasis}
 Commands initialized (841), CPU time= 0.01 sec, 704 directives.
 Default parameters read. Elapsed time= 0.36 sec

 Checking input...
 Passed
1


                                         ***  PROGRAM SYSTEM MOLPRO  ***
                                       Copyright, TTI GmbH Stuttgart, 2015
                                    Version 2023.1 linked Tue Jun  6 09:54:11 2023


 **********************************************************************************************************************************
 LABEL *                                                                                                                                                                 
  64 bit serial version                                                                  DATE: 12-Jun-23          TIME: 09:39:47  
 **********************************************************************************************************************************

 SHA1:             8ebb0dd001088a5c915591db1a321413035db0b1
 **********************************************************************************************************************************

 Memory per process:       393 MW
 Total memory per node:    524 MW
 Total GA space:           131 MW

 GA preallocation disabled
 GA check enabled

 Variable memory set to 393.2 MW

 ZUNIT=ANG

 SETTING BASIS          =    CC-PCVDZ


 Recomputing integrals since basis changed


 Using spherical harmonics

 Library entry N      S cc-pCVDZ             selected for orbital group  1
 Library entry N      P cc-pCVDZ             selected for orbital group  1
 Library entry N      D cc-pCVDZ             selected for orbital group  1


 PROGRAM * SEWARD (Integral evaluation for generally contracted gaussian basis sets)     Author: Roland Lindh, 1990

 Geometry written to block  1 of record 700

 Orientation using atomic masses  
 Molecule type: Linear
 Symmetry elements: X,Y,Z
 Rotational constants:      59.8428370     59.8428370      0.0000000 GHz  (calculated with average atomic masses)

 Point group  D2h 



 ATOMIC COORDINATES

 NR  ATOM    CHARGE       X              Y              Z

   1  N       7.00    0.000000000    0.000000000   -1.037572525
   2  N       7.00    0.000000000    0.000000000    1.037572525

 Bond lengths in Bohr (Angstrom)

 1-2  2.075145050
     ( 1.098119470)

 NUCLEAR CHARGE:                   14
 NUMBER OF PRIMITIVE AOS:          62
 NUMBER OF SYMMETRY AOS:           60
 NUMBER OF CONTRACTIONS:           36   (    9Ag  +    4B3u +    4B2u +    1B1g +    9B1u +    4B2g +    4B3g +    1Au  )
 NUMBER OF INNER CORE ORBITALS:     0   (    0Ag  +    0B3u +    0B2u +    0B1g +    0B1u +    0B2g +    0B3g +    0Au  )
 NUMBER OF OUTER CORE ORBITALS:     2   (    1Ag  +    0B3u +    0B2u +    0B1g +    1B1u +    0B2g +    0B3g +    0Au  )
 NUMBER OF VALENCE ORBITALS:        8   (    2Ag  +    1B3u +    1B2u +    0B1g +    2B1u +    1B2g +    1B3g +    0Au  )


 NUCLEAR REPULSION ENERGY   23.61280721

 EXTRA SYMMETRY OF AOS IN SYMMETRY 1:   1 1 1 1 1 1 1 1 2
 EXTRA SYMMETRY OF AOS IN SYMMETRY 5:   1 1 1 1 1 1 1 1 2

 Eigenvalues of metric

         1 0.314E-01 0.765E-01 0.136E+00 0.934E+00 0.109E+01 0.117E+01 0.139E+01 0.185E+01
         2 0.185E+00 0.101E+01 0.134E+01 0.287E+01
         3 0.185E+00 0.101E+01 0.134E+01 0.287E+01
         4 0.117E+01
         5 0.489E-02 0.425E-01 0.830E-01 0.118E+00 0.828E+00 0.935E+00 0.107E+01 0.184E+01
         6 0.120E+00 0.318E+00 0.939E+00 0.122E+01
         7 0.120E+00 0.318E+00 0.939E+00 0.122E+01
         8 0.828E+00


 Contracted 2-electron integrals neglected if value below      1.0D-11
 AO integral compression algorithm  1   Integral accuracy      1.0D-11

     0.524 MB (compressed) written to integral file ( 82.6%)


 NUMBER OF SORTED TWO-ELECTRON INTEGRALS:      34089.     BUFFER LENGTH:  32768
 NUMBER OF SEGMENTS:   1  SEGMENT LENGTH:      34089      RECORD LENGTH: 524288

 Memory used in sort:       0.59 MW

 SORT1 READ       77840. AND WROTE       31449. INTEGRALS IN      1 RECORDS. CPU TIME:     0.00 SEC, REAL TIME:     0.00 SEC
 SORT2 READ       31449. AND WROTE       34089. INTEGRALS IN      2 RECORDS. CPU TIME:     0.01 SEC, REAL TIME:     0.01 SEC

 FILE SIZES:   FILE 1:    30.5 MBYTE,  FILE 4:     4.3 MBYTE,   TOTAL:     34.8 MBYTE

 OPERATOR DM      FOR CENTER  0  COORDINATES:    0.000000    0.000000    0.000000


 **********************************************************************************************************************************
 DATASETS  * FILE   NREC   LENGTH (MB)   RECORD NAMES
              1      19       28.80       500      610      700      900      950      970     1000      129      960     1100   
                                          VAR    BASINP    GEOM    SYMINP    ZMAT    AOBASIS   BASIS     P2S    ABASIS      S 
                                         1400     1410     1200     1210     1080     1600     1650     1300     1700   
                                           T        V       H0       H01     AOSYM     SMH    MOLCAS    ERIS     OPER   

 PROGRAMS   *        TOTAL       INT
 CPU TIMES  *         0.18      0.08
 REAL TIME  *         2.74 SEC
 DISK USED  *        33.51 MB
 **********************************************************************************************************************************


 Program * Restricted Hartree-Fock

 Orbital guess generated from atomic densities. Full valence occupancy:    3   1   1   0   3   1   1   0


 Initial occupancy:   3   1   1   0   2   0   0   0

 NELEC=   14   SYM=1   MS2= 0   THRE=1.0D-08   THRD=3.2D-06   THRG=3.2D-06  HFMA2=F  DIIS_START=2   DIIS_MAX=10   DIIS_INCORE=F

 Level shifts:    0.00 (CLOSED)    0.00 (OPEN)    0.30 (GAP_MIN)

 ITER           ETOT              DE          GRAD        DDIFF     DIIS  NEXP   TIME(IT)  TIME(TOT)  DIAG
   1     -108.94294508    -108.94294508     0.00D+00     0.43D+00     0     0       0.00      0.00    start
   2     -108.95415690      -0.01121182     0.19D-01     0.29D-01     1     0       0.00      0.00    diag
   3     -108.95481171      -0.00065481     0.44D-02     0.79D-02     2     0       0.00      0.00    diag
   4     -108.95485631      -0.00004460     0.91D-03     0.20D-02     3     0       0.00      0.00    diag
   5     -108.95485693      -0.00000062     0.12D-03     0.25D-03     4     0       0.00      0.00    diag
   6     -108.95485694      -0.00000001     0.14D-04     0.36D-04     5     0       0.00      0.00    diag
   7     -108.95485694      -0.00000000     0.18D-05     0.60D-05     6     0       0.00      0.00    diag
   8     -108.95485694      -0.00000000     0.18D-06     0.65D-06     7     0       0.00      0.00    fixocc
   9     -108.95485694      -0.00000000     0.10D-07     0.32D-07     0     0       0.00      0.00    diag

 Final occupancy:   3   1   1   0   2   0   0   0

 !RHF STATE 1.1 Energy               -108.954856939928
  RHF One-electron energy            -194.220038602735
  RHF Two-electron energy              61.652374456823
  RHF Kinetic energy                  108.729933713113
  RHF Nuclear energy                   23.612807205984
  RHF Virial quotient                  -1.002068641258

 !RHF STATE 1.1 Dipole moment           0.00000000     0.00000000    -0.00000000
 Dipole moment /Debye                   0.00000000     0.00000000    -0.00000000

 Orbital energies:

           1.1          2.1          3.1          4.1          5.1
    -15.685866    -1.471139    -0.626848     0.808897     0.950885

           1.2          2.2          3.2
     -0.608418     0.869892     1.880866

           1.3          2.3          3.3
     -0.608418     0.869892     1.880866

           1.4
      1.757080

           1.5          2.5          3.5          4.5
    -15.682440    -0.774516     0.593279     1.137011

           1.6          2.6
      0.174962     1.048702

           1.7          2.7
      0.174962     1.048702

           1.8
      2.298214


 HOMO      1.3    -0.608418 =     -16.5559eV
 LUMO      1.6     0.174962 =       4.7610eV
 LUMO-HOMO         0.783380 =      21.3169eV

 Orbitals saved in record  2100.2


 **********************************************************************************************************************************
 DATASETS  * FILE   NREC   LENGTH (MB)   RECORD NAMES
              1      19       28.80       500      610      700      900      950      970     1000      129      960     1100   
                                          VAR    BASINP    GEOM    SYMINP    ZMAT    AOBASIS   BASIS     P2S    ABASIS      S 
                                         1400     1410     1200     1210     1080     1600     1650     1300     1700   
                                           T        V       H0       H01     AOSYM     SMH    MOLCAS    ERIS     OPER   

              2       4        0.38       700     1000      520     2100   
                                         GEOM     BASIS   MCVARS     RHF  

 PROGRAMS   *        TOTAL    HF-SCF       INT
 CPU TIMES  *         0.18      0.00      0.08
 REAL TIME  *         3.01 SEC
 DISK USED  *        33.51 MB
 **********************************************************************************************************************************


 Program * Restricted Hartree-Fock

 Molecular orbitals read from record     2100.2  Type=RHF/CANONICAL  

 Initial occupancy:   3   1   1   0   2   0   0   0

 NELEC=   14   SYM=1   MS2= 0   THRE=1.0D-08   THRD=3.2D-06   THRG=3.2D-06  HFMA2=F  DIIS_START=2   DIIS_MAX=10   DIIS_INCORE=F

 Level shifts:    0.00 (CLOSED)    0.00 (OPEN)    0.30 (GAP_MIN)

 ITER           ETOT              DE          GRAD        DDIFF     DIIS  NEXP   TIME(IT)  TIME(TOT)  DIAG
   1     -108.95485694    -108.95485694     0.00D+00     0.45D+00     0     0       0.00      0.00    start
   2     -108.95485694       0.00000000     0.24D-08     0.70D-08     1     0       0.00      0.00    diag

 Final occupancy:   3   1   1   0   2   0   0   0

 !RHF STATE 1.1 Energy               -108.954856939928
  RHF One-electron energy            -194.220038606839
  RHF Two-electron energy              61.652374460927
  RHF Kinetic energy                  108.729933748943
  RHF Nuclear energy                   23.612807205984
  RHF Virial quotient                  -1.002068640927

 !RHF STATE 1.1 Dipole moment           0.00000000     0.00000000    -0.00000000
 Dipole moment /Debye                   0.00000000     0.00000000    -0.00000000

 Orbital energies:

           1.1          2.1          3.1          4.1          5.1
    -15.685866    -1.471139    -0.626848     0.808897     0.950885

           1.2          2.2          3.2
     -0.608418     0.869892     1.880866

           1.3          2.3          3.3
     -0.608418     0.869892     1.880866

           1.4
      1.757080

           1.5          2.5          3.5          4.5
    -15.682440    -0.774516     0.593279     1.137011

           1.6          2.6
      0.174962     1.048702

           1.7          2.7
      0.174962     1.048702

           1.8
      2.298214


 HOMO      1.3    -0.608418 =     -16.5559eV
 LUMO      1.6     0.174962 =       4.7610eV
 LUMO-HOMO         0.783380 =      21.3169eV

 Orbitals saved in record  2101.2


 **********************************************************************************************************************************
 DATASETS  * FILE   NREC   LENGTH (MB)   RECORD NAMES
              1      19       28.80       500      610      700      900      950      970     1000      129      960     1100   
                                          VAR    BASINP    GEOM    SYMINP    ZMAT    AOBASIS   BASIS     P2S    ABASIS      S 
                                         1400     1410     1200     1210     1080     1600     1650     1300     1700   
                                           T        V       H0       H01     AOSYM     SMH    MOLCAS    ERIS     OPER   

              2       5        0.49       700     1000      520     2100     2101   
                                         GEOM     BASIS   MCVARS     RHF      RHF  

 PROGRAMS   *        TOTAL    HF-SCF    HF-SCF       INT
 CPU TIMES  *         0.19      0.00      0.00      0.08
 REAL TIME  *         3.22 SEC
 DISK USED  *        33.51 MB
 **********************************************************************************************************************************


 PROGRAM * PAPT (Closed-shell)     Authors: C. Hampel, H.-J. Werner, 1991, P.J. Knowles, 2021


 CORETYPE=SMALL

 Convergence thresholds:  THRVAR = 1.00D-08  THRDEN = 1.00D-06

 Number of closed-shell orbitals:   7 (   3   1   1   0   2   0   0   0 )
 Number of external orbitals:      29 (   6   3   3   1   7   4   4   1 )

 Molecular orbitals read from record     2101.2  Type=RHF/CANONICAL  

 Number of N-1 electron functions:               7
 Number of N-2 electron functions:              28
 Number of singly external CSFs:                38
 Number of doubly external CSFs:              3061
 Total number of CSFs:                        3100

 Length of J-op  integral file:               0.00 MB
 Length of K-op  integral file:               0.08 MB

 Integral transformation finished. Total CPU:   0.00 sec, npass=  1  Memory used:   0.07 MW

 Reference energy:                   -108.95485694

                        CORR.ENERGY   TOTAL ENERGY   ENERGY CHANGE
 MP2:                   -0.38283410  -109.33769104    -0.38283410

 SCS-MP2 correlation energy:           -0.38287543   (PS=  1.200000  PT=  0.333333)
 SCS-MP2 total energy:               -109.33773237
 Iteration:   1     0.4138D+00
 Iteration:   2     0.6722D+01
 Iteration:   3     0.5364D+00
 Iteration:   4     0.1214D+00
 Iteration:   5     0.1152D+00
 Iteration:   6     0.3999D-01
 Iteration:   7     0.4108D+00
 Iteration:   8     0.1149D-01
 Iteration:   9     0.2361D-01
 Iteration:  10     0.5080D-02
 Iteration:  11     0.2084D-02
 Iteration:  12     0.2986D-02
 Iteration:  13     0.5465D-03
 Iteration:  14     0.1249D-03
 Iteration:  15     0.3797D-03
 Iteration:  16     0.5404D-04
 PAPT operator written to  7000.1
 PAPT orbitals and eigenvalues written to  7000.2

 MP3(D):                -0.38038483  -109.33524177     0.00244927



 RESULTS
 =======

  Reference energy                   -108.954856939928

  Correlated core orbitals:             1.1       1.5
  Orbital energies:                   -15.6859  -15.6824

  MP3 core-core energy                 -0.061789877193
  MP3 core-valence energy              -0.013406277033
  MP3 valence correlation energy       -0.305188675910

  MP3 singlet pair energy              -0.267272041612
  MP3 triplet pair energy              -0.113112788525
  MP3 correlation energy               -0.380384830137

 !MP3 total energy                   -109.335241770065

 Timing summary (sec):

 STEP                 CPU(USER)    SYS     CPU(TOT)    WALL
 CCSD iterations         0.33      0.02      0.35      0.66

 Program statistics:

 Available memory in ccsd:               393215801
 Min. memory needed in ccsd:                 12717
 Max. memory used in ccsd:                   14734
 Max. memory used in cckext:                 46503 ( 1 integral passes)



 **********************************************************************************************************************************
 DATASETS  * FILE   NREC   LENGTH (MB)   RECORD NAMES
              1      21       28.88       500      610      700      900      950      970     1000      129      960     1100   
                                          VAR    BASINP    GEOM    SYMINP    ZMAT    AOBASIS   BASIS     P2S    ABASIS      S 
                                         1400     1410     1200     1210     1080     1600     1650     1300     1700     1380   
                                           T        V       H0       H01     AOSYM     SMH    MOLCAS    ERIS     OPER     JKOP   
                                         7000   
                                        PAPT AO    

              2       6        0.59       700     1000      520     2100     2101     7000   
                                         GEOM     BASIS   MCVARS     RHF      RHF     PAPT   

 PROGRAMS   *        TOTAL      PAPT    HF-SCF    HF-SCF       INT
 CPU TIMES  *         0.24      0.06      0.00      0.00      0.08
 REAL TIME  *         4.08 SEC
 DISK USED  *        33.51 MB
 **********************************************************************************************************************************


 PROGRAM * MP4 (Closed-shell)     Authors: C. Hampel, H.-J. Werner, 1991, M. Deegan, P.J. Knowles, 1992


 CORETYPE=SMALL

 Convergence thresholds:  THRVAR = 1.00D-08  THRDEN = 1.00D-06

 MP4(T)     terms to be evaluated (factor= 0.000)


 Number of closed-shell orbitals:   7 (   3   1   1   0   2   0   0   0 )
 Number of external orbitals:      29 (   6   3   3   1   7   4   4   1 )

 Molecular orbitals read from record     7000.2  Type=PAPT/CANONICAL (state 1.1)

 Number of N-1 electron functions:               7
 Number of N-2 electron functions:              28
 Number of singly external CSFs:                38
 Number of doubly external CSFs:              3061
 Total number of CSFs:                        3100

 Length of J-op  integral file:               0.00 MB
 Length of K-op  integral file:               0.08 MB

 Memory could be reduced to 0.09 Mwords without degradation in triples

 Integral transformation finished. Total CPU:   0.00 sec, npass=  1  Memory used:   0.08 MW
 Orbital energies read from record       7000.2  Type=PAPT/CANONICAL (state 1.1)

 Reference energy:                   -108.95485694

                        CORR.ENERGY   TOTAL ENERGY   ENERGY CHANGE
 MP2:                   -0.38551955  -109.34037649    -0.38551955

 SCS-MP2 correlation energy:           -0.38864293   (PS=  1.200000  PT=  0.333333)
 SCS-MP2 total energy:               -109.34349987

 MP3(D):                -0.38513024  -109.33998718     0.00038931
 MP4(DQ):               -0.38375376  -109.33861070     0.00137648
 MP4(SDQ):              -0.38742494  -109.34228188    -0.00367118

 Norm of t1 vector:      0.04538872      S-energy:    -0.00367118      T1 diagnostic:  0.00857766

 Largest off-diagonal element in interal  block of Fock matrix:  0.26D+00
 Largest off-diagonal element in external block of Fock matrix:  0.26D+00


 Total CPU time for triples:      0.00 sec


 RESULTS
 =======

  Reference energy                   -108.954856939928

  Correlated core orbitals:             1.1       1.5
  Orbital energies:                   -14.5931  -14.5900

  MP4(SDQ) core-core energy            -0.062185601545
  MP4(SDQ) core-valence energy         -0.013280754563
  MP4(SDQ) valence correlation ener    -0.311958582730

  MP4(SDQ) singlet pair energy         -0.267512956479
  MP4(SDQ) triplet pair energy         -0.116240800037
  MP4(SDQ) correlation energy          -0.387424938837

  Triples contribution                 -0.014266175986
  Total correlation energy             -0.401691114823

  MP4(SDQ) total energy              -109.342281878765
 !MP4(SDTQ) total energy             -109.356548054751

 Timing summary (sec):

 STEP                 CPU(USER)    SYS     CPU(TOT)    WALL
 CCSD iterations         0.37      0.00      0.37      0.19

 Program statistics:

 Available memory in ccsd:               393215801
 Min. memory needed in ccsd:                 12717
 Max. memory used in ccsd:                   14734
 Max. memory used in cckext:                 46503 ( 1 integral passes)



 **********************************************************************************************************************************
 DATASETS  * FILE   NREC   LENGTH (MB)   RECORD NAMES
              1      22       28.97       500      610      700      900      950      970     1000      129      960     1100   
                                          VAR    BASINP    GEOM    SYMINP    ZMAT    AOBASIS   BASIS     P2S    ABASIS      S 
                                         1400     1410     1200     1210     1080     1600     1650     1300     1700     1380   
                                           T        V       H0       H01     AOSYM     SMH    MOLCAS    ERIS     OPER     JKOP   
                                         7000     1380(1)
                                        PAPT AO   JKOP   

              2       6        0.59       700     1000      520     2100     2101     7000   
                                         GEOM     BASIS   MCVARS     RHF      RHF     PAPT   

 PROGRAMS   *        TOTAL       MP4      PAPT    HF-SCF    HF-SCF       INT
 CPU TIMES  *         0.28      0.03      0.06      0.00      0.00      0.08
 REAL TIME  *         4.58 SEC
 DISK USED  *        33.51 MB
 **********************************************************************************************************************************

 Dump information in style XML to xml output                                                                      

 Orbitals will not be exported.

 **********************************************************************************************************************************

 MP4/cc-pCVDZ energy=   -109.356548054751

             MP4            PAPT          HF-SCF
   -109.35654805   -109.33524177   -108.95485694
 **********************************************************************************************************************************
 Molpro calculation terminated
