
 Working directory              : /var/folders/2v/xbgp75_9785319ghcgb4zr4r0000gp/T//molpro.QharVxsZhv/
 Global scratch directory       : /var/folders/2v/xbgp75_9785319ghcgb4zr4r0000gp/T//molpro.QharVxsZhv/
 Wavefunction directory         : /Users/sacpjk/wfu/
 Main file repository           : /var/folders/2v/xbgp75_9785319ghcgb4zr4r0000gp/T//molpro.QharVxsZhv/

 id        : peterk

 Nodes                        nprocs
 Cardiff-University-G34YLXT77Y    1
 GA implementation: MPI file
 GA implementation (serial work in mppx): MPI file

 Using customized tuning parameters: mindgm=1; mindgv=20; mindgc=4; mindgr=1; noblas=0; minvec=7
 default implementation of scratch files=df  


 Variables initialized (1032), CPU time= 0.01 sec
 
 symmetry,nosym
 
 
 geometry={
 4
  c          0.000000000000    0.000000000000    0.604994036057
  h          0.000000000000    0.000000000000    1.671580718726
  c          0.000000000000    0.000000000000   -0.607660981067
  h          0.000000000000    0.000000000000   -1.668913773769
 }
 basis=aug-cc-pVDZ
 
 
 
 hf; ccsd; counterpoise
 
 
 
 {put,xml;noorbitals,nobasis}
 Commands initialized (841), CPU time= 0.00 sec, 704 directives.
 Default parameters read. Elapsed time= 0.47 sec

 Checking input...
 Passed
1


                                         ***  PROGRAM SYSTEM MOLPRO  ***
                                       Copyright, TTI GmbH Stuttgart, 2015
                                    Version 2023.1 linked Tue Jun  6 09:54:11 2023


 **********************************************************************************************************************************
 LABEL *                                                                                                                                                                 
  64 bit serial version                                                                  DATE: 08-Jun-23          TIME: 14:47:21  
 **********************************************************************************************************************************

 SHA1:             8ebb0dd001088a5c915591db1a321413035db0b1
 **********************************************************************************************************************************

 Memory per process:       805 MW
 Total memory per node:   1074 MW
 Total GA space:           268 MW

 GA preallocation disabled
 GA check enabled

 Variable memory set to 805.3 MW

 ZSYMEL=NOSYM


 Geometry recognized as XYZ

 SETTING BASIS          =    AUG-CC-PVDZ


 Recomputing integrals since basis changed


 Using spherical harmonics

 Library entry C      S aug-cc-pVDZ          selected for orbital group  1
 Library entry C      P aug-cc-pVDZ          selected for orbital group  1
 Library entry C      D aug-cc-pVDZ          selected for orbital group  1
 Library entry H      S aug-cc-pVDZ          selected for orbital group  2
 Library entry H      P aug-cc-pVDZ          selected for orbital group  2


 PROGRAM * SEWARD (Integral evaluation for generally contracted gaussian basis sets)     Author: Roland Lindh, 1990

 Geometry written to block  1 of record 700


 Point group  C1  



 ATOMIC COORDINATES

 NR  ATOM    CHARGE       X              Y              Z

   1  C       6.00    0.000000000    0.000000000    1.143273035
   2  H       1.00    0.000000000    0.000000000    3.158829754
   3  C       6.00    0.000000000    0.000000000   -1.148312831
   4  H       1.00    0.000000000    0.000000000   -3.153789958

 Bond lengths in Bohr (Angstrom)

 1-2  2.015556718  1-3  2.291585866  3-4  2.005477127
     ( 1.066586683)     ( 1.212655017)     ( 1.061252793)

 Bond angles

  1-3-4  180.00000000   2-1-3  179.99999809

 NUCLEAR CHARGE:                   14
 NUMBER OF PRIMITIVE AOS:          96
 NUMBER OF SYMMETRY AOS:           92
 NUMBER OF CONTRACTIONS:           64   (   64A   )
 NUMBER OF INNER CORE ORBITALS:     0   (    0A   )
 NUMBER OF OUTER CORE ORBITALS:     2   (    2A   )
 NUMBER OF VALENCE ORBITALS:       10   (   10A   )


 NUCLEAR REPULSION ENERGY   24.62604688

 EXTRA SYMMETRY OF AOS IN SYMMETRY 1:   1 1 1 1 2 3 1 2 3 1   2 3 1 1 4 2 5 3 1 4   2 5 3 1 1 1 2 3 1 2   3 1 1 1 1 1 2 3 1 2
                                        3 1 2 3 1 1 4 2 5 3   1 4 2 5 3 1 1 1 2 3   1 2 3 1

 Eigenvalues of metric

         1 0.358E-04 0.694E-04 0.641E-03 0.971E-03 0.118E-02 0.118E-02 0.431E-02 0.951E-02


 Contracted 2-electron integrals neglected if value below      1.0D-12
 AO integral compression algorithm  1   Integral accuracy      1.0D-12

     5.505 MB (compressed) written to integral file ( 24.2%)


 NUMBER OF SORTED TWO-ELECTRON INTEGRALS:    2164240.     BUFFER LENGTH:  32768
 NUMBER OF SEGMENTS:   1  SEGMENT LENGTH:    2164240      RECORD LENGTH: 524288

 Memory used in sort:       2.72 MW

 SORT1 READ     2914491. AND WROTE      525430. INTEGRALS IN      2 RECORDS. CPU TIME:     0.02 SEC, REAL TIME:     0.02 SEC
 SORT2 READ      525430. AND WROTE     2164240. INTEGRALS IN     21 RECORDS. CPU TIME:     0.03 SEC, REAL TIME:     0.08 SEC

 FILE SIZES:   FILE 1:    35.7 MBYTE,  FILE 4:     8.5 MBYTE,   TOTAL:     44.1 MBYTE

 OPERATOR DM      FOR CENTER  0  COORDINATES:    0.000000    0.000000    0.000000


 **********************************************************************************************************************************
 DATASETS  * FILE   NREC   LENGTH (MB)   RECORD NAMES
              1      19       32.58       500      610      700      900      950      970     1000      129      960     1100   
                                          VAR    BASINP    GEOM    SYMINP    ZMAT    AOBASIS   BASIS     P2S    ABASIS      S 
                                         1400     1410     1200     1210     1080     1600     1650     1300     1700   
                                           T        V       H0       H01     AOSYM     SMH    MOLCAS    ERIS     OPER   

 PROGRAMS   *        TOTAL       INT
 CPU TIMES  *         0.30      0.21
 REAL TIME  *         2.39 SEC
 DISK USED  *        42.48 MB
 **********************************************************************************************************************************


 Program * Restricted Hartree-Fock

 Orbital guess generated from atomic densities. Full valence occupancy:   12

 Initial occupancy:   7

 NELEC=   14   SYM=1   MS2= 0   THRE=1.0D-08   THRD=3.2D-06   THRG=3.2D-06  HFMA2=F  DIIS_START=2   DIIS_MAX=10   DIIS_INCORE=F

 Level shifts:    0.00 (CLOSED)    0.00 (OPEN)    0.30 (GAP_MIN)

 ITER           ETOT              DE          GRAD        DDIFF     DIIS  NEXP   TIME(IT)  TIME(TOT)  DIAG
   1      -76.81427065     -76.81427065     0.00D+00     0.11D+00     0     0       0.01      0.02    start
   2      -76.82665234      -0.01238169     0.49D-02     0.15D-01     1     0       0.01      0.03    diag
   3      -76.82766485      -0.00101251     0.14D-02     0.24D-02     2     0       0.01      0.04    diag
   4      -76.82778323      -0.00011838     0.35D-03     0.12D-02     3     0       0.01      0.05    diag
   5      -76.82778818      -0.00000495     0.75D-04     0.22D-03     4     0       0.01      0.06    diag
   6      -76.82778845      -0.00000028     0.23D-04     0.44D-04     5     0       0.01      0.07    diag
   7      -76.82778850      -0.00000005     0.90D-05     0.17D-04     6     0       0.01      0.08    diag
   8      -76.82778850      -0.00000000     0.87D-06     0.29D-05     7     0       0.01      0.09    fixocc
   9      -76.82778850      -0.00000000     0.10D-06     0.22D-06     0     0       0.00      0.09    diag

 Final occupancy:   7

 !RHF STATE 1.1 Energy                -76.827788503238
  RHF One-electron energy            -151.291015701121
  RHF Two-electron energy              49.837180315838
  RHF Kinetic energy                   76.639041287858
  RHF Nuclear energy                   24.626046882045
  RHF Virial quotient                  -1.002462807627

 !RHF STATE 1.1 Dipole moment          -0.00000000    -0.00000000     0.00229175
 Dipole moment /Debye                  -0.00000000    -0.00000000     0.00582504

 Orbital energies:

           1.1          2.1          3.1          4.1          5.1          6.1          7.1          8.1          9.1
    -11.256557   -11.253020    -1.031216    -0.769310    -0.680317    -0.408953    -0.408953     0.037449     0.039792


 HOMO      7.1    -0.408953 =     -11.1282eV
 LUMO      8.1     0.037449 =       1.0190eV
 LUMO-HOMO         0.446402 =      12.1472eV

 Orbitals saved in record  2100.2


 **********************************************************************************************************************************
 DATASETS  * FILE   NREC   LENGTH (MB)   RECORD NAMES
              1      19       32.58       500      610      700      900      950      970     1000      129      960     1100   
                                          VAR    BASINP    GEOM    SYMINP    ZMAT    AOBASIS   BASIS     P2S    ABASIS      S 
                                         1400     1410     1200     1210     1080     1600     1650     1300     1700   
                                           T        V       H0       H01     AOSYM     SMH    MOLCAS    ERIS     OPER   

              2       4        0.49       700     1000      520     2100   
                                         GEOM     BASIS   MCVARS     RHF  

 PROGRAMS   *        TOTAL    HF-SCF       INT
 CPU TIMES  *         0.40      0.10      0.21
 REAL TIME  *         2.84 SEC
 DISK USED  *        42.48 MB
 **********************************************************************************************************************************


 PROGRAM * CCSD (Closed-shell coupled cluster)     Authors: C. Hampel, H.-J. Werner, 1991, M. Deegan, P.J. Knowles, 1992


 Convergence thresholds:  THRVAR = 1.00D-08  THRDEN = 1.00D-06

 Number of core orbitals:           2 (   2 )
 Number of closed-shell orbitals:   5 (   5 )
 Number of external orbitals:      57 (  57 )

 Molecular orbitals read from record     2100.2  Type=RHF/CANONICAL  

 Number of N-1 electron functions:               5
 Number of N-2 electron functions:              15
 Number of singly external CSFs:               285
 Number of doubly external CSFs:             40755
 Total number of CSFs:                       41041

 Length of J-op  integral file:               0.00 MB
 Length of K-op  integral file:               0.34 MB
 Length of 3-ext integral record:             0.00 MB

 Integral transformation finished. Total CPU:   0.03 sec, npass=  1  Memory used:   1.03 MW

 Reference energy:                    -76.82778850

 MP2 singlet pair energy:              -0.16873023
 MP2 triplet pair energy:              -0.09564161
 MP2 correlation energy:               -0.26437184
 MP2 total energy:                    -77.09216034

 SCS-MP2 correlation energy:           -0.26198661   (PS=  1.200000  PT=  0.333333)
 SCS-MP2 total energy:                -77.08977511

 ITER.      SQ.NORM     CORR.ENERGY   TOTAL ENERGY   ENERGY CHANGE        DEN1      VAR(S)    VAR(P)  DIIS     TIME  TIME/IT
   1      1.11705746    -0.27769166   -77.10548017    -0.01331983    -0.00461227  0.15D-02  0.22D-02  1  1     0.61     0.13
   2      1.12769462    -0.27977585   -77.10756435    -0.00208419    -0.00833807  0.24D-04  0.38D-03  2  2     0.65     0.09
   3      1.13252727    -0.28012259   -77.10791109    -0.00034674    -0.00212473  0.12D-04  0.45D-04  3  3     0.69     0.09
   4      1.13480656    -0.28024250   -77.10803101    -0.00011991    -0.00068251  0.23D-06  0.39D-05  4  4     0.73     0.08
   5      1.13526656    -0.28024541   -77.10803391    -0.00000290    -0.00010344  0.50D-07  0.26D-06  5  5     0.76     0.08
   6      1.13532799    -0.28024693   -77.10803543    -0.00000152    -0.00001425  0.37D-08  0.19D-07  6  6     0.80     0.08
   7      1.13533751    -0.28024781   -77.10803631    -0.00000088    -0.00000184  0.88D-09  0.20D-08  6  1     0.86     0.08
   8      1.13533679    -0.28024804   -77.10803655    -0.00000023     0.00000108  0.47D-10  0.14D-09  6  2     0.89     0.07

 Norm of t1 vector:      0.05472261      S-energy:    -0.00000002      T1 diagnostic:  0.01223635
                                                                       D1 diagnostic:  0.02553123
                                                                       D2 diagnostic:  0.18463697 (internal)

 Doubles amplitudes (print threshold =  0.500E-01):

         I         J         SYM. A    SYM. B    A         B      T(IJ, AB)

         4         4         1         1        10        10     -0.05651970
         5         5         1         1        11        11     -0.05651970


 RESULTS
 =======

  Reference energy                    -76.827788503238
  CCSD singlet pair energy             -0.198912338984
  CCSD triplet pair energy             -0.081335679697
  CCSD correlation energy              -0.280248042648

 !CCSD total energy                   -77.108036545886

 Timing summary (sec):

 STEP                 CPU(USER)    SYS     CPU(TOT)    WALL
 Transformation          0.03      0.01      0.04      0.13
 CCSD iterations         0.87      0.04      0.91      0.79

 Program statistics:

 Available memory in ccsd:               805306261
 Min. memory needed in ccsd:                169489
 Max. memory used in ccsd:                  198029
 Max. memory used in cckext:                177553 ( 8 integral passes)



 **********************************************************************************************************************************
 DATASETS  * FILE   NREC   LENGTH (MB)   RECORD NAMES
              1      20       36.94       500      610      700      900      950      970     1000      129      960     1100   
                                          VAR    BASINP    GEOM    SYMINP    ZMAT    AOBASIS   BASIS     P2S    ABASIS      S 
                                         1400     1410     1200     1210     1080     1600     1650     1300     1700     1380   
                                           T        V       H0       H01     AOSYM     SMH    MOLCAS    ERIS     OPER     JKOP   

              2       4        0.49       700     1000      520     2100   
                                         GEOM     BASIS   MCVARS     RHF  

 PROGRAMS   *        TOTAL      CCSD    HF-SCF       INT
 CPU TIMES  *         0.81      0.41      0.10      0.21
 REAL TIME  *         3.92 SEC
 DISK USED  *        45.44 MB
 **********************************************************************************************************************************

 Counterpoise: absolute minimum monomer separation=    -1.000 Bragg radius scale factor=     1.400 Number of monomers= 1
 Counterpoise skipped because only a single monomer


 **********************************************************************************************************************************
 DATASETS  * FILE   NREC   LENGTH (MB)   RECORD NAMES
              1      20       36.94       500      610      700      900      950      970     1000      129      960     1100   
                                          VAR    BASINP    GEOM    SYMINP    ZMAT    AOBASIS   BASIS     P2S    ABASIS      S 
                                         1400     1410     1200     1210     1080     1600     1650     1300     1700     1380   
                                           T        V       H0       H01     AOSYM     SMH    MOLCAS    ERIS     OPER     JKOP   

              2       4        0.49       700     1000      520     2100   
                                         GEOM     BASIS   MCVARS     RHF  

 PROGRAMS   *        TOTALCOUNTERPOI      CCSD    HF-SCF       INT
 CPU TIMES  *         0.81      0.00      0.41      0.10      0.21
 REAL TIME  *         3.93 SEC
 DISK USED  *        45.44 MB
 **********************************************************************************************************************************

 Dump information in style XML to xml output                                                                      

 Orbitals will not be exported.

 **********************************************************************************************************************************

 CCSD/aug-cc-pVDZ energy=    -77.108036545886

            CCSD          HF-SCF
    -77.10803655    -76.82778850
 **********************************************************************************************************************************
 Molpro calculation terminated
