
 Working directory              : /var/folders/2v/xbgp75_9785319ghcgb4zr4r0000gp/T//molpro.DYku5EZRhH/
 Global scratch directory       : /var/folders/2v/xbgp75_9785319ghcgb4zr4r0000gp/T//molpro.DYku5EZRhH/
 Wavefunction directory         : /Users/sacpjk/wfu/
 Main file repository           : /var/folders/2v/xbgp75_9785319ghcgb4zr4r0000gp/T//molpro.DYku5EZRhH/

 id        : peterk

 Nodes                        nprocs
 Cardiff-University-G34YLXT77Y    1
 GA implementation: MPI file
 GA implementation (serial work in mppx): MPI file

 Using customized tuning parameters: mindgm=1; mindgv=20; mindgc=4; mindgr=1; noblas=0; minvec=7
 default implementation of scratch files=df  


 Variables initialized (1032), CPU time= 0.00 sec
 
 symmetry,nosym
 
 
 geometry={
            6
     CL        -0.00027464      0.01924291      2.32253735
     C          0.00021336      0.00020291     -0.00005239
     H          0.76098004     -0.75101627      0.00641362
     H         -1.03075062     -0.28300715      0.00218361
     H          0.27042850      1.03464473     -0.00866041
     CL        -0.00059664     -0.02006713     -2.32242179
 }
 basis=cc-pVDZ
 
 charge=-1
 
 hf; hf; papt; mp4
 
 
 
 {put,xml;noorbitals,nobasis}
 Commands initialized (841), CPU time= 0.01 sec, 704 directives.
 Default parameters read. Elapsed time= 0.30 sec

 Checking input...
 Passed
1


                                         ***  PROGRAM SYSTEM MOLPRO  ***
                                       Copyright, TTI GmbH Stuttgart, 2015
                                    Version 2023.1 linked Tue Jun  6 09:54:11 2023


 **********************************************************************************************************************************
 LABEL *                                                                                                                                                                 
  64 bit serial version                                                                  DATE: 09-Jun-23          TIME: 16:43:37  
 **********************************************************************************************************************************

 SHA1:             8ebb0dd001088a5c915591db1a321413035db0b1
 **********************************************************************************************************************************

 Memory per process:       805 MW
 Total memory per node:   1074 MW
 Total GA space:           268 MW

 GA preallocation disabled
 GA check enabled

 Variable memory set to 805.3 MW

 ZSYMEL=NOSYM


 Geometry recognized as XYZ

 SETTING BASIS          =    CC-PVDZ
 SETTING CHARGE         =        -1.00000000                                  


 Recomputing integrals since basis changed


 Using spherical harmonics

 Library entry CL     S cc-pVDZ              selected for orbital group  1
 Library entry CL     P cc-pVDZ              selected for orbital group  1
 Library entry CL     D cc-pVDZ              selected for orbital group  1
 Library entry C      S cc-pVDZ              selected for orbital group  2
 Library entry C      P cc-pVDZ              selected for orbital group  2
 Library entry C      D cc-pVDZ              selected for orbital group  2
 Library entry H      S cc-pVDZ              selected for orbital group  3
 Library entry H      P cc-pVDZ              selected for orbital group  3


 PROGRAM * SEWARD (Integral evaluation for generally contracted gaussian basis sets)     Author: Roland Lindh, 1990

 Geometry written to block  1 of record 700


 Point group  C1  



 ATOMIC COORDINATES

 NR  ATOM    CHARGE       X              Y              Z

   1  CL     17.00   -0.000518994    0.036363830    4.388959506
   2  C       6.00    0.000403192    0.000383444   -0.000099003
   3  H       1.00    1.438043862   -1.419215065    0.012119985
   4  H       1.00   -1.947836375   -0.534806005    0.004126425
   5  H       1.00    0.511035801    1.955195176   -0.016365803
   6  CL     17.00   -0.001127486   -0.037921380   -4.388741129

 Bond lengths in Bohr (Angstrom)

 1-2  4.389206082  2-3  2.020450427  2-4  2.020416544  2-5  2.020470039  2-6  4.388809556
     ( 2.322667832)     ( 1.069176322)     ( 1.069158391)     ( 1.069186700)     ( 2.322458000)

 Bond angles

  1-2-3   89.99207657   1-2-4   89.99298364   1-2-5   90.00989762   1-2-6  179.95585437

  3-2-4  119.99978812   3-2-5  120.00017183   3-2-6   90.00935522   4-2-5  120.00003980

  4-2-6   89.96808927   5-2-6   90.02759753

 NUCLEAR CHARGE:                   43
 NUMBER OF PRIMITIVE AOS:         132
 NUMBER OF SYMMETRY AOS:          129
 NUMBER OF CONTRACTIONS:           65   (   65A   )
 NUMBER OF INNER CORE ORBITALS:     2   (    2A   )
 NUMBER OF OUTER CORE ORBITALS:     9   (    9A   )
 NUMBER OF VALENCE ORBITALS:       15   (   15A   )


 NUCLEAR REPULSION ENERGY  110.27956412


 Eigenvalues of metric

         1 0.114E-01 0.158E-01 0.276E-01 0.334E-01 0.334E-01 0.393E-01 0.518E-01 0.518E-01


 Contracted 2-electron integrals neglected if value below      1.0D-11
 AO integral compression algorithm  1   Integral accuracy      1.0D-11

     9.437 MB (compressed) written to integral file ( 41.6%)


 NUMBER OF SORTED TWO-ELECTRON INTEGRALS:    2301585.     BUFFER LENGTH:  32768
 NUMBER OF SEGMENTS:   1  SEGMENT LENGTH:    2301585      RECORD LENGTH: 524288

 Memory used in sort:       2.86 MW

 SORT1 READ     2869265. AND WROTE     2028749. INTEGRALS IN      6 RECORDS. CPU TIME:     0.02 SEC, REAL TIME:     0.03 SEC
 SORT2 READ     2028749. AND WROTE     2301585. INTEGRALS IN     36 RECORDS. CPU TIME:     0.05 SEC, REAL TIME:     0.06 SEC

 FILE SIZES:   FILE 1:    39.7 MBYTE,  FILE 4:    25.2 MBYTE,   TOTAL:     64.9 MBYTE

 OPERATOR DM      FOR CENTER  0  COORDINATES:    0.000000    0.000000    0.000000


 **********************************************************************************************************************************
 DATASETS  * FILE   NREC   LENGTH (MB)   RECORD NAMES
              1      19       35.98       500      610      700      900      950      970     1000      129      960     1100   
                                          VAR    BASINP    GEOM    SYMINP    ZMAT    AOBASIS   BASIS     P2S    ABASIS      S 
                                         1400     1410     1200     1210     1080     1600     1650     1300     1700   
                                           T        V       H0       H01     AOSYM     SMH    MOLCAS    ERIS     OPER   

 PROGRAMS   *        TOTAL       INT
 CPU TIMES  *         0.41      0.32
 REAL TIME  *         1.78 SEC
 DISK USED  *        62.32 MB
 **********************************************************************************************************************************


 Program * Restricted Hartree-Fock

 Orbital guess generated from atomic densities. Full valence occupancy:   26

 Initial occupancy:  22

 NELEC=   44   SYM=1   MS2= 0   THRE=1.0D-08   THRD=3.2D-06   THRG=3.2D-06  HFMA2=F  DIIS_START=2   DIIS_MAX=10   DIIS_INCORE=F

 Level shifts:    0.00 (CLOSED)    0.00 (OPEN)    0.30 (GAP_MIN)

 ITER           ETOT              DE          GRAD        DDIFF     DIIS  NEXP   TIME(IT)  TIME(TOT)  DIAG
   1     -958.61143876    -958.61143876     0.00D+00     0.20D+00     0     0       0.02      0.03    start
   2     -958.65003221      -0.03859345     0.60D-02     0.25D-01     1     0       0.01      0.04    diag
   3     -958.65627534      -0.00624314     0.22D-02     0.58D-02     2     0       0.01      0.05    diag
   4     -958.65699559      -0.00072025     0.63D-03     0.23D-02     3     0       0.02      0.07    diag
   5     -958.65708044      -0.00008485     0.17D-03     0.66D-03     4     0       0.01      0.08    diag
   6     -958.65708974      -0.00000930     0.55D-04     0.25D-03     5     0       0.01      0.09    diag
   7     -958.65709006      -0.00000032     0.97D-05     0.49D-04     6     0       0.02      0.11    diag
   8     -958.65709006      -0.00000000     0.14D-05     0.59D-05     7     0       0.01      0.12    fixocc
   9     -958.65709006      -0.00000000     0.23D-06     0.13D-05     8     0       0.01      0.13    diag
  10     -958.65709006      -0.00000000     0.30D-07     0.11D-06     0     0       0.02      0.15    diag/orth

 Final occupancy:  22

 !RHF STATE 1.1 Energy               -958.657090062021
  RHF One-electron energy           -1553.597794605885
  RHF Two-electron energy             484.661140420225
  RHF Kinetic energy                  958.644867358875
  RHF Nuclear energy                  110.279564123638
  RHF Virial quotient                  -1.000012749980

 !RHF STATE 1.1 Dipole moment           0.00127567     0.00120184    -0.00076061
 Dipole moment /Debye                   0.00324243     0.00305478    -0.00193327

 Orbital energies:

           1.1          2.1          3.1          4.1          5.1          6.1          7.1          8.1          9.1         10.1
   -104.567292  -104.567250   -11.176146   -10.291250   -10.291206    -7.757938    -7.757894    -7.756670    -7.756670    -7.756627

          11.1         12.1         13.1         14.1         15.1         16.1         17.1         18.1         19.1         20.1
     -7.756627    -0.860258    -0.811629    -0.749941    -0.475717    -0.475715    -0.280422    -0.221039    -0.221038    -0.212044

          21.1         22.1         23.1         24.1
     -0.212039    -0.182346     0.306706     0.338198


 HOMO     22.1    -0.182346 =      -4.9619eV
 LUMO     23.1     0.306706 =       8.3459eV
 LUMO-HOMO         0.489052 =      13.3078eV

 Orbitals saved in record  2100.2


 **********************************************************************************************************************************
 DATASETS  * FILE   NREC   LENGTH (MB)   RECORD NAMES
              1      19       35.98       500      610      700      900      950      970     1000      129      960     1100   
                                          VAR    BASINP    GEOM    SYMINP    ZMAT    AOBASIS   BASIS     P2S    ABASIS      S 
                                         1400     1410     1200     1210     1080     1600     1650     1300     1700   
                                           T        V       H0       H01     AOSYM     SMH    MOLCAS    ERIS     OPER   

              2       4        0.53       700     1000      520     2100   
                                         GEOM     BASIS   MCVARS     RHF  

 PROGRAMS   *        TOTAL    HF-SCF       INT
 CPU TIMES  *         0.56      0.15      0.32
 REAL TIME  *         2.28 SEC
 DISK USED  *        62.32 MB
 **********************************************************************************************************************************


 Program * Restricted Hartree-Fock

 Molecular orbitals read from record     2100.2  Type=RHF/CANONICAL  

 Initial occupancy:  22

 NELEC=   44   SYM=1   MS2= 0   THRE=1.0D-08   THRD=3.2D-06   THRG=3.2D-06  HFMA2=F  DIIS_START=2   DIIS_MAX=10   DIIS_INCORE=F

 Level shifts:    0.00 (CLOSED)    0.00 (OPEN)    0.30 (GAP_MIN)

 ITER           ETOT              DE          GRAD        DDIFF     DIIS  NEXP   TIME(IT)  TIME(TOT)  DIAG
   1     -958.65709006    -958.65709006     0.00D+00     0.19D+00     0     0       0.01      0.01    start
   2     -958.65709006      -0.00000000     0.99D-08     0.38D-07     1     0       0.02      0.03    diag

 Final occupancy:  22

 !RHF STATE 1.1 Energy               -958.657090062022
  RHF One-electron energy           -1553.597794271461
  RHF Two-electron energy             484.661140085800
  RHF Kinetic energy                  958.644867153051
  RHF Nuclear energy                  110.279564123638
  RHF Virial quotient                  -1.000012750195

 !RHF STATE 1.1 Dipole moment           0.00127567     0.00120184    -0.00076057
 Dipole moment /Debye                   0.00324243     0.00305478    -0.00193318

 Orbital energies:

           1.1          2.1          3.1          4.1          5.1          6.1          7.1          8.1          9.1         10.1
   -104.567292  -104.567250   -11.176145   -10.291250   -10.291206    -7.757938    -7.757894    -7.756670    -7.756670    -7.756627

          11.1         12.1         13.1         14.1         15.1         16.1         17.1         18.1         19.1         20.1
     -7.756627    -0.860258    -0.811629    -0.749941    -0.475717    -0.475715    -0.280422    -0.221039    -0.221038    -0.212044

          21.1         22.1         23.1         24.1
     -0.212039    -0.182346     0.306706     0.338198


 HOMO     22.1    -0.182346 =      -4.9619eV
 LUMO     23.1     0.306706 =       8.3459eV
 LUMO-HOMO         0.489052 =      13.3078eV

 Orbitals saved in record  2101.2


 **********************************************************************************************************************************
 DATASETS  * FILE   NREC   LENGTH (MB)   RECORD NAMES
              1      19       35.98       500      610      700      900      950      970     1000      129      960     1100   
                                          VAR    BASINP    GEOM    SYMINP    ZMAT    AOBASIS   BASIS     P2S    ABASIS      S 
                                         1400     1410     1200     1210     1080     1600     1650     1300     1700   
                                           T        V       H0       H01     AOSYM     SMH    MOLCAS    ERIS     OPER   

              2       5        0.75       700     1000      520     2100     2101   
                                         GEOM     BASIS   MCVARS     RHF      RHF  

 PROGRAMS   *        TOTAL    HF-SCF    HF-SCF       INT
 CPU TIMES  *         0.60      0.04      0.15      0.32
 REAL TIME  *         2.61 SEC
 DISK USED  *        62.32 MB
 **********************************************************************************************************************************


 PROGRAM * PAPT (Closed-shell)     Authors: C. Hampel, H.-J. Werner, 1991, P.J. Knowles, 2021


 Convergence thresholds:  THRVAR = 1.00D-08  THRDEN = 1.00D-06

 Number of core orbitals:          11 (  11 )
 Number of closed-shell orbitals:  11 (  11 )
 Number of external orbitals:      43 (  43 )

 Molecular orbitals read from record     2101.2  Type=RHF/CANONICAL  

 Number of N-1 electron functions:              11
 Number of N-2 electron functions:              66
 Number of singly external CSFs:               473
 Number of doubly external CSFs:            112101
 Total number of CSFs:                      112575

 Length of J-op  integral file:               0.00 MB
 Length of K-op  integral file:               0.35 MB

 Integral transformation finished. Total CPU:   0.02 sec, npass=  1  Memory used:   0.60 MW

 Reference energy:                   -958.65709006

                        CORR.ENERGY   TOTAL ENERGY   ENERGY CHANGE
 MP2:                   -0.41979395  -959.07688401    -0.41979395

 SCS-MP2 correlation energy:           -0.41288270   (PS=  1.200000  PT=  0.333333)
 SCS-MP2 total energy:               -959.06997277
 Iteration:   1     0.1697D+00
 Iteration:   2     0.6077D+00
 Iteration:   3     0.3911D-01
 Iteration:   4     0.3306D-01
 Iteration:   5     0.1984D-01
 Iteration:   6     0.8684D-02
 Iteration:   7     0.2732D+00
 Iteration:   8     0.3269D-02
 Iteration:   9     0.2032D-02
 Iteration:  10     0.2304D-02
 Iteration:  11     0.2451D-03
 Iteration:  12     0.1744D-03
 Iteration:  13     0.2844D-03
 Iteration:  14     0.5839D-04
 PAPT operator written to  7000.1
 PAPT orbitals and eigenvalues written to  7000.2

 MP3(D):                -0.45693325  -959.11402331    -0.03713930



 RESULTS
 =======

  Reference energy                   -958.657090062022
  MP3 singlet pair energy              -0.300646196181
  MP3 triplet pair energy              -0.156287050688
  MP3 correlation energy               -0.456933246869

 !MP3 total energy                   -959.114023308892

 Timing summary (sec):

 STEP                 CPU(USER)    SYS     CPU(TOT)    WALL
 Transformation          0.03      0.01      0.04      0.12
 CCSD iterations         1.01      0.03      1.04      0.81

 Program statistics:

 Available memory in ccsd:               805305862
 Min. memory needed in ccsd:                371577
 Max. memory used in ccsd:                  447609
 Max. memory used in cckext:                632266 ( 1 integral passes)



 **********************************************************************************************************************************
 DATASETS  * FILE   NREC   LENGTH (MB)   RECORD NAMES
              1      21       39.27       500      610      700      900      950      970     1000      129      960     1100   
                                          VAR    BASINP    GEOM    SYMINP    ZMAT    AOBASIS   BASIS     P2S    ABASIS      S 
                                         1400     1410     1200     1210     1080     1600     1650     1300     1700     1380   
                                           T        V       H0       H01     AOSYM     SMH    MOLCAS    ERIS     OPER     JKOP   
                                         7000   
                                        PAPT AO    

              2       6        0.94       700     1000      520     2100     2101     7000   
                                         GEOM     BASIS   MCVARS     RHF      RHF     PAPT   

 PROGRAMS   *        TOTAL      PAPT    HF-SCF    HF-SCF       INT
 CPU TIMES  *         0.96      0.36      0.04      0.15      0.32
 REAL TIME  *         3.69 SEC
 DISK USED  *        62.32 MB
 **********************************************************************************************************************************


 PROGRAM * MP4 (Closed-shell)     Authors: C. Hampel, H.-J. Werner, 1991, M. Deegan, P.J. Knowles, 1992


 Convergence thresholds:  THRVAR = 1.00D-08  THRDEN = 1.00D-06

 MP4(T)     terms to be evaluated (factor= 0.000)


 Number of core orbitals:          11 (  11 )
 Number of closed-shell orbitals:  11 (  11 )
 Number of external orbitals:      43 (  43 )

 Molecular orbitals read from record     7000.2  Type=PAPT/CANONICAL (state 1.1)

 Number of N-1 electron functions:              11
 Number of N-2 electron functions:              66
 Number of singly external CSFs:               473
 Number of doubly external CSFs:            112101
 Total number of CSFs:                      112575

 Length of J-op  integral file:               0.00 MB
 Length of K-op  integral file:               0.35 MB

 Memory could be reduced to 1.45 Mwords without degradation in triples

 Integral transformation finished. Total CPU:   0.06 sec, npass=  1  Memory used:   2.27 MW
 Orbital energies read from record       7000.2  Type=PAPT/CANONICAL (state 1.1)

 Reference energy:                   -958.65709006

                        CORR.ENERGY   TOTAL ENERGY   ENERGY CHANGE
 MP2:                   -0.46252850  -959.11961856    -0.46252850

 SCS-MP2 correlation energy:           -0.45672114   (PS=  1.200000  PT=  0.333333)
 SCS-MP2 total energy:               -959.11381120

 MP3(D):                -0.46258610  -959.11967616    -0.00005760
 MP4(DQ):               -0.45718887  -959.11427893     0.00539723
 MP4(SDQ):              -0.46091012  -959.11800018    -0.00372125

 Norm of t1 vector:      0.06786979      S-energy:    -0.00372125      T1 diagnostic:  0.01023176

 Largest off-diagonal element in interal  block of Fock matrix:  0.42D-01
 Largest off-diagonal element in external block of Fock matrix:  0.16D+00


 Total CPU time for triples:      0.37 sec


 RESULTS
 =======

  Reference energy                   -958.657090062022
  MP4(SDQ) singlet pair energy         -0.303211654075
  MP4(SDQ) triplet pair energy         -0.153977212328
  MP4(SDQ) correlation energy          -0.460910115489

  Triples contribution                 -0.011423318191
  Total correlation energy             -0.472333433680

  MP4(SDQ) total energy              -959.118000177511
 !MP4(SDTQ) total energy             -959.129423495702

 Timing summary (sec):

 STEP                 CPU(USER)    SYS     CPU(TOT)    WALL
 Transformation          0.08      0.01      0.09      0.23
 CCSD iterations         1.25      0.02      1.27      0.34
 Triples                 0.37      0.03      0.40      0.47

 Program statistics:

 Available memory in ccsd:               805305862
 Min. memory needed in ccsd:                371577
 Max. memory used in ccsd:                  447609
 Max. memory used in cckext:                632266 ( 1 integral passes)



 **********************************************************************************************************************************
 DATASETS  * FILE   NREC   LENGTH (MB)   RECORD NAMES
              1      22       42.68       500      610      700      900      950      970     1000      129      960     1100   
                                          VAR    BASINP    GEOM    SYMINP    ZMAT    AOBASIS   BASIS     P2S    ABASIS      S 
                                         1400     1410     1200     1210     1080     1600     1650     1300     1700     1380   
                                           T        V       H0       H01     AOSYM     SMH    MOLCAS    ERIS     OPER     JKOP   
                                         7000     1380(1)
                                        PAPT AO   JKOP   

              2       6        0.94       700     1000      520     2100     2101     7000   
                                         GEOM     BASIS   MCVARS     RHF      RHF     PAPT   

 PROGRAMS   *        TOTAL       MP4      PAPT    HF-SCF    HF-SCF       INT
 CPU TIMES  *         1.62      0.66      0.36      0.04      0.15      0.32
 REAL TIME  *         4.88 SEC
 DISK USED  *        62.32 MB
 **********************************************************************************************************************************

 Dump information in style XML to xml output                                                                      

 Orbitals will not be exported.

 **********************************************************************************************************************************

 MP4/cc-pVDZ energy=   -959.129423495702

             MP4            PAPT          HF-SCF          HF-SCF
   -959.12942350   -959.11402331   -958.65709006   -958.65709006
 **********************************************************************************************************************************
 Molpro calculation terminated
