
 Working directory              : /var/folders/2v/xbgp75_9785319ghcgb4zr4r0000gp/T//molpro.pS7b77WteM/
 Global scratch directory       : /var/folders/2v/xbgp75_9785319ghcgb4zr4r0000gp/T//molpro.pS7b77WteM/
 Wavefunction directory         : /Users/sacpjk/wfu/
 Main file repository           : /var/folders/2v/xbgp75_9785319ghcgb4zr4r0000gp/T//molpro.pS7b77WteM/

 id        : peterk

 Nodes                        nprocs
 Cardiff-University-G34YLXT77Y    1
 GA implementation: MPI file
 GA implementation (serial work in mppx): MPI file

 Using customized tuning parameters: mindgm=1; mindgv=20; mindgc=4; mindgr=1; noblas=0; minvec=7
 default implementation of scratch files=df  


 Variables initialized (1032), CPU time= 0.00 sec
 
 symmetry,nosym
 
 
 geometry={
            7
     C         -0.78287141     -0.09503488      0.00083080
     O          1.72258178     -0.21169693      0.00055680
     H          0.43809243     -0.22102315      0.00322280
     H         -1.09691164     -0.33625308      1.01049616
     H         -1.00205133      0.93023159     -0.27765832
     H         -1.12409548     -0.81311640     -0.73728104
     H          1.84525565      0.74689284     -0.00016720
 }
 basis=cc-pVDZ
 
 
 spin=1
 uhf
 
 
 
 {put,xml;noorbitals,nobasis}
 Commands initialized (841), CPU time= 0.01 sec, 704 directives.
 Default parameters read. Elapsed time= 0.38 sec

 Checking input...
 Passed
1


                                         ***  PROGRAM SYSTEM MOLPRO  ***
                                       Copyright, TTI GmbH Stuttgart, 2015
                                    Version 2023.1 linked Tue Jun  6 09:54:11 2023


 **********************************************************************************************************************************
 LABEL *                                                                                                                                                                 
  64 bit serial version                                                                  DATE: 09-Jun-23          TIME: 09:27:17  
 **********************************************************************************************************************************

 SHA1:             8ebb0dd001088a5c915591db1a321413035db0b1
 **********************************************************************************************************************************

 Memory per process:       805 MW
 Total memory per node:   1074 MW
 Total GA space:           268 MW

 GA preallocation disabled
 GA check enabled

 Variable memory set to 805.3 MW

 ZSYMEL=NOSYM


 Geometry recognized as XYZ

 SETTING BASIS          =    CC-PVDZ
 SETTING SPIN           =         1.00000000                                  


 Recomputing integrals since basis changed


 Using spherical harmonics

 Library entry C      S cc-pVDZ              selected for orbital group  1
 Library entry C      P cc-pVDZ              selected for orbital group  1
 Library entry C      D cc-pVDZ              selected for orbital group  1
 Library entry O      S cc-pVDZ              selected for orbital group  2
 Library entry O      P cc-pVDZ              selected for orbital group  2
 Library entry O      D cc-pVDZ              selected for orbital group  2
 Library entry H      S cc-pVDZ              selected for orbital group  3
 Library entry H      P cc-pVDZ              selected for orbital group  3


 PROGRAM * SEWARD (Integral evaluation for generally contracted gaussian basis sets)     Author: Roland Lindh, 1990

 Geometry written to block  1 of record 700


 Point group  C1  



 ATOMIC COORDINATES

 NR  ATOM    CHARGE       X              Y              Z

   1  C       6.00   -1.479412556   -0.179589895    0.001569984
   2  O       8.00    3.255207791   -0.400049219    0.001052200
   3  H       1.00    0.827874710   -0.417673221    0.006090209
   4  H       1.00   -2.072862583   -0.635426230    1.909560992
   5  H       1.00   -1.893602577    1.757882938   -0.524698181
   6  H       1.00   -2.124232595   -1.536567303   -1.393259242
   7  H       1.00    3.487027808    1.411422912   -0.000315962

 Bond lengths in Bohr (Angstrom)

 1-3  2.319542763  1-4  2.049487591  1-5  2.049954276  1-6  2.050055887  2-3  2.427402290
     ( 1.227449170)     ( 1.084542127)     ( 1.084789086)     ( 1.084842857)     ( 1.284525973)

 2-7  1.826245787
     ( 0.966407652)

 Bond angles

  1-3-2  173.68843381   3-1-4  105.27112348   3-1-5  107.36702234   3-1-6  104.25634109

  3-2-7   97.70875760   4-1-5  112.99827923   4-1-6  113.27303585   5-1-6  112.79160431

 NUCLEAR CHARGE:                   19
 NUMBER OF PRIMITIVE AOS:          89
 NUMBER OF SYMMETRY AOS:           87
 NUMBER OF CONTRACTIONS:           53   (   53A   )
 NUMBER OF INNER CORE ORBITALS:     0   (    0A   )
 NUMBER OF OUTER CORE ORBITALS:     2   (    2A   )
 NUMBER OF VALENCE ORBITALS:       13   (   13A   )


 NUCLEAR REPULSION ENERGY   37.11878033

 Eigenvalues of metric

         1 0.855E-02 0.177E-01 0.278E-01 0.365E-01 0.367E-01 0.468E-01 0.497E-01 0.542E-01


 Contracted 2-electron integrals neglected if value below      1.0D-11
 AO integral compression algorithm  1   Integral accuracy      1.0D-11

     5.243 MB (compressed) written to integral file ( 53.9%)


 NUMBER OF SORTED TWO-ELECTRON INTEGRALS:    1024596.     BUFFER LENGTH:  32768
 NUMBER OF SEGMENTS:   1  SEGMENT LENGTH:    1024596      RECORD LENGTH: 524288

 Memory used in sort:       1.58 MW

 SORT1 READ     1206537. AND WROTE     1010837. INTEGRALS IN      3 RECORDS. CPU TIME:     0.01 SEC, REAL TIME:     0.01 SEC
 SORT2 READ     1010837. AND WROTE     1024596. INTEGRALS IN     20 RECORDS. CPU TIME:     0.02 SEC, REAL TIME:     0.03 SEC

 FILE SIZES:   FILE 1:    35.4 MBYTE,  FILE 4:    12.6 MBYTE,   TOTAL:     48.1 MBYTE

 OPERATOR DM      FOR CENTER  0  COORDINATES:    0.000000    0.000000    0.000000


 **********************************************************************************************************************************
 DATASETS  * FILE   NREC   LENGTH (MB)   RECORD NAMES
              1      19       32.89       500      610      700      900      950      970     1000      129      960     1100   
                                          VAR    BASINP    GEOM    SYMINP    ZMAT    AOBASIS   BASIS     P2S    ABASIS      S 
                                         1400     1410     1200     1210     1080     1600     1650     1300     1700   
                                           T        V       H0       H01     AOSYM     SMH    MOLCAS    ERIS     OPER   

 PROGRAMS   *        TOTAL       INT
 CPU TIMES  *         0.25      0.16
 REAL TIME  *         1.22 SEC
 DISK USED  *        46.28 MB
 **********************************************************************************************************************************


 Program * Unrestricted Hartree-Fock

 Orbital guess generated from atomic densities. Full valence occupancy:   15

 Initial alpha occupancy:  10
 Initial beta  occupancy:   9

 Elapsed time for starting guess:      0.01 sec

 NELEC=   19   SYM=1   MS2=1   THRE=1.0D-08   THRD=3.2D-06   THRG=3.2D-06  HFMA2=F  DIIS_START=2   DIIS_MAX=10   DIIS_INCORE=F

 Initial level shifts:    0.20 (ALPHA)    0.20 (BETA)

 ITER         ETOT            DE          GRAD         DDIFF    DIIS  NEXP   TIME(IT)  TIME(TOT)  DIAG
   1   -115.48134972  -115.48134972     0.00D+00     0.00D+00     0     0       0.00      0.01    start
   2   -115.53102512    -0.04967540     0.12D-01     0.14D+00     1     0       0.01      0.02    diag
   3   -115.54233010    -0.01130498     0.55D-02     0.18D-01     2     0       0.01      0.03    diag
   4   -115.54726089    -0.00493079     0.23D-02     0.61D-02     3     0       0.00      0.03    diag
   5   -115.54938440    -0.00212351     0.12D-02     0.29D-02     4     0       0.01      0.04    diag
   6   -115.55034883    -0.00096443     0.75D-03     0.19D-02     5     0       0.01      0.05    diag
   7   -115.55072771    -0.00037888     0.44D-03     0.13D-02     6     0       0.00      0.05    diag
   8   -115.55085889    -0.00013118     0.27D-03     0.91D-03     7     0       0.01      0.06    diag
   9   -115.55089670    -0.00003781     0.14D-03     0.53D-03     8     0       0.00      0.06    diag
  10   -115.55090594    -0.00000924     0.70D-04     0.30D-03     9     0       0.01      0.07    diag/ort
  11   -115.55090770    -0.00000175     0.32D-04     0.15D-03     9     0       0.01      0.08    diag
  12   -115.55090799    -0.00000029     0.14D-04     0.59D-04     9     0       0.00      0.08    diag
