
 Working directory              : /var/folders/2v/xbgp75_9785319ghcgb4zr4r0000gp/T//molpro.qqlpKezzvx/
 Global scratch directory       : /var/folders/2v/xbgp75_9785319ghcgb4zr4r0000gp/T//molpro.qqlpKezzvx/
 Wavefunction directory         : /Users/sacpjk/wfu/
 Main file repository           : /var/folders/2v/xbgp75_9785319ghcgb4zr4r0000gp/T//molpro.qqlpKezzvx/

 id        : peterk

 Nodes                        nprocs
 Cardiff-University-G34YLXT77Y    1
 GA implementation: MPI file
 GA implementation (serial work in mppx): MPI file

 Using customized tuning parameters: mindgm=1; mindgv=20; mindgc=4; mindgr=1; noblas=0; minvec=7
 default implementation of scratch files=df  


 Variables initialized (1037), CPU time= 0.01 sec
 
 symmetry,nosym
 
 
 geometry={
 15
  c         -0.229401415863   -0.511489757080    1.911948217716
  h          0.830221507792   -0.436497182116    1.681262709762
  h         -0.456793433104   -1.518543546161    2.253731820877
  h         -0.474724617927    0.171366517018    2.721845733409
  c         -1.120031782123   -0.193983184151    0.732149327679
  o         -2.342420646795   -0.221576018914    0.822213133681
  n         -0.458517144910    0.117041642661   -0.412739437064
  h          0.548711828246    0.117879558850   -0.408559862332
  c         -1.163220748890    0.443539649843   -1.630472700318
  h         -2.225468745770    0.370390506687   -1.418572339089
  h         -0.935401706776    1.456408698943   -1.960013485146
  h         -0.910722883901   -0.250889109954   -2.430503225191
  o          2.597680295940    0.135039093705   -0.526996327265
  h          3.162657580160   -0.577919527129   -0.832195733378
  h          3.177431914185    0.899232657906   -0.503097833394
 }
 basis=aug-cc-pVTZ
 
 
 
 hf; ccsd(t)
 
 
 
 {put,xml;noorbitals,nobasis}
 Commands initialized (841), CPU time= 0.00 sec, 716 directives.
 Default parameters read. Elapsed time= 1.05 sec

 Checking input...
 Passed
1


                                         ***  PROGRAM SYSTEM MOLPRO  ***
                                       Copyright, TTI GmbH Stuttgart, 2015
                                    Version 2023.1 linked Fri Jul 14 07:57:55 2023


 **********************************************************************************************************************************
 LABEL *                                                                                                                                                                 
  64 bit serial version                                                                  DATE: 16-Jul-23          TIME: 03:58:27  
 **********************************************************************************************************************************

 SHA1:             8f90ea6339eadc8ec4622dc21e4296b0c92029f5
 **********************************************************************************************************************************

 Memory per process:      1573 MW
 Total memory per node:   2097 MW
 Total GA space:           524 MW

 GA preallocation disabled
 GA check enabled

 Variable memory set to 1572.9 MW

 ZSYMEL=NOSYM


 Geometry recognized as XYZ

 SETTING BASIS          =    AUG-CC-PVTZ


 Recomputing integrals since basis changed


 Using spherical harmonics

 Library entry C      S aug-cc-pVTZ          selected for orbital group  1
 Library entry C      P aug-cc-pVTZ          selected for orbital group  1
 Library entry C      D aug-cc-pVTZ          selected for orbital group  1
 Library entry C      F aug-cc-pVTZ          selected for orbital group  1
 Library entry H      S aug-cc-pVTZ          selected for orbital group  2
 Library entry H      P aug-cc-pVTZ          selected for orbital group  2
 Library entry H      D aug-cc-pVTZ          selected for orbital group  2
 Library entry O      S aug-cc-pVTZ          selected for orbital group  4
 Library entry O      P aug-cc-pVTZ          selected for orbital group  4
 Library entry O      D aug-cc-pVTZ          selected for orbital group  4
 Library entry O      F aug-cc-pVTZ          selected for orbital group  4
 Library entry N      S aug-cc-pVTZ          selected for orbital group  5
 Library entry N      P aug-cc-pVTZ          selected for orbital group  5
 Library entry N      D aug-cc-pVTZ          selected for orbital group  5
 Library entry N      F aug-cc-pVTZ          selected for orbital group  5


 PROGRAM * SEWARD (Integral evaluation for generally contracted gaussian basis sets)     Author: Roland Lindh, 1990

 Geometry written to block  1 of record 700


 Point group  C1  



 ATOMIC COORDINATES

 NR  ATOM    CHARGE       X              Y              Z

   1  C       6.00   -0.433505849   -0.966575556    3.613058496
   2  H       1.00    1.568891273   -0.824860128    3.177126065
   3  H       1.00   -0.863214484   -2.869631411    4.258935900
   4  H       1.00   -0.897099512    0.323835784    5.143542990
   5  C       6.00   -2.116553319   -0.366575091    1.383561712
   6  O       8.00   -4.426533491   -0.418717992    1.553757639
   7  N       7.00   -0.866471827    0.221176650   -0.779964497
   8  H       1.00    1.036915077    0.222760082   -0.772066245
   9  C       6.00   -2.198168638    0.838168464   -3.081146857
  10  H       1.00   -4.205526428    0.699936617   -2.680713209
  11  H       1.00   -1.767653042    2.752213567   -3.703888687
  12  H       1.00   -1.721016826   -0.474111705   -4.592985441
  13  O       8.00    4.908904319    0.255186903   -0.995878727
  14  H       1.00    5.976556652   -1.092109628   -1.572622018
  15  H       1.00    6.004476097    1.699303446   -0.950717119

 Bond lengths in Bohr (Angstrom)

 1-2  2.054194386  1-3  2.055098225  1-4  2.054863328  1-5  2.857149849  5-6  2.316828421
     ( 1.087032856)     ( 1.087511147)     ( 1.087386845)     ( 1.511938588)     ( 1.226012802)

  5- 7  2.566905043   7- 8  1.903403950   7- 9  2.729383731   9-10  2.051570240   9-11  2.058329352
       ( 1.358347651)       ( 1.007237993)       ( 1.444327670)       ( 1.085644218)       ( 1.089220986)

  9-12  2.058010932  13-14  1.813207730  13-15  1.813226318
       ( 1.089052485)       ( 0.959508210)       ( 0.959518046)

 Bond angles

  1-5-6  121.68673501   1-5-7  114.76561876   2-1-3  109.53613120   2-1-4  109.55165806

  2-1-5  113.21157163   3-1-4  107.47361178   3-1-5  108.45340172   4-1-5  108.44650049

  5- 7- 8  118.92656064   5- 7- 9  121.65278092   6- 5- 7  123.54762817   7- 9-10  107.31367469

  7- 9-11  111.29936160   7- 9-12  111.22895924   8- 7- 9  119.42062152  10- 9-11  109.04787910

 10- 9-12  109.10347795  11- 9-12  108.79598226  14-13-15  104.11910811

 NUCLEAR CHARGE:                   50
 NUMBER OF PRIMITIVE AOS:         645
 NUMBER OF SYMMETRY AOS:          573
 NUMBER OF CONTRACTIONS:          483   (  483A   )
 NUMBER OF INNER CORE ORBITALS:     0   (    0A   )
 NUMBER OF OUTER CORE ORBITALS:     6   (    6A   )
 NUMBER OF VALENCE ORBITALS:       33   (   33A   )


 NUCLEAR REPULSION ENERGY  243.51194113


 Eigenvalues of metric

         1 0.105E-04 0.121E-04 0.155E-04 0.241E-04 0.267E-04 0.295E-04 0.365E-04 0.505E-04


 Contracted 2-electron integrals neglected if value below      1.0D-12
 AO integral compression algorithm  1   Integral accuracy      1.0D-12

     25267.798 MB (compressed) written to integral file ( 43.2%)


 NUMBER OF SORTED TWO-ELECTRON INTEGRALS: 6831226941.     BUFFER LENGTH:  32768
 NUMBER OF SEGMENTS: 143  SEGMENT LENGTH:   47999545      RECORD LENGTH: 262144

 Memory used in sort:      48.29 MW

 SORT1 READ  7318818882. AND WROTE  5912897034. INTEGRALS IN  33905 RECORDS. CPU TIME:    56.40 SEC, REAL TIME:   123.06 SEC
 SORT2 READ  5912897034. AND WROTE  6831226941. INTEGRALS IN  96389 RECORDS. CPU TIME:    34.81 SEC, REAL TIME:   143.00 SEC

 FILE SIZES:   FILE 1: 25306.6 MBYTE,  FILE 4: 71104.0 MBYTE,   TOTAL:  96410.6 MBYTE

 OPERATOR DM      FOR CENTER  0  COORDINATES:    0.000000    0.000000    0.000000


 **********************************************************************************************************************************
 DATASETS  * FILE   NREC   LENGTH (MB)   RECORD NAMES
              1      19    22580.07       500      610      700      900      950      970     1000      129      960     1100   
                                          VAR    BASINP    GEOM    SYMINP    ZMAT    AOBASIS   BASIS     P2S    ABASIS      S 
                                         1400     1410     1200     1210     1080     1600     1650     1300     1700   
                                           T        V       H0       H01     AOSYM     SMH    MOLCAS    ERIS     OPER   

 PROGRAMS   *        TOTAL       INT
 CPU TIMES  *       211.39    211.30
 REAL TIME  *       457.79 SEC
 DISK USED  *        89.79 GB
 **********************************************************************************************************************************


 Program * Restricted Hartree-Fock

 Orbital guess generated from atomic densities. Full valence occupancy:   39

 Initial occupancy:  25

 NELEC=   50   SYM=1   MS2= 0   THRE=1.0D-08   THRD=3.2D-06   THRG=3.2D-06  HFMA2=F  DIIS_START=2   DIIS_MAX=10   DIIS_INCORE=F

 Level shifts:    0.00 (CLOSED)    0.00 (OPEN)    0.30 (GAP_MIN)

 ITER           ETOT              DE          GRAD        DDIFF     DIIS  NEXP   TIME(IT)  TIME(TOT)  DIAG
   1     -323.02770257    -323.02770257     0.00D+00     0.29D-01     0     0      32.23     61.36    start
   2     -323.11804301      -0.09034045     0.35D-02     0.42D-02     1     0      32.38     93.74    diag
   3     -323.16558447      -0.04754145     0.25D-02     0.16D-02     2     0      34.08    127.82    diag
   4     -323.16813522      -0.00255076     0.40D-03     0.44D-03     3     0      33.42    161.24    diag
   5     -323.16848622      -0.00035100     0.15D-03     0.16D-03     4     0      33.78    195.02    diag
   6     -323.16853762      -0.00005140     0.47D-04     0.60D-04     5     0      32.69    227.71    diag
   7     -323.16854666      -0.00000904     0.17D-04     0.27D-04     6     0      31.26    258.97    diag
   8     -323.16854807      -0.00000141     0.67D-05     0.99D-05     7     0      31.88    290.85    fixocc
   9     -323.16854829      -0.00000022     0.24D-05     0.47D-05     8     0      31.53    322.38    diag
  10     -323.16854830      -0.00000001     0.64D-06     0.12D-05     9     0      31.56    353.94    diag/orth
  11     -323.16854830      -0.00000000     0.26D-06     0.32D-06     9     0      31.34    385.28    diag
  12     -323.16854830      -0.00000000     0.72D-07     0.11D-06     0     0      32.43    417.71    diag

 Final occupancy:  25

 !RHF STATE 1.1 Energy               -323.168548301680
  RHF One-electron energy            -924.524344745460
  RHF Two-electron energy             357.843855312009
  RHF Kinetic energy                  322.726182356029
  RHF Nuclear energy                  243.511941131770
  RHF Virial quotient                  -1.001370716012

 !RHF STATE 1.1 Dipole moment           2.64373017     0.16508911    -0.66282244
 Dipole moment /Debye                   6.71969184     0.41961465    -1.68472660

 Orbital energies:

           1.1          2.1          3.1          4.1          5.1          6.1          7.1          8.1          9.1         10.1
    -20.600791   -20.494544   -15.564181   -11.330616   -11.241478   -11.219125    -1.388047    -1.356777    -1.211844    -1.002760

          11.1         12.1         13.1         14.1         15.1         16.1         17.1         18.1         19.1         20.1
     -0.916290    -0.772844    -0.749938    -0.675928    -0.639977    -0.622787    -0.617324    -0.572702    -0.562464    -0.548046

          21.1         22.1         23.1         24.1         25.1         26.1         27.1
     -0.535791    -0.527203    -0.489094    -0.404444    -0.373322     0.013144     0.034701


 HOMO     25.1    -0.373322 =     -10.1586eV
 LUMO     26.1     0.013144 =       0.3577eV
 LUMO-HOMO         0.386466 =      10.5163eV

 Orbitals saved in record  2100.2


 **********************************************************************************************************************************
 DATASETS  * FILE   NREC   LENGTH (MB)   RECORD NAMES
              1      19    22580.07       500      610      700      900      950      970     1000      129      960     1100   
                                          VAR    BASINP    GEOM    SYMINP    ZMAT    AOBASIS   BASIS     P2S    ABASIS      S 
                                         1400     1410     1200     1210     1080     1600     1650     1300     1700   
                                           T        V       H0       H01     AOSYM     SMH    MOLCAS    ERIS     OPER   

              2       4        4.25       700     1000      520     2100   
                                         GEOM     BASIS   MCVARS     RHF  

 PROGRAMS   *        TOTAL    HF-SCF       INT
 CPU TIMES  *       629.10    417.71    211.30
 REAL TIME  *       961.80 SEC
 DISK USED  *        89.79 GB
 **********************************************************************************************************************************


 PROGRAM * CCSD (Closed-shell coupled cluster)     Authors: C. Hampel, H.-J. Werner, 1991, M. Deegan, P.J. Knowles, 1992


 Convergence thresholds:  THRVAR = 1.00D-08  THRDEN = 1.00D-06

 CCSD(T)     terms to be evaluated (factor= 1.000)


 Number of core orbitals:           6 (   6 )
 Number of closed-shell orbitals:  19 (  19 )
 Number of external orbitals:     458 ( 458 )

 Molecular orbitals read from record     2100.2  Type=RHF/CANONICAL  

 Number of N-1 electron functions:              19
 Number of N-2 electron functions:             190
 Number of singly external CSFs:              8702
 Number of doubly external CSFs:          37866753
 Total number of CSFs:                    37875456

 Length of J-op  integral file:               0.00 MB
 Length of K-op  integral file:              16.08 MB
 Length of 3-ext integral record:             0.00 MB

 For full I/O caching in triples, increase memory by 583.71 Mwords to 2156.63 Mwords.

 Integral transformation finished. Total CPU: 266.55 sec, npass=  1  Memory used:1206.07 MW

 Reference energy:                   -323.16854830

 MP2 singlet pair energy:              -0.79070329
 MP2 triplet pair energy:              -0.44904337
 MP2 correlation energy:               -1.23974666
 MP2 total energy:                   -324.40829496

 SCS-MP2 correlation energy:           -1.22824871   (PS=  1.200000  PT=  0.333333)
 SCS-MP2 total energy:               -324.39679701

 ITER.      SQ.NORM     CORR.ENERGY   TOTAL ENERGY   ENERGY CHANGE        DEN1      VAR(S)    VAR(P)  DIIS     TIME  TIME/IT
   1      1.34459252    -1.27115954  -324.43970785    -0.03141289     0.00126599  0.70D-02  0.61D-02  1  1  1409.74   439.42
   2      1.36799569    -1.27272930  -324.44127760    -0.00156976    -0.02750633  0.13D-03  0.88D-03  2  2  1933.54   446.32
   3      1.37744924    -1.27312293  -324.44167124    -0.00039363    -0.00503210  0.15D-03  0.44D-04  3  3  2462.20   450.11
   4      1.38091442    -1.27296680  -324.44151511     0.00015613    -0.00146158  0.16D-04  0.74D-05  4  4  2997.45   453.60
   5      1.38242670    -1.27296062  -324.44150892     0.00000618    -0.00036848  0.29D-05  0.78D-06  5  5  3530.94   455.56
   6      1.38285792    -1.27292711  -324.44147541     0.00003352    -0.00005897  0.37D-06  0.12D-06  6  6  4069.08   457.55
   7      1.38297664    -1.27291821  -324.44146651     0.00000890    -0.00001173  0.38D-07  0.25D-07  6  2  4600.77   460.20
   8      1.38299865    -1.27291724  -324.44146554     0.00000097     0.00000032  0.67D-08  0.33D-08  6  1  5140.40   461.07
   9      1.38300216    -1.27291714  -324.44146544     0.00000010     0.00000198  0.14D-08  0.48D-09  6  3  5659.11   459.92

 Norm of t1 vector:      0.11675783      S-energy:    -0.00000016      T1 diagnostic:  0.01339304
                                                                       D1 diagnostic:  0.05652230
                                                                       D2 diagnostic:  0.15802782 (internal)

   CPU time for triples:   1936.86 sec for i =  1 - 10 / 19 (~  16.0 % done)
   CPU time for triples:   1897.82 sec for i = 11 - 13 / 19 (~  33.7 % done)
   CPU time for triples:   2698.86 sec for i = 14 - 16 / 19 (~  61.0 % done)
   CPU time for triples:   2459.61 sec for i = 17 - 18 / 19 (~  85.6 % done)
   CPU time for triples:   1417.12 sec for i = 19 - 19 / 19 (  100.0 % done)

 Total CPU time for triples:  10410.27 sec


 RESULTS
 =======

  Reference energy                   -323.168548301678
  CCSD singlet pair energy             -0.867986755145
  CCSD triplet pair energy             -0.404930216905
  CCSD correlation energy              -1.272917135661

  Triples (T) contribution             -0.052505918316
  Total correlation energy             -1.325423053977

  CCSD total energy                  -324.441465437340
  CCSD[T] energy                     -324.496277014333
  CCSD-T energy                      -324.493030039659
 !CCSD(T) total energy               -324.493971355656

 Timing summary (sec):

 STEP                 CPU(USER)    SYS     CPU(TOT)    WALL
 Transformation        270.65     30.73    301.38    294.62
 CCSD iterations      5390.44    221.91   5612.35   4142.19
 Triples             10410.27    308.88  10719.15   9243.89

 Program statistics:

 Available memory in ccsd:              1572862531
 Min. memory needed in ccsd:              88598334
 Max. memory used in ccsd:               124029705
 Max. memory used in cckext:              90838442 ( 9 integral passes)



 **********************************************************************************************************************************
 DATASETS  * FILE   NREC   LENGTH (MB)   RECORD NAMES
              1      20    30069.67       500      610      700      900      950      970     1000      129      960     1100   
                                          VAR    BASINP    GEOM    SYMINP    ZMAT    AOBASIS   BASIS     P2S    ABASIS      S 
                                         1400     1410     1200     1210     1080     1600     1650     1300     1700     1380   
                                           T        V       H0       H01     AOSYM     SMH    MOLCAS    ERIS     OPER     JKOP   

              2       4        4.25       700     1000      520     2100   
                                         GEOM     BASIS   MCVARS     RHF  

 PROGRAMS   *        TOTAL   CCSD(T)    HF-SCF       INT
 CPU TIMES  *     16071.27  15442.16    417.71    211.30
 REAL TIME  *     14643.07 SEC
 DISK USED  *        89.79 GB
 **********************************************************************************************************************************

 Dump information in style XML to xml output                                                                      

 Orbitals will not be exported.

 **********************************************************************************************************************************

 CCSD(T)/aug-cc-pVTZ energy=   -324.493971355656

         CCSD(T)          HF-SCF
   -324.49397136   -323.16854830
 **********************************************************************************************************************************
 Molpro calculation terminated
