
 Working directory              : /tmp/peterk/molpro.ncdd0AYrZT/
 Global scratch directory       : /tmp/peterk/molpro.ncdd0AYrZT/
 Wavefunction directory         : /home/peterk/wfu/
 Main file repository           : /tmp/peterk/molpro.ncdd0AYrZT/

 id        : peterk

 Nodes     nprocs
 marat        1
 GA implementation: MPI file
 GA implementation (serial work in mppx): MPI file

 Using customized tuning parameters: mindgm=1; mindgv=20; mindgc=4; mindgr=1; noblas=0; minvec=7
 default implementation of scratch files=df  


 Variables initialized (1032), CPU time= 0.00 sec
 
 core,small
 angstrom
 
 geometry={
 C;O,C,1.20430342;H1,C,1.10077162,O,121.78046616;H2,C,1.10077162,O,121.78046616,H1,180
 }
 basis=cc-pCV5Z
 
 
 
 hf; hf; papt; mp2
 
 
 
 {put,xml;noorbitals,nobasis}
 Commands initialized (841), CPU time= 0.01 sec, 708 directives.
 Default parameters read. Elapsed time= 0.05 sec

 Checking input...
 Passed
1


                                         ***  PROGRAM SYSTEM MOLPRO  ***
                                       Copyright, TTI GmbH Stuttgart, 2015
                                    Version 2023.1 linked Sat Jun 10 08:01:27 2023


 **********************************************************************************************************************************
 LABEL *                                                                                                                                                                 
  (16 PROC) 64 bit serial version                                                        DATE: 12-Jun-23          TIME: 12:00:11  
 **********************************************************************************************************************************

 SHA1:             8376d659ba1296ca7ee514c57770fe2c96af278c
 **********************************************************************************************************************************

 Memory per process:      1074 MW
 Total memory per node:   1074 MW

 GA preallocation disabled
 GA check disabled

 Variable memory set to 1073.7 MW

 ZUNIT=ANG

 SETTING BASIS          =    CC-PCV5Z


 Recomputing integrals since basis changed


 Using spherical harmonics

 Library entry C      S cc-pCV5Z             selected for orbital group  1
 Library entry C      P cc-pCV5Z             selected for orbital group  1
 Library entry C      D cc-pCV5Z             selected for orbital group  1
 Library entry C      F cc-pCV5Z             selected for orbital group  1
 Library entry C      G cc-pCV5Z             selected for orbital group  1
 Library entry C      H cc-pCV5Z             selected for orbital group  1
 Library entry O      S cc-pCV5Z             selected for orbital group  2
 Library entry O      P cc-pCV5Z             selected for orbital group  2
 Library entry O      D cc-pCV5Z             selected for orbital group  2
 Library entry O      F cc-pCV5Z             selected for orbital group  2
 Library entry O      G cc-pCV5Z             selected for orbital group  2
 Library entry O      H cc-pCV5Z             selected for orbital group  2
 Library entry H      S cc-pV5Z              selected for orbital group  3
 Library entry H      P cc-pV5Z              selected for orbital group  3
 Library entry H      D cc-pV5Z              selected for orbital group  3
 Library entry H      F cc-pV5Z              selected for orbital group  3
 Library entry H      G cc-pV5Z              selected for orbital group  3


 PROGRAM * SEWARD (Integral evaluation for generally contracted gaussian basis sets)     Author: Roland Lindh, 1990

 Geometry written to block  1 of record 700

 Orientation using atomic masses  
 Molecule type: Asymmetric top,     Order of principal axis = 2
 Symmetry elements: X,Y
 Rotational constants:      34.2927288     38.9589211    286.3164739 GHz  (calculated with average atomic masses)

 Point group  C2v 



 ATOMIC COORDINATES

 NR  ATOM    CHARGE       X              Y              Z

   1  C       6.00    0.000000000    0.000000000   -1.139102130
   2  O       8.00    0.000000000    0.000000000    1.136701504
   3  H1      1.00    0.000000000    1.768283747   -2.234650061
   4  H2      1.00    0.000000000   -1.768283747   -2.234650061

 Bond lengths in Bohr (Angstrom)

 1-2  2.275803635  1-3  2.080156888  1-4  2.080156888
     ( 1.204303420)     ( 1.100771620)     ( 1.100771620)

 Bond angles

  2-1-3  121.78046616   2-1-4  121.78046616   3-1-4  116.43906768

 NUCLEAR CHARGE:                   16
 NUMBER OF PRIMITIVE AOS:         570
 NUMBER OF SYMMETRY AOS:          440
 NUMBER OF CONTRACTIONS:          400   (  145A1  +   90B1  +  105B2  +   60A2  )
 NUMBER OF INNER CORE ORBITALS:     0   (    0A1  +    0B1  +    0B2  +    0A2  )
 NUMBER OF OUTER CORE ORBITALS:     2   (    2A1  +    0B1  +    0B2  +    0A2  )
 NUMBER OF VALENCE ORBITALS:       10   (    5A1  +    2B1  +    3B2  +    0A2  )


 NUCLEAR REPULSION ENERGY   31.34585015


 Eigenvalues of metric

         1 0.231E-05 0.337E-05 0.394E-04 0.491E-04 0.146E-03 0.287E-03 0.327E-03 0.408E-03
         2 0.398E-03 0.496E-03 0.834E-03 0.111E-02 0.742E-02 0.108E-01 0.258E-01 0.297E-01
         3 0.300E-04 0.164E-03 0.275E-03 0.438E-03 0.479E-03 0.529E-03 0.115E-02 0.280E-02
         4 0.135E-02 0.124E-01 0.205E-01 0.271E-01 0.343E-01 0.507E-01 0.531E-01 0.621E-01


 Contracted 2-electron integrals neglected if value below      1.0D-12
 AO integral compression algorithm  1   Integral accuracy      1.0D-12

     2945.450 MB (compressed) written to integral file ( 37.9%)


 NUMBER OF SORTED TWO-ELECTRON INTEGRALS:  814485100.     BUFFER LENGTH:  32768
 NUMBER OF SEGMENTS:  26  SEGMENT LENGTH:   31997010      RECORD LENGTH: 524288

 Memory used in sort:      32.55 MW

 SORT1 READ   970333714. AND WROTE   594051818. INTEGRALS IN   1711 RECORDS. CPU TIME:    35.49 SEC, REAL TIME:   183.37 SEC
 SORT2 READ   594051818. AND WROTE   814485100. INTEGRALS IN  11236 RECORDS. CPU TIME:    11.31 SEC, REAL TIME:    38.90 SEC

 FILE SIZES:   FILE 1:  2978.9 MBYTE,  FILE 4:  7176.5 MBYTE,   TOTAL:  10155.5 MBYTE

 OPERATOR DM      FOR CENTER  0  COORDINATES:    0.000000    0.000000    0.000000


 **********************************************************************************************************************************
 DATASETS  * FILE   NREC   LENGTH (MB)   RECORD NAMES
              1      19     2495.77       500      610      700      900      950      970     1000      129      960     1100   
                                          VAR    BASINP    GEOM    SYMINP    ZMAT    AOBASIS   BASIS     P2S    ABASIS      S 
                                         1400     1410     1200     1210     1080     1600     1650     1300     1700   
                                           T        V       H0       H01     AOSYM     SMH    MOLCAS    ERIS     OPER   

 PROGRAMS   *        TOTAL       INT
 CPU TIMES  *       171.88    171.77
 REAL TIME  *       355.15 SEC
 DISK USED  *         9.46 GB
 **********************************************************************************************************************************


 Program * Restricted Hartree-Fock

 Orbital guess generated from atomic densities. Full valence occupancy:    7   2   3   0

 Initial occupancy:   5   1   2   0

 NELEC=   16   SYM=1   MS2= 0   THRE=1.0D-08   THRD=3.2D-06   THRG=3.2D-06  HFMA2=F  DIIS_START=2   DIIS_MAX=10   DIIS_INCORE=F

 Level shifts:    0.00 (CLOSED)    0.00 (OPEN)    0.30 (GAP_MIN)

 ITER           ETOT              DE          GRAD        DDIFF     DIIS  NEXP   TIME(IT)  TIME(TOT)  DIAG
   1     -113.87044688    -113.87044688     0.00D+00     0.37D-01     0     0       2.30      4.66    start
   2     -113.89412231      -0.02367544     0.78D-02     0.54D-02     1     0       2.43      7.09    diag
   3     -113.92263506      -0.02851274     0.65D-02     0.26D-02     2     0       2.38      9.47    diag
   4     -113.92307139      -0.00043633     0.53D-03     0.35D-03     3     0       2.40     11.87    diag
   5     -113.92312768      -0.00005629     0.18D-03     0.13D-03     4     0       2.38     14.25    diag
   6     -113.92314034      -0.00001266     0.62D-04     0.66D-04     5     0       2.37     16.62    diag
   7     -113.92314248      -0.00000215     0.29D-04     0.35D-04     6     0       2.34     18.96    diag
   8     -113.92314256      -0.00000008     0.57D-05     0.76D-05     7     0       2.38     21.34    fixocc
   9     -113.92314257      -0.00000000     0.69D-06     0.80D-06     8     0       2.42     23.76    diag
  10     -113.92314257      -0.00000000     0.14D-06     0.13D-06     0     0       2.30     26.06    diag/orth

 Final occupancy:   5   1   2   0

 !RHF STATE 1.1 Energy               -113.923142565277
  RHF One-electron energy            -217.492254949111
  RHF Two-electron energy              72.223262235454
  RHF Kinetic energy                  113.774119910258
  RHF Nuclear energy                   31.345850148379
  RHF Virial quotient                  -1.001309811538

 !RHF STATE 1.1 Dipole moment           0.00000000     0.00000000    -1.11753244
 Dipole moment /Debye                   0.00000000     0.00000000    -2.84048414

 Orbital energies:

           1.1          2.1          3.1          4.1          5.1          6.1          7.1
    -20.575004   -11.340241    -1.406509    -0.870934    -0.652864     0.094757     0.170478

           1.2          2.2          3.2
     -0.537810     0.096271     0.230047

           1.3          2.3          3.3          4.3
     -0.695790    -0.443716     0.128965     0.250082

           1.4          2.4
      0.458156     0.709864


 HOMO      2.3    -0.443716 =     -12.0741eV
 LUMO      6.1     0.094757 =       2.5785eV
 LUMO-HOMO         0.538473 =      14.6526eV

 Orbitals saved in record  2100.2


 **********************************************************************************************************************************
 DATASETS  * FILE   NREC   LENGTH (MB)   RECORD NAMES
              1      19     2495.77       500      610      700      900      950      970     1000      129      960     1100   
                                          VAR    BASINP    GEOM    SYMINP    ZMAT    AOBASIS   BASIS     P2S    ABASIS      S 
                                         1400     1410     1200     1210     1080     1600     1650     1300     1700   
                                           T        V       H0       H01     AOSYM     SMH    MOLCAS    ERIS     OPER   

              2       4        1.14       700     1000      520     2100   
                                         GEOM     BASIS   MCVARS     RHF  

 PROGRAMS   *        TOTAL    HF-SCF       INT
 CPU TIMES  *       197.94     26.06    171.77
 REAL TIME  *       383.75 SEC
 DISK USED  *         9.46 GB
 **********************************************************************************************************************************


 Program * Restricted Hartree-Fock

 Molecular orbitals read from record     2100.2  Type=RHF/CANONICAL  

 Initial occupancy:   5   1   2   0

 NELEC=   16   SYM=1   MS2= 0   THRE=1.0D-08   THRD=3.2D-06   THRG=3.2D-06  HFMA2=F  DIIS_START=2   DIIS_MAX=10   DIIS_INCORE=F

 Level shifts:    0.00 (CLOSED)    0.00 (OPEN)    0.30 (GAP_MIN)

 ITER           ETOT              DE          GRAD        DDIFF     DIIS  NEXP   TIME(IT)  TIME(TOT)  DIAG
   1     -113.92314257    -113.92314257     0.00D+00     0.37D-01     0     0       2.32      2.32    start
   2     -113.92314257      -0.00000000     0.64D-07     0.56D-07     1     0       2.36      4.68    diag

 Final occupancy:   5   1   2   0

 !RHF STATE 1.1 Energy               -113.923142565283
  RHF One-electron energy            -217.492245651590
  RHF Two-electron energy              72.223252937927
  RHF Kinetic energy                  113.774110595747
  RHF Nuclear energy                   31.345850148379
  RHF Virial quotient                  -1.001309893514

 !RHF STATE 1.1 Dipole moment           0.00000000     0.00000000    -1.11752695
 Dipole moment /Debye                   0.00000000     0.00000000    -2.84047017

 Orbital energies:

           1.1          2.1          3.1          4.1          5.1          6.1          7.1
    -20.575002   -11.340243    -1.406508    -0.870935    -0.652864     0.094757     0.170478

           1.2          2.2          3.2
     -0.537809     0.096271     0.230047

           1.3          2.3          3.3          4.3
     -0.695790    -0.443716     0.128965     0.250082

           1.4          2.4
      0.458156     0.709864


 HOMO      2.3    -0.443716 =     -12.0741eV
 LUMO      6.1     0.094757 =       2.5785eV
 LUMO-HOMO         0.538472 =      14.6526eV

 Orbitals saved in record  2101.2


 **********************************************************************************************************************************
 DATASETS  * FILE   NREC   LENGTH (MB)   RECORD NAMES
              1      19     2495.77       500      610      700      900      950      970     1000      129      960     1100   
                                          VAR    BASINP    GEOM    SYMINP    ZMAT    AOBASIS   BASIS     P2S    ABASIS      S 
                                         1400     1410     1200     1210     1080     1600     1650     1300     1700   
                                           T        V       H0       H01     AOSYM     SMH    MOLCAS    ERIS     OPER   

              2       5        2.42       700     1000      520     2100     2101   
                                         GEOM     BASIS   MCVARS     RHF      RHF  

 PROGRAMS   *        TOTAL    HF-SCF    HF-SCF       INT
 CPU TIMES  *       202.64      4.69     26.06    171.77
 REAL TIME  *       388.89 SEC
 DISK USED  *         9.46 GB
 **********************************************************************************************************************************


 PROGRAM * PAPT (Closed-shell)     Authors: C. Hampel, H.-J. Werner, 1991, P.J. Knowles, 2021


 CORETYPE=SMALL

 Convergence thresholds:  THRVAR = 1.00D-08  THRDEN = 1.00D-06

 Number of closed-shell orbitals:   8 (   5   1   2   0 )
 Number of external orbitals:     392 ( 140  89 103  60 )

 Molecular orbitals read from record     2101.2  Type=RHF/CANONICAL  

 Number of N-1 electron functions:               8
 Number of N-2 electron functions:              36
 Number of singly external CSFs:               995
 Number of doubly external CSFs:           1279386
 Total number of CSFs:                     1280382

 Length of J-op  integral file:               0.00 MB
 Length of K-op  integral file:               3.07 MB

 Integral transformation finished. Total CPU:   4.85 sec, npass=  1  Memory used:   2.02 MW

 Reference energy:                   -113.92314257

                        CORR.ENERGY   TOTAL ENERGY   ENERGY CHANGE
 MP2:                   -0.54960711  -114.47274967    -0.54960711

 SCS-MP2 correlation energy:           -0.56221417   (PS=  1.200000  PT=  0.333333)
 SCS-MP2 total energy:               -114.48535673
 Iteration:   1     0.4392D+00
 Iteration:   2     0.5474D+00
 Iteration:   3     0.1739D+00
 Iteration:   4     0.1356D+00
 Iteration:   5     0.1101D+01
 Iteration:   6     0.4024D-01
 Iteration:   7     0.7330D-01
 Iteration:   8     0.2130D-01
 Iteration:   9     0.1423D-01
 Iteration:  10     0.9251D-01
 Iteration:  11     0.4881D-02
 Iteration:  12     0.5721D-02
 Iteration:  13     0.4217D-02
 Iteration:  14     0.9424D-03
 Iteration:  15     0.2001D-02
 Iteration:  16     0.4635D-03
 Iteration:  17     0.2309D-03
 Iteration:  18     0.2131D-02
 Iteration:  19     0.9983D-04
 PAPT operator written to  7000.1
 PAPT orbitals and eigenvalues written to  7000.2

 MP3(D):                -0.55080637  -114.47394894    -0.00119926



 RESULTS
 =======

  Reference energy                   -113.923142565284

  Correlated core orbitals:             1.1       2.1
  Orbital energies:                   -20.5750  -11.3402

  MP3 core-core energy                 -0.082729278026
  MP3 core-valence energy              -0.033922634997
  MP3 valence correlation energy       -0.434154458116

  MP3 singlet pair energy              -0.397902406497
  MP3 triplet pair energy              -0.152903964643
  MP3 correlation energy               -0.550806371140

 !MP3 total energy                   -114.473948936424

 Timing summary (sec):

 STEP                 CPU(USER)    SYS     CPU(TOT)    WALL
 Transformation          4.89      0.36      5.25      5.44
 CCSD iterations       211.77      0.45    212.22      9.25

 Program statistics:

 Available memory in ccsd:              1073741563
 Min. memory needed in ccsd:               3784737
 Max. memory used in ccsd:                 4890520
 Max. memory used in cckext:               6057535 ( 1 integral passes)



 **********************************************************************************************************************************
 DATASETS  * FILE   NREC   LENGTH (MB)   RECORD NAMES
              1      21     2513.95       500      610      700      900      950      970     1000      129      960     1100   
                                          VAR    BASINP    GEOM    SYMINP    ZMAT    AOBASIS   BASIS     P2S    ABASIS      S 
                                         1400     1410     1200     1210     1080     1600     1650     1300     1700     1380   
                                           T        V       H0       H01     AOSYM     SMH    MOLCAS    ERIS     OPER     JKOP   
                                         7000   
                                        PAPT AO    

              2       6        3.53       700     1000      520     2100     2101     7000   
                                         GEOM     BASIS   MCVARS     RHF      RHF     PAPT   

 PROGRAMS   *        TOTAL      PAPT    HF-SCF    HF-SCF       INT
 CPU TIMES  *       216.28     13.64      4.69     26.06    171.77
 REAL TIME  *       403.62 SEC
 DISK USED  *         9.46 GB
 **********************************************************************************************************************************


 PROGRAM * MP2 (Closed-shell)     Authors: C. Hampel, H.-J. Werner, 1991, M. Deegan, P.J. Knowles, 1992


 CORETYPE=SMALL

 Convergence thresholds:  THRVAR = 1.00D-08  THRDEN = 1.00D-06

 Number of closed-shell orbitals:   8 (   5   1   2   0 )
 Number of external orbitals:     392 ( 140  89 103  60 )

 Molecular orbitals read from record     7000.2  Type=PAPT/CANONICAL (state 1.1)

 Number of N-1 electron functions:               8
 Number of N-2 electron functions:              36
 Number of singly external CSFs:               995
 Number of doubly external CSFs:           1279386
 Total number of CSFs:                     1280382

 Length of J-op  integral file:               0.00 MB
 Length of K-op  integral file:               3.07 MB

 Integral transformation finished. Total CPU:   4.81 sec, npass=  1  Memory used:   2.02 MW
 Orbital energies read from record       7000.2  Type=PAPT/CANONICAL (state 1.1)

 Memory needed for MP2:                      0.22 MW

 SCS-MP2 correlation energy:           -0.571395665386   (PS=  1.200000  PT=  0.333333)
 SCS-MP2 total energy:               -114.494538230670


  Reference energy                   -113.923142565284

  Correlated core orbitals:             1.1       2.1
  Orbital energies:                   -18.9885  -10.3663

  MP2 core-core energy                 -0.083285815811
  MP2 core-valence energy              -0.033574022107
  MP2 valence correlation energy       -0.439152862697

  MP2 singlet pair energy              -0.390171127890
  MP2 triplet pair energy              -0.165841572725
  MP2 correlation energy               -0.556012700615

 !MP2 total energy                   -114.479155265899


 **********************************************************************************************************************************
 DATASETS  * FILE   NREC   LENGTH (MB)   RECORD NAMES
              1      21     2513.95       500      610      700      900      950      970     1000      129      960     1100   
                                          VAR    BASINP    GEOM    SYMINP    ZMAT    AOBASIS   BASIS     P2S    ABASIS      S 
                                         1400     1410     1200     1210     1080     1600     1650     1300     1700     1380   
                                           T        V       H0       H01     AOSYM     SMH    MOLCAS    ERIS     OPER     JKOP   
                                         7000   
                                        PAPT AO    

              2       6        3.53       700     1000      520     2100     2101     7000   
                                         GEOM     BASIS   MCVARS     RHF      RHF     PAPT   

 PROGRAMS   *        TOTAL       MP2      PAPT    HF-SCF    HF-SCF       INT
 CPU TIMES  *       223.56      7.28     13.64      4.69     26.06    171.77
 REAL TIME  *       411.81 SEC
 DISK USED  *         9.46 GB
 **********************************************************************************************************************************

 Dump information in style XML to xml output                                                                      

 Orbitals will not be exported.

 **********************************************************************************************************************************

 MP2/cc-pCV5Z energy=   -114.479155265899

             MP2            PAPT          HF-SCF          HF-SCF
   -114.47915527   -114.47394894   -113.92314257   -113.92314257
 **********************************************************************************************************************************
 Molpro calculation terminated
