
 Working directory              : /var/folders/2v/xbgp75_9785319ghcgb4zr4r0000gp/T//molpro.eOwMVE86Qx/
 Global scratch directory       : /var/folders/2v/xbgp75_9785319ghcgb4zr4r0000gp/T//molpro.eOwMVE86Qx/
 Wavefunction directory         : /Users/sacpjk/wfu/
 Main file repository           : /var/folders/2v/xbgp75_9785319ghcgb4zr4r0000gp/T//molpro.eOwMVE86Qx/

 id        : peterk

 Nodes                        nprocs
 Cardiff-University-G34YLXT77Y    1
 GA implementation: MPI file
 GA implementation (serial work in mppx): MPI file

 Using customized tuning parameters: mindgm=1; mindgv=20; mindgc=4; mindgr=1; noblas=0; minvec=7
 default implementation of scratch files=df  


 Variables initialized (1032), CPU time= 0.01 sec
 
 symmetry,nosym
 
 
 geometry={
            3
     H         -1.08633280      0.93797902      0.00000000
     C          0.54316640      0.09847636      0.00000000
     O          0.54316640     -1.03645538      0.00000000
 }
 basis=cc-pVDZ
 
 
 spin=1
 uhf
 
 
 
 {put,xml;noorbitals,nobasis}
 Commands initialized (841), CPU time= 0.00 sec, 704 directives.
 Default parameters read. Elapsed time= 0.19 sec

 Checking input...
 Passed
1


                                         ***  PROGRAM SYSTEM MOLPRO  ***
                                       Copyright, TTI GmbH Stuttgart, 2015
                                    Version 2023.1 linked Tue Jun  6 09:54:11 2023


 **********************************************************************************************************************************
 LABEL *                                                                                                                                                                 
  64 bit serial version                                                                  DATE: 09-Jun-23          TIME: 09:27:56  
 **********************************************************************************************************************************

 SHA1:             8ebb0dd001088a5c915591db1a321413035db0b1
 **********************************************************************************************************************************

 Memory per process:       805 MW
 Total memory per node:   1074 MW
 Total GA space:           268 MW

 GA preallocation disabled
 GA check enabled

 Variable memory set to 805.3 MW

 ZSYMEL=NOSYM


 Geometry recognized as XYZ

 SETTING BASIS          =    CC-PVDZ
 SETTING SPIN           =         1.00000000                                  


 Recomputing integrals since basis changed


 Using spherical harmonics

 Library entry H      S cc-pVDZ              selected for orbital group  1
 Library entry H      P cc-pVDZ              selected for orbital group  1
 Library entry C      S cc-pVDZ              selected for orbital group  2
 Library entry C      P cc-pVDZ              selected for orbital group  2
 Library entry C      D cc-pVDZ              selected for orbital group  2
 Library entry O      S cc-pVDZ              selected for orbital group  3
 Library entry O      P cc-pVDZ              selected for orbital group  3
 Library entry O      D cc-pVDZ              selected for orbital group  3


 PROGRAM * SEWARD (Integral evaluation for generally contracted gaussian basis sets)     Author: Roland Lindh, 1990

 Geometry written to block  1 of record 700


 Point group  C1  



 ATOMIC COORDINATES

 NR  ATOM    CHARGE       X              Y              Z

   1  H       1.00   -2.052871472    1.772523458    0.000000000
   2  C       6.00    1.026435736    0.186093350    0.000000000
   3  O       8.00    1.026435736   -1.958616809    0.000000000

 Bond lengths in Bohr (Angstrom)

 2-3  2.144710159
     ( 1.134931740)

 NUCLEAR CHARGE:                   15
 NUMBER OF PRIMITIVE AOS:          61
 NUMBER OF SYMMETRY AOS:           59
 NUMBER OF CONTRACTIONS:           33   (   33A   )
 NUMBER OF INNER CORE ORBITALS:     0   (    0A   )
 NUMBER OF OUTER CORE ORBITALS:     2   (    2A   )
 NUMBER OF VALENCE ORBITALS:        9   (    9A   )


 NUCLEAR REPULSION ENERGY   25.76644858

 EXTRA SYMMETRY OF AOS IN SYMMETRY 1:   1 1 1 1 2 1 1 1 1 1   2 1 1 2 1 1 2 1 2 1   1 1 1 1 2 1 1 2 1 1   2 1 2

 Eigenvalues of metric

         1 0.136E-01 0.270E-01 0.765E-01 0.959E-01 0.110E+00 0.138E+00 0.144E+00 0.154E+00


 Contracted 2-electron integrals neglected if value below      1.0D-11
 AO integral compression algorithm  1   Integral accuracy      1.0D-11

     0.524 MB (compressed) written to integral file ( 38.1%)


 NUMBER OF SORTED TWO-ELECTRON INTEGRALS:     157641.     BUFFER LENGTH:  32768
 NUMBER OF SEGMENTS:   1  SEGMENT LENGTH:     157641      RECORD LENGTH: 524288

 Memory used in sort:       0.71 MW

 SORT1 READ      218914. AND WROTE       60891. INTEGRALS IN      1 RECORDS. CPU TIME:     0.00 SEC, REAL TIME:     0.00 SEC
 SORT2 READ       60891. AND WROTE      157641. INTEGRALS IN      2 RECORDS. CPU TIME:     0.01 SEC, REAL TIME:     0.01 SEC

 FILE SIZES:   FILE 1:    30.6 MBYTE,  FILE 4:     4.3 MBYTE,   TOTAL:     34.8 MBYTE

 OPERATOR DM      FOR CENTER  0  COORDINATES:    0.000000    0.000000    0.000000


 **********************************************************************************************************************************
 DATASETS  * FILE   NREC   LENGTH (MB)   RECORD NAMES
              1      19       28.99       500      610      700      900      950      970     1000      129      960     1100   
                                          VAR    BASINP    GEOM    SYMINP    ZMAT    AOBASIS   BASIS     P2S    ABASIS      S 
                                         1400     1410     1200     1210     1080     1600     1650     1300     1700   
                                           T        V       H0       H01     AOSYM     SMH    MOLCAS    ERIS     OPER   

 PROGRAMS   *        TOTAL       INT
 CPU TIMES  *         0.18      0.10
 REAL TIME  *         0.63 SEC
 DISK USED  *        33.57 MB
 **********************************************************************************************************************************


 Program * Unrestricted Hartree-Fock

 Orbital guess generated from atomic densities. Full valence occupancy:   11

 Initial alpha occupancy:   8
 Initial beta  occupancy:   7

 Elapsed time for starting guess:      0.00 sec

 NELEC=   15   SYM=1   MS2=1   THRE=1.0D-08   THRD=3.2D-06   THRG=3.2D-06  HFMA2=F  DIIS_START=2   DIIS_MAX=10   DIIS_INCORE=F

 Initial level shifts:    0.20 (ALPHA)    0.20 (BETA)

 ITER         ETOT            DE          GRAD         DDIFF    DIIS  NEXP   TIME(IT)  TIME(TOT)  DIAG
   1   -113.16462046  -113.16462046     0.00D+00     0.00D+00     0     0       0.00      0.00    start
   2   -113.20377056    -0.03915010     0.15D-01     0.21D+00     1     0       0.00      0.00    diag
   3   -113.21950211    -0.01573155     0.82D-02     0.32D-01     2     0       0.00      0.00    diag
   4   -113.22836404    -0.00886194     0.35D-02     0.96D-02     3     0       0.01      0.01    diag
   5   -113.23295366    -0.00458962     0.22D-02     0.59D-02     4     0       0.00      0.01    diag
   6   -113.23346185    -0.00050818     0.11D-02     0.69D-02     5     0       0.00      0.01    diag
   7   -113.23367355    -0.00021171     0.61D-03     0.16D-02     6     0       0.00      0.01    diag
   8   -113.23374075    -0.00006720     0.33D-03     0.13D-02     7     0       0.00      0.01    diag
   9   -113.23377355    -0.00003279     0.20D-03     0.41D-03     8     0       0.00      0.01    diag
  10   -113.23378290    -0.00000935     0.10D-03     0.39D-03     9     0       0.00      0.01    diag/ort
  11   -113.23378397    -0.00000108     0.36D-04     0.26D-03     9     0       0.01      0.02    diag
  12   -113.23378419    -0.00000022     0.15D-04     0.68D-04     9     0       0.00      0.02    diag
  13   -113.23378425    -0.00000006     0.75D-05     0.27D-04     9     0       0.00      0.02    diag
  14   -113.23378428    -0.00000002     0.42D-05     0.95D-05     9     0       0.00      0.02    diag
  15   -113.23378429    -0.00000002     0.31D-05     0.38D-05     9     0       0.00      0.02    diag
  16   -113.23378430    -0.00000000     0.16D-05     0.24D-05     9     0       0.00      0.02    diag
  17   -113.23378430    -0.00000000     0.98D-06     0.12D-05     9     0       0.00      0.02    diag

 Final alpha occupancy:   8
 Final beta  occupancy:   7

 !UHF STATE 1.1 Energy               -113.233784296631
  UHF One-electron energy            -205.139445679571
  UHF Two-electron energy              66.139212802652
  UHF Kinetic energy                  113.107849593568
  UHF Nuclear energy                   25.766448580288
  UHF Virial quotient                  -1.001113403743

 !UHF STATE 1.1 Dipole moment           0.00866643     0.14504423     0.00000000
 Dipole moment /Debye                   0.02202787     0.36866566     0.00000000

 EXPECTATION VALUE OF S**2:             0.78142837

 Orbital energies for positive spin:

           1.1          2.1          3.1          4.1          5.1          6.1          7.1          8.1          9.1         10.1
    -20.668255   -11.374352    -1.522066    -0.807738    -0.662230    -0.631891    -0.612412    -0.432658     0.144120     0.173775

 Orbital energies for negative spin:

           1.1          2.1          3.1          4.1          5.1          6.1          7.1          8.1          9.1
    -20.663131   -11.371737    -1.512325    -0.797457    -0.627377    -0.624292    -0.553099     0.063492     0.149753


 HOMO      8.1    -0.432658 =     -11.7732eV
 LUMO     -8.1     0.063492 =       1.7277eV
 LUMO-HOMO         0.496150 =      13.5009eV

 Orbitals saved in record  2200.2

 Occupation number threshold for pseudo-canonical orbitals: 1.9990 (occupied), 0.0010 (virtual)

 Number of pseudo-canonical occupied orbitals per symmetry:    6
 Number of active natural orbitals per symmetry:               3

 Natural orbitals saved to record    2200.2 (Orbital set 3)

 Orbital spaces for UNO-CAS (Min. occupation: 0.020  Max. occupation: 1.980):

 Closed:        7
 Active:        1


 **********************************************************************************************************************************
 DATASETS  * FILE   NREC   LENGTH (MB)   RECORD NAMES
              1      19       28.99       500      610      700      900      950      970     1000      129      960     1100   
                                          VAR    BASINP    GEOM    SYMINP    ZMAT    AOBASIS   BASIS     P2S    ABASIS      S 
                                         1400     1410     1200     1210     1080     1600     1650     1300     1700   
                                           T        V       H0       H01     AOSYM     SMH    MOLCAS    ERIS     OPER   

              2       4        0.46       700     1000      520     2200   
                                         GEOM     BASIS   MCVARS     UHF  

              4       3        0.25      2900     3000     3100   

 PROGRAMS   *        TOTAL   UHF-SCF       INT
 CPU TIMES  *         0.20      0.02      0.10
 REAL TIME  *         0.85 SEC
 DISK USED  *        33.57 MB
 **********************************************************************************************************************************

 Dump information in style XML to xml output                                                                      

 Orbitals will not be exported.

 **********************************************************************************************************************************

 UHF/cc-pVDZ energy=   -113.233784296631

         UHF-SCF
   -113.23378430
 **********************************************************************************************************************************
 Molpro calculation terminated
