
 Working directory              : /var/folders/2v/xbgp75_9785319ghcgb4zr4r0000gp/T//molpro.ZyqMZjr0Xl/
 Global scratch directory       : /var/folders/2v/xbgp75_9785319ghcgb4zr4r0000gp/T//molpro.ZyqMZjr0Xl/
 Wavefunction directory         : /Users/sacpjk/wfu/
 Main file repository           : /var/folders/2v/xbgp75_9785319ghcgb4zr4r0000gp/T//molpro.ZyqMZjr0Xl/

 id        : peterk

 Nodes                        nprocs
 Cardiff-University-G34YLXT77Y    1
 GA implementation: MPI file
 GA implementation (serial work in mppx): MPI file

 Using customized tuning parameters: mindgm=1; mindgv=20; mindgc=4; mindgr=1; noblas=0; minvec=7
 default implementation of scratch files=df  


 Variables initialized (1032), CPU time= 0.00 sec
 
 symmetry,nosym
 
 
 geometry={
            4
     C          0.00000000      0.00000000     -0.61465700
     H          0.00000000      0.00000000     -1.67439300
     N          0.00000000      0.00000000      0.54494500
     O          0.00000000      0.00000000      1.74410500
 }
 basis=cc-pVDZ
 
 
 
 hf; mp2
 
 
 
 {put,xml;noorbitals,nobasis}
 Commands initialized (841), CPU time= 0.00 sec, 704 directives.
 Default parameters read. Elapsed time= 1.46 sec

 Checking input...
 Passed
1


                                         ***  PROGRAM SYSTEM MOLPRO  ***
                                       Copyright, TTI GmbH Stuttgart, 2015
                                    Version 2023.1 linked Tue Jun  6 09:54:11 2023


 **********************************************************************************************************************************
 LABEL *                                                                                                                                                                 
  64 bit serial version                                                                  DATE: 10-Jun-23          TIME: 15:05:56  
 **********************************************************************************************************************************

 SHA1:             8ebb0dd001088a5c915591db1a321413035db0b1
 **********************************************************************************************************************************

 Memory per process:       805 MW
 Total memory per node:   1074 MW
 Total GA space:           268 MW

 GA preallocation disabled
 GA check enabled

 Variable memory set to 805.3 MW

 ZSYMEL=NOSYM


 Geometry recognized as XYZ

 SETTING BASIS          =    CC-PVDZ


 Recomputing integrals since basis changed


 Using spherical harmonics

 Library entry C      S cc-pVDZ              selected for orbital group  1
 Library entry C      P cc-pVDZ              selected for orbital group  1
 Library entry C      D cc-pVDZ              selected for orbital group  1
 Library entry H      S cc-pVDZ              selected for orbital group  2
 Library entry H      P cc-pVDZ              selected for orbital group  2
 Library entry N      S cc-pVDZ              selected for orbital group  3
 Library entry N      P cc-pVDZ              selected for orbital group  3
 Library entry N      D cc-pVDZ              selected for orbital group  3
 Library entry O      S cc-pVDZ              selected for orbital group  4
 Library entry O      P cc-pVDZ              selected for orbital group  4
 Library entry O      D cc-pVDZ              selected for orbital group  4


 PROGRAM * SEWARD (Integral evaluation for generally contracted gaussian basis sets)     Author: Roland Lindh, 1990

 Geometry written to block  1 of record 700


 Point group  C1  



 ATOMIC COORDINATES

 NR  ATOM    CHARGE       X              Y              Z

   1  C       6.00    0.000000000    0.000000000   -1.161533391
   2  H       1.00    0.000000000    0.000000000   -3.164144195
   3  N       7.00    0.000000000    0.000000000    1.029796803
   4  O       8.00    0.000000000    0.000000000    3.295880783

 Bond lengths in Bohr (Angstrom)

 1-2  2.002610804  1-3  2.191330194  3-4  2.266083980
     ( 1.059736000)     ( 1.159602000)     ( 1.199160000)

 Bond angles

  1-3-4  179.99999852   2-1-3  179.99999879

 NUCLEAR CHARGE:                   22
 NUMBER OF PRIMITIVE AOS:          88
 NUMBER OF SYMMETRY AOS:           85
 NUMBER OF CONTRACTIONS:           47   (   47A   )
 NUMBER OF INNER CORE ORBITALS:     0   (    0A   )
 NUMBER OF OUTER CORE ORBITALS:     3   (    3A   )
 NUMBER OF VALENCE ORBITALS:       13   (   13A   )


 NUCLEAR REPULSION ENERGY   60.55079965

 EXTRA SYMMETRY OF AOS IN SYMMETRY 1:   1 1 1 2 3 1 2 3 1 1   4 2 5 3 1 1 2 3 1 1   1 1 2 3 1 2 3 1 1 4   2 5 3 1 1 1 2 3 1 2
                                        3 1 1 4 2 5 3

 Eigenvalues of metric

         1 0.490E-02 0.691E-02 0.184E-01 0.218E-01 0.449E-01 0.718E-01 0.783E-01 0.951E-01


 Contracted 2-electron integrals neglected if value below      1.0D-11
 AO integral compression algorithm  1   Integral accuracy      1.0D-11

     1.311 MB (compressed) written to integral file ( 20.0%)


 NUMBER OF SORTED TWO-ELECTRON INTEGRALS:     636756.     BUFFER LENGTH:  32768
 NUMBER OF SEGMENTS:   1  SEGMENT LENGTH:     636756      RECORD LENGTH: 524288

 Memory used in sort:       1.19 MW

 SORT1 READ      821966. AND WROTE      155433. INTEGRALS IN      1 RECORDS. CPU TIME:     0.00 SEC, REAL TIME:     0.01 SEC
 SORT2 READ      155433. AND WROTE      636756. INTEGRALS IN      5 RECORDS. CPU TIME:     0.02 SEC, REAL TIME:     0.02 SEC

 FILE SIZES:   FILE 1:    31.4 MBYTE,  FILE 4:     4.3 MBYTE,   TOTAL:     35.7 MBYTE

 OPERATOR DM      FOR CENTER  0  COORDINATES:    0.000000    0.000000    0.000000


 **********************************************************************************************************************************
 DATASETS  * FILE   NREC   LENGTH (MB)   RECORD NAMES
              1      19       29.57       500      610      700      900      950      970     1000      129      960     1100   
                                          VAR    BASINP    GEOM    SYMINP    ZMAT    AOBASIS   BASIS     P2S    ABASIS      S 
                                         1400     1410     1200     1210     1080     1600     1650     1300     1700   
                                           T        V       H0       H01     AOSYM     SMH    MOLCAS    ERIS     OPER   

 PROGRAMS   *        TOTAL       INT
 CPU TIMES  *         0.25      0.16
 REAL TIME  *         2.59 SEC
 DISK USED  *        34.41 MB
 **********************************************************************************************************************************


 Program * Restricted Hartree-Fock

 Orbital guess generated from atomic densities. Full valence occupancy:   16

 Initial occupancy:  11

 NELEC=   22   SYM=1   MS2= 0   THRE=1.0D-08   THRD=3.2D-06   THRG=3.2D-06  HFMA2=F  DIIS_START=2   DIIS_MAX=10   DIIS_INCORE=F

 Level shifts:    0.00 (CLOSED)    0.00 (OPEN)    0.30 (GAP_MIN)

 ITER           ETOT              DE          GRAD        DDIFF     DIIS  NEXP   TIME(IT)  TIME(TOT)  DIAG
   1     -167.58930943    -167.58930943     0.00D+00     0.18D+00     0     0       0.01      0.01    start
   2     -167.61888950      -0.02958007     0.13D-01     0.26D-01     1     0       0.00      0.01    diag
   3     -167.64314300      -0.02425350     0.91D-02     0.12D-01     2     0       0.00      0.01    diag
   4     -167.64377965      -0.00063665     0.13D-02     0.21D-02     3     0       0.01      0.02    diag
   5     -167.64388097      -0.00010132     0.42D-03     0.10D-02     4     0       0.00      0.02    diag
   6     -167.64391555      -0.00003458     0.29D-03     0.45D-03     5     0       0.00      0.02    diag
   7     -167.64391823      -0.00000267     0.51D-04     0.15D-03     6     0       0.01      0.03    diag
   8     -167.64391833      -0.00000011     0.12D-04     0.33D-04     7     0       0.00      0.03    fixocc
   9     -167.64391833      -0.00000000     0.21D-05     0.57D-05     8     0       0.00      0.03    diag
  10     -167.64391833      -0.00000000     0.19D-06     0.51D-06     9     0       0.01      0.04    diag/orth
  11     -167.64391833      -0.00000000     0.30D-07     0.65D-07     0     0       0.00      0.04    diag

 Final occupancy:  11

 !RHF STATE 1.1 Energy               -167.643918333290
  RHF One-electron energy            -348.170845256820
  RHF Two-electron energy             119.976127273346
  RHF Kinetic energy                  167.435539403623
  RHF Nuclear energy                   60.550799650184
  RHF Virial quotient                  -1.001244532256

 !RHF STATE 1.1 Dipole moment           0.00000000    -0.00000000    -1.61807650
 Dipole moment /Debye                   0.00000000    -0.00000000    -4.11274023

 Orbital energies:

           1.1          2.1          3.1          4.1          5.1          6.1          7.1          8.1          9.1         10.1
    -20.580354   -15.764168   -11.323192    -1.514369    -1.229514    -0.814929    -0.726070    -0.676584    -0.676584    -0.401765

          11.1         12.1         13.1
     -0.401765     0.171064     0.175409


 HOMO     11.1    -0.401765 =     -10.9326eV
 LUMO     12.1     0.171064 =       4.6549eV
 LUMO-HOMO         0.572829 =      15.5875eV

 Orbitals saved in record  2100.2


 **********************************************************************************************************************************
 DATASETS  * FILE   NREC   LENGTH (MB)   RECORD NAMES
              1      19       29.57       500      610      700      900      950      970     1000      129      960     1100   
                                          VAR    BASINP    GEOM    SYMINP    ZMAT    AOBASIS   BASIS     P2S    ABASIS      S 
                                         1400     1410     1200     1210     1080     1600     1650     1300     1700   
                                           T        V       H0       H01     AOSYM     SMH    MOLCAS    ERIS     OPER   

              2       4        0.46       700     1000      520     2100   
                                         GEOM     BASIS   MCVARS     RHF  

 PROGRAMS   *        TOTAL    HF-SCF       INT
 CPU TIMES  *         0.29      0.04      0.16
 REAL TIME  *         2.81 SEC
 DISK USED  *        34.41 MB
 **********************************************************************************************************************************


 PROGRAM * MP2 (Closed-shell)     Authors: C. Hampel, H.-J. Werner, 1991, M. Deegan, P.J. Knowles, 1992


 Convergence thresholds:  THRVAR = 1.00D-08  THRDEN = 1.00D-06

 Number of core orbitals:           3 (   3 )
 Number of closed-shell orbitals:   8 (   8 )
 Number of external orbitals:      36 (  36 )

 Molecular orbitals read from record     2100.2  Type=RHF/CANONICAL  

 Number of N-1 electron functions:               8
 Number of N-2 electron functions:              36
 Number of singly external CSFs:               288
 Number of doubly external CSFs:             41616
 Total number of CSFs:                       41905

 Length of J-op  integral file:               0.00 MB
 Length of K-op  integral file:               0.21 MB

 Integral transformation finished. Total CPU:   0.01 sec, npass=  1  Memory used:   0.23 MW

 Memory needed for MP2:                      0.01 MW

 SCS-MP2 correlation energy:           -0.472347171572   (PS=  1.200000  PT=  0.333333)
 SCS-MP2 total energy:               -168.116265504862


  Reference energy                   -167.643918333290
  MP2 singlet pair energy              -0.288339481465
  MP2 triplet pair energy              -0.203046097201
  MP2 correlation energy               -0.491385578666

 !MP2 total energy                   -168.135303911956


 **********************************************************************************************************************************
 DATASETS  * FILE   NREC   LENGTH (MB)   RECORD NAMES
              1      20       30.52       500      610      700      900      950      970     1000      129      960     1100   
                                          VAR    BASINP    GEOM    SYMINP    ZMAT    AOBASIS   BASIS     P2S    ABASIS      S 
                                         1400     1410     1200     1210     1080     1600     1650     1300     1700     1380   
                                           T        V       H0       H01     AOSYM     SMH    MOLCAS    ERIS     OPER     JKOP   

              2       4        0.46       700     1000      520     2100   
                                         GEOM     BASIS   MCVARS     RHF  

 PROGRAMS   *        TOTAL       MP2    HF-SCF       INT
 CPU TIMES  *         0.33      0.04      0.04      0.16
 REAL TIME  *         3.18 SEC
 DISK USED  *        34.41 MB
 **********************************************************************************************************************************

 Dump information in style XML to xml output                                                                      

 Orbitals will not be exported.

 **********************************************************************************************************************************

 MP2/cc-pVDZ energy=   -168.135303911956

             MP2          HF-SCF
   -168.13530391   -167.64391833
 **********************************************************************************************************************************
 Molpro calculation terminated
