
 Working directory              : /var/folders/2v/xbgp75_9785319ghcgb4zr4r0000gp/T//molpro.2tkjLsQq0p/
 Global scratch directory       : /var/folders/2v/xbgp75_9785319ghcgb4zr4r0000gp/T//molpro.2tkjLsQq0p/
 Wavefunction directory         : /Users/sacpjk/wfu/
 Main file repository           : /var/folders/2v/xbgp75_9785319ghcgb4zr4r0000gp/T//molpro.2tkjLsQq0p/

 id        : peterk

 Nodes                        nprocs
 Cardiff-University-G34YLXT77Y    1
 GA implementation: MPI file
 GA implementation (serial work in mppx): MPI file

 Using customized tuning parameters: mindgm=1; mindgv=20; mindgc=4; mindgr=1; noblas=0; minvec=7
 default implementation of scratch files=df  


 Variables initialized (1032), CPU time= 0.01 sec
 
 symmetry,nosym
 
 
 geometry={
 8
  c         -0.599179283624   -0.073947245371   -2.181549262247
  h         -1.661184757513   -0.073903693025   -2.187469867169
  c          0.612659846218   -0.074040771100   -2.178320389897
  h          1.674686116244   -0.074170208913   -2.178516658034
  c         -0.004809305818    0.054960260919    1.576327718762
  h         -0.001414925875    0.021225208683    0.513030837012
  c         -0.008745728896    0.093250284111    2.787793101879
  h         -0.012011960631    0.126626164698    3.848704519799
 }
 basis=aug-cc-pVTZ
 
 
 
 hf; ccsd(t)
 
 
 
 {put,xml;noorbitals,nobasis}
 Commands initialized (841), CPU time= 0.00 sec, 704 directives.
 Default parameters read. Elapsed time= 3.76 sec

 Checking input...
 Passed
1


                                         ***  PROGRAM SYSTEM MOLPRO  ***
                                       Copyright, TTI GmbH Stuttgart, 2015
                                    Version 2023.1 linked Tue Jun  6 09:54:11 2023


 **********************************************************************************************************************************
 LABEL *                                                                                                                                                                 
  64 bit serial version                                                                  DATE: 09-Jun-23          TIME: 02:24:43  
 **********************************************************************************************************************************

 SHA1:             8ebb0dd001088a5c915591db1a321413035db0b1
 **********************************************************************************************************************************

 Memory per process:       805 MW
 Total memory per node:   1074 MW
 Total GA space:           268 MW

 GA preallocation disabled
 GA check enabled

 Variable memory set to 805.3 MW

 ZSYMEL=NOSYM


 Geometry recognized as XYZ

 SETTING BASIS          =    AUG-CC-PVTZ


 Recomputing integrals since basis changed


 Using spherical harmonics

 Library entry C      S aug-cc-pVTZ          selected for orbital group  1
 Library entry C      P aug-cc-pVTZ          selected for orbital group  1
 Library entry C      D aug-cc-pVTZ          selected for orbital group  1
 Library entry C      F aug-cc-pVTZ          selected for orbital group  1
 Library entry H      S aug-cc-pVTZ          selected for orbital group  2
 Library entry H      P aug-cc-pVTZ          selected for orbital group  2
 Library entry H      D aug-cc-pVTZ          selected for orbital group  2


 PROGRAM * SEWARD (Integral evaluation for generally contracted gaussian basis sets)     Author: Roland Lindh, 1990

 Geometry written to block  1 of record 700


 Point group  C1  



 ATOMIC COORDINATES

 NR  ATOM    CHARGE       X              Y              Z

   1  C       6.00   -1.132284746   -0.139740041   -4.122530633
   2  H       1.00   -3.139184234   -0.139657739   -4.133718955
   3  C       6.00    1.157759317   -0.139916779   -4.116428949
   4  H       1.00    3.164698104   -0.140161381   -4.116799842
   5  C       6.00   -0.009088271    0.103859841    2.978827671
   6  H       1.00   -0.002673822    0.040109831    0.969487775
   7  C       6.00   -0.016527032    0.176217498    5.268165455
   8  H       1.00   -0.022699316    0.239288771    7.272997477

 Bond lengths in Bohr (Angstrom)

 1-2  2.006930677  1-3  2.290052198  3-4  2.006938837  5-6  2.010361168  5-7  2.290493059
     ( 1.062021978)     ( 1.211843435)     ( 1.062026296)     ( 1.063837316)     ( 1.212076729)

 7-8  2.005833373
     ( 1.061441310)

 Bond angles

  1-3-4  179.83673055   2-1-3  179.83323133   5-7-8  179.98711663   6-5-7  179.99237077

 NUCLEAR CHARGE:                   28
 NUMBER OF PRIMITIVE AOS:         376
 NUMBER OF SYMMETRY AOS:          332
 NUMBER OF CONTRACTIONS:          276   (  276A   )
 NUMBER OF INNER CORE ORBITALS:     0   (    0A   )
 NUMBER OF OUTER CORE ORBITALS:     4   (    4A   )
 NUMBER OF VALENCE ORBITALS:       20   (   20A   )


 NUCLEAR REPULSION ENERGY   73.51391653


 Eigenvalues of metric

         1 0.543E-05 0.799E-05 0.801E-05 0.126E-04 0.258E-04 0.681E-04 0.947E-04 0.981E-04


 Contracted 2-electron integrals neglected if value below      1.0D-12
 AO integral compression algorithm  1   Integral accuracy      1.0D-12

     2657.092 MB (compressed) written to integral file ( 40.2%)


 NUMBER OF SORTED TWO-ELECTRON INTEGRALS:  730632651.     BUFFER LENGTH:  32768
 NUMBER OF SEGMENTS:  46  SEGMENT LENGTH:   15999984      RECORD LENGTH: 262144

 Memory used in sort:      16.29 MW

 SORT1 READ   826065247. AND WROTE   615124118. INTEGRALS IN   3541 RECORDS. CPU TIME:     5.83 SEC, REAL TIME:     8.37 SEC
 SORT2 READ   615124118. AND WROTE   730632651. INTEGRALS IN  10136 RECORDS. CPU TIME:     4.22 SEC, REAL TIME:     5.42 SEC

 FILE SIZES:   FILE 1:  2690.0 MBYTE,  FILE 4:  7426.1 MBYTE,   TOTAL:  10116.1 MBYTE

 OPERATOR DM      FOR CENTER  0  COORDINATES:    0.000000    0.000000    0.000000


 **********************************************************************************************************************************
 DATASETS  * FILE   NREC   LENGTH (MB)   RECORD NAMES
              1      19     2260.40       500      610      700      900      950      970     1000      129      960     1100   
                                          VAR    BASINP    GEOM    SYMINP    ZMAT    AOBASIS   BASIS     P2S    ABASIS      S 
                                         1400     1410     1200     1210     1080     1600     1650     1300     1700   
                                           T        V       H0       H01     AOSYM     SMH    MOLCAS    ERIS     OPER   

 PROGRAMS   *        TOTAL       INT
 CPU TIMES  *        23.98     23.89
 REAL TIME  *        40.25 SEC
 DISK USED  *         9.42 GB
 **********************************************************************************************************************************


 Program * Restricted Hartree-Fock

 Orbital guess generated from atomic densities. Full valence occupancy:   24

 Initial occupancy:  14

 NELEC=   28   SYM=1   MS2= 0   THRE=1.0D-08   THRD=3.2D-06   THRG=3.2D-06  HFMA2=F  DIIS_START=2   DIIS_MAX=10   DIIS_INCORE=F

 Level shifts:    0.00 (CLOSED)    0.00 (OPEN)    0.30 (GAP_MIN)

 ITER           ETOT              DE          GRAD        DDIFF     DIIS  NEXP   TIME(IT)  TIME(TOT)  DIAG
   1     -153.66938885    -153.66938885     0.00D+00     0.40D-01     0     0       3.28      6.37    start
   2     -153.69644791      -0.02705906     0.27D-02     0.61D-02     1     0       3.49      9.86    diag
   3     -153.69890324      -0.00245533     0.80D-03     0.11D-02     2     0       3.53     13.39    diag
   4     -153.69916526      -0.00026202     0.18D-03     0.45D-03     3     0       3.32     16.71    diag
   5     -153.69917768      -0.00001243     0.45D-04     0.84D-04     4     0       3.38     20.09    diag
   6     -153.69917952      -0.00000184     0.20D-04     0.22D-04     5     0       3.44     23.53    diag
   7     -153.69917968      -0.00000016     0.46D-05     0.90D-05     6     0       3.46     26.99    diag
   8     -153.69917968      -0.00000000     0.59D-06     0.21D-05     7     0       3.56     30.55    fixocc
   9     -153.69917968      -0.00000000     0.20D-06     0.30D-06     0     0       3.75     34.30    diag

 Final occupancy:  14

 !RHF STATE 1.1 Energy               -153.699179684693
  RHF One-electron energy            -351.241300741079
  RHF Two-electron energy             124.028204530238
  RHF Kinetic energy                  153.290820578166
  RHF Nuclear energy                   73.513916526148
  RHF Virial quotient                  -1.002663950163

 !RHF STATE 1.1 Dipole moment           0.00050895    -0.00499793    -0.14032674
 Dipole moment /Debye                   0.00129361    -0.01270348    -0.35667499

 Orbital energies:

           1.1          2.1          3.1          4.1          5.1          6.1          7.1          8.1          9.1         10.1
    -11.256566   -11.252955   -11.238729   -11.235064    -1.039345    -1.021035    -0.778662    -0.761422    -0.690787    -0.673597

          11.1         12.1         13.1         14.1         15.1         16.1
     -0.420782    -0.419451    -0.402173    -0.401878     0.028707     0.032427


 HOMO     14.1    -0.401878 =     -10.9357eV
 LUMO     15.1     0.028707 =       0.7812eV
 LUMO-HOMO         0.430586 =      11.7168eV

 Orbitals saved in record  2100.2


 **********************************************************************************************************************************
 DATASETS  * FILE   NREC   LENGTH (MB)   RECORD NAMES
              1      19     2260.40       500      610      700      900      950      970     1000      129      960     1100   
                                          VAR    BASINP    GEOM    SYMINP    ZMAT    AOBASIS   BASIS     P2S    ABASIS      S 
                                         1400     1410     1200     1210     1080     1600     1650     1300     1700   
                                           T        V       H0       H01     AOSYM     SMH    MOLCAS    ERIS     OPER   

              2       4        1.70       700     1000      520     2100   
                                         GEOM     BASIS   MCVARS     RHF  

 PROGRAMS   *        TOTAL    HF-SCF       INT
 CPU TIMES  *        58.28     34.30     23.89
 REAL TIME  *        80.53 SEC
 DISK USED  *         9.42 GB
 **********************************************************************************************************************************


 PROGRAM * CCSD (Closed-shell coupled cluster)     Authors: C. Hampel, H.-J. Werner, 1991, M. Deegan, P.J. Knowles, 1992


 Convergence thresholds:  THRVAR = 1.00D-08  THRDEN = 1.00D-06

 CCSD(T)     terms to be evaluated (factor= 1.000)


 Number of core orbitals:           4 (   4 )
 Number of closed-shell orbitals:  10 (  10 )
 Number of external orbitals:     262 ( 262 )

 Molecular orbitals read from record     2100.2  Type=RHF/CANONICAL  

 Number of N-1 electron functions:              10
 Number of N-2 electron functions:              55
 Number of singly external CSFs:              2620
 Number of doubly external CSFs:           3433510
 Total number of CSFs:                     3436131

 Length of J-op  integral file:               0.00 MB
 Length of K-op  integral file:               5.29 MB
 Length of 3-ext integral record:             0.00 MB

 Memory could be reduced to 234.18 Mwords without degradation in triples

 Integral transformation finished. Total CPU:  15.93 sec, npass=  1  Memory used: 124.72 MW

 Reference energy:                   -153.69917968

 MP2 singlet pair energy:              -0.41279036
 MP2 triplet pair energy:              -0.21924046
 MP2 correlation energy:               -0.63203082
 MP2 total energy:                   -154.33121050

 SCS-MP2 correlation energy:           -0.63176472   (PS=  1.200000  PT=  0.333333)
 SCS-MP2 total energy:               -154.33094440

 ITER.      SQ.NORM     CORR.ENERGY   TOTAL ENERGY   ENERGY CHANGE        DEN1      VAR(S)    VAR(P)  DIIS     TIME  TIME/IT
   1      1.24144134    -0.65016840  -154.34934808    -0.01813758     0.00209999  0.38D-02  0.47D-02  1  1    88.76    16.00
   2      1.26006628    -0.65277281  -154.35195250    -0.00260441    -0.01703214  0.74D-04  0.79D-03  2  2   102.97    16.22
   3      1.27014321    -0.65331123  -154.35249091    -0.00053842    -0.00486378  0.23D-04  0.93D-04  3  3   117.29    16.23
   4      1.27466362    -0.65353341  -154.35271309    -0.00022218    -0.00143401  0.81D-06  0.96D-05  4  4   132.48    16.51
   5      1.27574100    -0.65354535  -154.35272503    -0.00001194    -0.00024826  0.12D-06  0.69D-06  5  5   147.42    16.56
   6      1.27591013    -0.65354548  -154.35272517    -0.00000014    -0.00003785  0.10D-07  0.52D-07  6  6   163.32    16.80
   7      1.27592674    -0.65354764  -154.35272732    -0.00000216    -0.00000296  0.19D-08  0.58D-08  6  1   180.32    17.15
   8      1.27592735    -0.65354847  -154.35272816    -0.00000084     0.00000152  0.16D-09  0.51D-09  6  2   195.84    17.18
   9      1.27592870    -0.65354857  -154.35272826    -0.00000010    -0.00000059  0.33D-10  0.43D-10  6  3   210.54    17.11

 Norm of t1 vector:      0.08237253      S-energy:     0.00000024      T1 diagnostic:  0.01302424
                                                                       D1 diagnostic:  0.02830461
                                                                       D2 diagnostic:  0.18375857 (internal)

 Doubles amplitudes (print threshold =  0.500E-01):

         I         J         SYM. A    SYM. B    A         B      T(IJ, AB)

         8         8         1         1        20        20     -0.06349728
        10        10         1         1        21        21     -0.06016735


 Total CPU time for triples:    261.14 sec


 RESULTS
 =======

  Reference energy                   -153.699179684693
  CCSD singlet pair energy             -0.464976600909
  CCSD triplet pair energy             -0.188572213477
  CCSD correlation energy              -0.653548570802

  Triples (T) contribution             -0.034499902496
  Total correlation energy             -0.688048473297

  CCSD total energy                  -154.352728255494
  CCSD[T] energy                     -154.388421219922
  CCSD-T energy                      -154.386632733220
 !CCSD(T) total energy               -154.387228157990

 Timing summary (sec):

 STEP                 CPU(USER)    SYS     CPU(TOT)    WALL
 Transformation         16.14      2.20     18.34     19.85
 CCSD iterations       194.51      7.95    202.46    154.57
 Triples               261.14      8.47    269.61    288.48

 Program statistics:

 Available memory in ccsd:               805305954
 Min. memory needed in ccsd:               9354231
 Max. memory used in ccsd:                12370511
 Max. memory used in cckext:               9006248 ( 9 integral passes)



 **********************************************************************************************************************************
 DATASETS  * FILE   NREC   LENGTH (MB)   RECORD NAMES
              1      20     2998.25       500      610      700      900      950      970     1000      129      960     1100   
                                          VAR    BASINP    GEOM    SYMINP    ZMAT    AOBASIS   BASIS     P2S    ABASIS      S 
                                         1400     1410     1200     1210     1080     1600     1650     1300     1700     1380   
                                           T        V       H0       H01     AOSYM     SMH    MOLCAS    ERIS     OPER     JKOP   

              2       4        1.70       700     1000      520     2100   
                                         GEOM     BASIS   MCVARS     RHF  

 PROGRAMS   *        TOTAL   CCSD(T)    HF-SCF       INT
 CPU TIMES  *       471.62    413.34     34.30     23.89
 REAL TIME  *       544.77 SEC
 DISK USED  *         9.42 GB
 **********************************************************************************************************************************

 Dump information in style XML to xml output                                                                      

 Orbitals will not be exported.

 **********************************************************************************************************************************

 CCSD(T)/aug-cc-pVTZ energy=   -154.387228157990

         CCSD(T)          HF-SCF
   -154.38722816   -153.69917968
 **********************************************************************************************************************************
 Molpro calculation terminated
