
 Working directory              : /var/folders/2v/xbgp75_9785319ghcgb4zr4r0000gp/T//molpro.r8JI5onack/
 Global scratch directory       : /var/folders/2v/xbgp75_9785319ghcgb4zr4r0000gp/T//molpro.r8JI5onack/
 Wavefunction directory         : /Users/sacpjk/wfu/
 Main file repository           : /var/folders/2v/xbgp75_9785319ghcgb4zr4r0000gp/T//molpro.r8JI5onack/

 id        : peterk

 Nodes                        nprocs
 Cardiff-University-G34YLXT77Y    1
 GA implementation: MPI file
 GA implementation (serial work in mppx): MPI file

 Using customized tuning parameters: mindgm=1; mindgv=20; mindgc=4; mindgr=1; noblas=0; minvec=7
 default implementation of scratch files=df  


 Variables initialized (1032), CPU time= 0.00 sec
 
 symmetry,nosym
 
 
 geometry={
           10
     C          0.85850831      0.85149922     -0.05406558
     C          0.85665794     -0.53234843     -0.02148388
     N         -1.21895564     -0.93022557     -0.12349726
     N         -1.66704575      0.25593414     -0.01212111
     N         -1.21073866      1.33091420     -0.05063028
     H          1.03972910      1.42014742      0.84839247
     H          1.04072512      1.37132654     -0.98626823
     H          1.02509073     -1.05697875      0.91129082
     H          1.04207243     -1.10394180     -0.92050185
     H         -1.76604359     -1.60632696      0.40888490
 }
 basis=cc-pVTZ
 
 
 
 hf; mp4
 
 
 
 {put,xml;noorbitals,nobasis}
 Commands initialized (841), CPU time= 0.01 sec, 704 directives.
 Default parameters read. Elapsed time= 3.33 sec

 Checking input...
 Passed
1


                                         ***  PROGRAM SYSTEM MOLPRO  ***
                                       Copyright, TTI GmbH Stuttgart, 2015
                                    Version 2023.1 linked Tue Jun  6 09:54:11 2023


 **********************************************************************************************************************************
 LABEL *                                                                                                                                                                 
  64 bit serial version                                                                  DATE: 10-Jun-23          TIME: 21:20:36  
 **********************************************************************************************************************************

 SHA1:             8ebb0dd001088a5c915591db1a321413035db0b1
 **********************************************************************************************************************************

 Memory per process:       805 MW
 Total memory per node:   1074 MW
 Total GA space:           268 MW

 GA preallocation disabled
 GA check enabled

 Variable memory set to 805.3 MW

 ZSYMEL=NOSYM


 Geometry recognized as XYZ

 SETTING BASIS          =    CC-PVTZ


 Recomputing integrals since basis changed


 Using spherical harmonics

 Library entry C      S cc-pVTZ              selected for orbital group  1
 Library entry C      P cc-pVTZ              selected for orbital group  1
 Library entry C      D cc-pVTZ              selected for orbital group  1
 Library entry C      F cc-pVTZ              selected for orbital group  1
 Library entry N      S cc-pVTZ              selected for orbital group  2
 Library entry N      P cc-pVTZ              selected for orbital group  2
 Library entry N      D cc-pVTZ              selected for orbital group  2
 Library entry N      F cc-pVTZ              selected for orbital group  2
 Library entry H      S cc-pVTZ              selected for orbital group  3
 Library entry H      P cc-pVTZ              selected for orbital group  3
 Library entry H      D cc-pVTZ              selected for orbital group  3


 PROGRAM * SEWARD (Integral evaluation for generally contracted gaussian basis sets)     Author: Roland Lindh, 1990

 Geometry written to block  1 of record 700


 Point group  C1  



 ATOMIC COORDINATES

 NR  ATOM    CHARGE       X              Y              Z

   1  C       6.00    1.622345582    1.609100321   -0.102169139
   2  C       6.00    1.618848889   -1.005992736   -0.040598649
   3  N       7.00   -2.303492318   -1.757871561   -0.233375999
   4  N       7.00   -3.150259905    0.483645431   -0.022905578
   5  N       7.00   -2.287964476    2.515063333   -0.095677363
   6  H       1.00    1.964803243    2.683689680    1.603229414
   7  H       1.00    1.966685448    2.591431588   -1.863776840
   8  H       1.00    1.937140733   -1.997400357    1.722090070
   9  H       1.00    1.969231495   -2.086147660   -1.739496394
  10  H       1.00   -3.337338709   -3.035518021    0.772680477

 Bond lengths in Bohr (Angstrom)

 1-2  2.615820110  1-6  2.044603572  1-7  2.046168701  2-8  2.047259214  2-9  2.043466705
     ( 1.384232390)     ( 1.081957616)     ( 1.082785846)     ( 1.083362921)     ( 1.081356012)

  3- 4  2.405350613   3-10  1.927010241   4- 5  2.208055216
       ( 1.272856728)       ( 1.019729905)       ( 1.168452501)

 Bond angles

  1-2-8  120.27723040   1-2-9  120.57358320   2-1-6  120.39898618   2-1-7  120.02905381

  3- 4- 5  135.80557119   4- 3-10  112.53886041   6- 1- 7  115.95045011   8- 2- 9  115.66982947

 NUCLEAR CHARGE:                   38
 NUMBER OF PRIMITIVE AOS:         320
 NUMBER OF SYMMETRY AOS:          290
 NUMBER OF CONTRACTIONS:          220   (  220A   )
 NUMBER OF INNER CORE ORBITALS:     0   (    0A   )
 NUMBER OF OUTER CORE ORBITALS:     5   (    5A   )
 NUMBER OF VALENCE ORBITALS:       25   (   25A   )


 NUCLEAR REPULSION ENERGY  165.41972089


 Eigenvalues of metric

         1 0.389E-03 0.845E-03 0.909E-03 0.109E-02 0.138E-02 0.145E-02 0.170E-02 0.176E-02


 Contracted 2-electron integrals neglected if value below      1.0D-11
 AO integral compression algorithm  1   Integral accuracy      1.0D-11

     1119.617 MB (compressed) written to integral file ( 43.5%)


 NUMBER OF SORTED TWO-ELECTRON INTEGRALS:  295500205.     BUFFER LENGTH:  32768
 NUMBER OF SEGMENTS:  19  SEGMENT LENGTH:   15999762      RECORD LENGTH: 524288

 Memory used in sort:      16.56 MW

 SORT1 READ   321505885. AND WROTE   274825275. INTEGRALS IN    796 RECORDS. CPU TIME:     2.19 SEC, REAL TIME:     2.88 SEC
 SORT2 READ   274825275. AND WROTE   295500205. INTEGRALS IN   4271 RECORDS. CPU TIME:     1.72 SEC, REAL TIME:     2.27 SEC

 FILE SIZES:   FILE 1:  1151.6 MBYTE,  FILE 4:  3338.7 MBYTE,   TOTAL:   4490.3 MBYTE

 OPERATOR DM      FOR CENTER  0  COORDINATES:    0.000000    0.000000    0.000000


 **********************************************************************************************************************************
 DATASETS  * FILE   NREC   LENGTH (MB)   RECORD NAMES
              1      19     1007.33       500      610      700      900      950      970     1000      129      960     1100   
                                          VAR    BASINP    GEOM    SYMINP    ZMAT    AOBASIS   BASIS     P2S    ABASIS      S 
                                         1400     1410     1200     1210     1080     1600     1650     1300     1700   
                                           T        V       H0       H01     AOSYM     SMH    MOLCAS    ERIS     OPER   

 PROGRAMS   *        TOTAL       INT
 CPU TIMES  *        10.47     10.36
 REAL TIME  *        19.92 SEC
 DISK USED  *         4.18 GB
 **********************************************************************************************************************************


 Program * Restricted Hartree-Fock

 Orbital guess generated from atomic densities. Full valence occupancy:   30

 Initial occupancy:  19

 NELEC=   38   SYM=1   MS2= 0   THRE=1.0D-08   THRD=3.2D-06   THRG=3.2D-06  HFMA2=F  DIIS_START=2   DIIS_MAX=10   DIIS_INCORE=F

 Level shifts:    0.00 (CLOSED)    0.00 (OPEN)    0.30 (GAP_MIN)

 ITER           ETOT              DE          GRAD        DDIFF     DIIS  NEXP   TIME(IT)  TIME(TOT)  DIAG
   1     -241.79631463    -241.79631463     0.00D+00     0.52D-01     0     0       1.24      2.41    start
   2     -241.84684775      -0.05053312     0.47D-02     0.68D-02     1     0       1.26      3.67    diag
   3     -241.89265856      -0.04581081     0.39D-02     0.31D-02     2     0       1.25      4.92    diag
   4     -241.89492928      -0.00227072     0.64D-03     0.89D-03     3     0       1.28      6.20    diag
   5     -241.89573000      -0.00080072     0.42D-03     0.42D-03     4     0       1.26      7.46    diag
   6     -241.89592677      -0.00019677     0.12D-03     0.21D-03     5     0       1.35      8.81    diag
   7     -241.89600247      -0.00007570     0.69D-04     0.14D-03     6     0       1.29     10.10    diag
   8     -241.89603275      -0.00003029     0.36D-04     0.99D-04     7     0       1.40     11.50    fixocc
   9     -241.89604262      -0.00000987     0.17D-04     0.67D-04     8     0       1.31     12.81    diag
  10     -241.89604436      -0.00000173     0.78D-05     0.28D-04     9     0       1.32     14.13    diag/orth
  11     -241.89604467      -0.00000031     0.32D-05     0.12D-04     9     0       1.37     15.50    diag
  12     -241.89604472      -0.00000006     0.15D-05     0.51D-05     9     0       1.51     17.01    diag
  13     -241.89604474      -0.00000001     0.71D-06     0.23D-05     9     0       1.49     18.50    diag
  14     -241.89604474      -0.00000000     0.36D-06     0.11D-05     9     0       1.31     19.81    diag
  15     -241.89604474      -0.00000000     0.19D-06     0.31D-06     0     0       1.50     21.31    diag

 Final occupancy:  19

 !RHF STATE 1.1 Energy               -241.896044738876
  RHF One-electron energy            -655.287639092028
  RHF Two-electron energy             247.971873458731
  RHF Kinetic energy                  241.446807291521
  RHF Nuclear energy                  165.419720894421
  RHF Virial quotient                  -1.001860606286

 !RHF STATE 1.1 Dipole moment           0.13845190    -0.66157421     0.36536699
 Dipole moment /Debye                   0.35190962    -1.68155392     0.92867025

 Orbital energies:

           1.1          2.1          3.1          4.1          5.1          6.1          7.1          8.1          9.1         10.1
    -15.714583   -15.655839   -15.604500   -11.260043   -11.227642    -1.458203    -1.212980    -1.034226    -0.811437    -0.805974

          11.1         12.1         13.1         14.1         15.1         16.1         17.1         18.1         19.1         20.1
     -0.702070    -0.661345    -0.635685    -0.620502    -0.580238    -0.517290    -0.448444    -0.384200    -0.336730     0.098101

          21.1
      0.141878


 HOMO     19.1    -0.336730 =      -9.1629eV
 LUMO     20.1     0.098101 =       2.6695eV
 LUMO-HOMO         0.434831 =      11.8324eV

 Orbitals saved in record  2100.2


 **********************************************************************************************************************************
 DATASETS  * FILE   NREC   LENGTH (MB)   RECORD NAMES
              1      19     1007.33       500      610      700      900      950      970     1000      129      960     1100   
                                          VAR    BASINP    GEOM    SYMINP    ZMAT    AOBASIS   BASIS     P2S    ABASIS      S 
                                         1400     1410     1200     1210     1080     1600     1650     1300     1700   
                                           T        V       H0       H01     AOSYM     SMH    MOLCAS    ERIS     OPER   

              2       4        1.30       700     1000      520     2100   
                                         GEOM     BASIS   MCVARS     RHF  

 PROGRAMS   *        TOTAL    HF-SCF       INT
 CPU TIMES  *        31.78     21.31     10.36
 REAL TIME  *        49.81 SEC
 DISK USED  *         4.18 GB
 **********************************************************************************************************************************


 PROGRAM * MP4 (Closed-shell)     Authors: C. Hampel, H.-J. Werner, 1991, M. Deegan, P.J. Knowles, 1992


 Convergence thresholds:  THRVAR = 1.00D-08  THRDEN = 1.00D-06

 MP4(T)     terms to be evaluated (factor= 0.000)


 Number of core orbitals:           5 (   5 )
 Number of closed-shell orbitals:  14 (  14 )
 Number of external orbitals:     201 ( 201 )

 Molecular orbitals read from record     2100.2  Type=RHF/CANONICAL  

 Number of N-1 electron functions:              14
 Number of N-2 electron functions:             105
 Number of singly external CSFs:              2814
 Number of doubly external CSFs:           3960705
 Total number of CSFs:                     3963520

 Length of J-op  integral file:               0.00 MB
 Length of K-op  integral file:               3.39 MB

 Memory could be reduced to 144.12 Mwords without degradation in triples

 Integral transformation finished. Total CPU:   8.49 sec, npass=  1  Memory used:  89.66 MW

 Reference energy:                   -241.89604474

                        CORR.ENERGY   TOTAL ENERGY   ENERGY CHANGE
 MP2:                   -0.99513558  -242.89118032    -0.99513558

 SCS-MP2 correlation energy:           -0.97255986   (PS=  1.200000  PT=  0.333333)
 SCS-MP2 total energy:               -242.86860460

 MP3(D):                -0.98089353  -242.87693827     0.01424205
 MP4(DQ):               -0.97820200  -242.87424674     0.00269153
 MP4(SDQ):              -0.99357205  -242.88961679    -0.01537005

 Norm of t1 vector:      0.11505159      S-energy:    -0.01537005      T1 diagnostic:  0.01537442


 Total CPU time for triples:    307.69 sec


 RESULTS
 =======

  Reference energy                   -241.896044738876
  MP4(SDQ) singlet pair energy         -0.640923003133
  MP4(SDQ) triplet pair energy         -0.337278993356
  MP4(SDQ) correlation energy          -0.993572048694

  Triples contribution                 -0.072704128053
  Total correlation energy             -1.066276176748

  MP4(SDQ) total energy              -242.889616787570
 !MP4(SDTQ) total energy             -242.962320915624

 Timing summary (sec):

 STEP                 CPU(USER)    SYS     CPU(TOT)    WALL
 Transformation          8.72      0.97      9.69     11.40
 CCSD iterations        47.47      0.49     47.96     19.59
 Triples               307.69     10.50    318.19    421.94

 Program statistics:

 Available memory in ccsd:               805305565
 Min. memory needed in ccsd:              10036078
 Max. memory used in ccsd:                13603397
 Max. memory used in cckext:              10638777 ( 1 integral passes)



 **********************************************************************************************************************************
 DATASETS  * FILE   NREC   LENGTH (MB)   RECORD NAMES
              1      20     1502.16       500      610      700      900      950      970     1000      129      960     1100   
                                          VAR    BASINP    GEOM    SYMINP    ZMAT    AOBASIS   BASIS     P2S    ABASIS      S 
                                         1400     1410     1200     1210     1080     1600     1650     1300     1700     1380   
                                           T        V       H0       H01     AOSYM     SMH    MOLCAS    ERIS     OPER     JKOP   

              2       4        1.30       700     1000      520     2100   
                                         GEOM     BASIS   MCVARS     RHF  

 PROGRAMS   *        TOTAL       MP4    HF-SCF       INT
 CPU TIMES  *       363.74    331.96     21.31     10.36
 REAL TIME  *       504.52 SEC
 DISK USED  *         4.18 GB
 **********************************************************************************************************************************

 Dump information in style XML to xml output                                                                      

 Orbitals will not be exported.

 **********************************************************************************************************************************

 MP4/cc-pVTZ energy=   -242.962320915624

             MP4          HF-SCF
   -242.96232092   -241.89604474
 **********************************************************************************************************************************
 Molpro calculation terminated
