
 Working directory              : /var/folders/2v/xbgp75_9785319ghcgb4zr4r0000gp/T//molpro.kFMqHDdAnU/
 Global scratch directory       : /var/folders/2v/xbgp75_9785319ghcgb4zr4r0000gp/T//molpro.kFMqHDdAnU/
 Wavefunction directory         : /Users/sacpjk/wfu/
 Main file repository           : /var/folders/2v/xbgp75_9785319ghcgb4zr4r0000gp/T//molpro.kFMqHDdAnU/

 id        : peterk

 Nodes                        nprocs
 Cardiff-University-G34YLXT77Y    1
 GA implementation: MPI file
 GA implementation (serial work in mppx): MPI file

 Using customized tuning parameters: mindgm=1; mindgv=20; mindgc=4; mindgr=1; noblas=0; minvec=7
 default implementation of scratch files=df  


 Variables initialized (1037), CPU time= 0.01 sec
 
 symmetry,nosym
 
 
 geometry={
 3
  o         -0.393279494201    0.003953021781    0.000000000000
  h          0.189026010864   -0.758658480198    0.000000000000
  h          0.204253483337    0.754705458417    0.000000000000
 }
 basis=aug-cc-pVDZ
 
 
 
 hf; ccsd
 
 
 
 {put,xml;noorbitals,nobasis}
 Commands initialized (841), CPU time= 0.00 sec, 716 directives.
 Default parameters read. Elapsed time= 0.78 sec

 Checking input...
 Passed
1


                                         ***  PROGRAM SYSTEM MOLPRO  ***
                                       Copyright, TTI GmbH Stuttgart, 2015
                                    Version 2023.1 linked Fri Jul 14 07:57:55 2023


 **********************************************************************************************************************************
 LABEL *                                                                                                                                                                 
  64 bit serial version                                                                  DATE: 15-Jul-23          TIME: 16:42:59  
 **********************************************************************************************************************************

 SHA1:             8f90ea6339eadc8ec4622dc21e4296b0c92029f5
 **********************************************************************************************************************************

 Memory per process:      1573 MW
 Total memory per node:   2097 MW
 Total GA space:           524 MW

 GA preallocation disabled
 GA check enabled

 Variable memory set to 1572.9 MW

 ZSYMEL=NOSYM


 Geometry recognized as XYZ

 SETTING BASIS          =    AUG-CC-PVDZ


 Recomputing integrals since basis changed


 Using spherical harmonics

 Library entry O      S aug-cc-pVDZ          selected for orbital group  1
 Library entry O      P aug-cc-pVDZ          selected for orbital group  1
 Library entry O      D aug-cc-pVDZ          selected for orbital group  1
 Library entry H      S aug-cc-pVDZ          selected for orbital group  2
 Library entry H      P aug-cc-pVDZ          selected for orbital group  2


 PROGRAM * SEWARD (Integral evaluation for generally contracted gaussian basis sets)     Author: Roland Lindh, 1990

 Geometry written to block  1 of record 700


 Point group  C1  



 ATOMIC COORDINATES

 NR  ATOM    CHARGE       X              Y              Z

   1  O       8.00   -0.743190534    0.007470129    0.000000000
   2  H       1.00    0.357207391   -1.433656750    0.000000000
   3  H       1.00    0.385983144    1.426186621    0.000000000

 Bond lengths in Bohr (Angstrom)

 1-2  1.813207730  1-3  1.813226318
     ( 0.959508210)     ( 0.959518046)

 Bond angles

  2-1-3  104.11910812

 NUCLEAR CHARGE:                   10
 NUMBER OF PRIMITIVE AOS:          59
 NUMBER OF SYMMETRY AOS:           57
 NUMBER OF CONTRACTIONS:           41   (   41A   )
 NUMBER OF INNER CORE ORBITALS:     0   (    0A   )
 NUMBER OF OUTER CORE ORBITALS:     1   (    1A   )
 NUMBER OF VALENCE ORBITALS:        6   (    6A   )


 NUCLEAR REPULSION ENERGY    9.17374720

 EXTRA SYMMETRY OF AOS IN SYMMETRY 1:   1 1 1 1 1 1 2 1 1 2   1 1 2 1 1 2 1 2 1 1   2 1 2 1 1 1 1 1 2 1   1 2 1 1 1 1 1 2 1 1
                                        2

 Eigenvalues of metric

         1 0.296E-02 0.297E-02 0.113E-01 0.162E-01 0.249E-01 0.352E-01 0.760E-01 0.908E-01


 Contracted 2-electron integrals neglected if value below      1.0D-11
 AO integral compression algorithm  1   Integral accuracy      1.0D-11

     1.573 MB (compressed) written to integral file ( 36.9%)


 NUMBER OF SORTED TWO-ELECTRON INTEGRALS:     371091.     BUFFER LENGTH:  32768
 NUMBER OF SEGMENTS:   1  SEGMENT LENGTH:     371091      RECORD LENGTH: 524288

 Memory used in sort:       0.93 MW

 SORT1 READ      525861. AND WROTE      180029. INTEGRALS IN      1 RECORDS. CPU TIME:     0.00 SEC, REAL TIME:     0.01 SEC
 SORT2 READ      180029. AND WROTE      371091. INTEGRALS IN      6 RECORDS. CPU TIME:     0.02 SEC, REAL TIME:     0.02 SEC

 FILE SIZES:   FILE 1:    31.6 MBYTE,  FILE 4:     4.3 MBYTE,   TOTAL:     35.9 MBYTE

 OPERATOR DM      FOR CENTER  0  COORDINATES:    0.000000    0.000000    0.000000


 **********************************************************************************************************************************
 DATASETS  * FILE   NREC   LENGTH (MB)   RECORD NAMES
              1      19       29.66       500      610      700      900      950      970     1000      129      960     1100   
                                          VAR    BASINP    GEOM    SYMINP    ZMAT    AOBASIS   BASIS     P2S    ABASIS      S 
                                         1400     1410     1200     1210     1080     1600     1650     1300     1700   
                                           T        V       H0       H01     AOSYM     SMH    MOLCAS    ERIS     OPER   

 PROGRAMS   *        TOTAL       INT
 CPU TIMES  *         0.24      0.15
 REAL TIME  *         9.57 SEC
 DISK USED  *        34.59 MB
 **********************************************************************************************************************************


 Program * Restricted Hartree-Fock

 Orbital guess generated from atomic densities. Full valence occupancy:    7

 Initial occupancy:   5

 NELEC=   10   SYM=1   MS2= 0   THRE=1.0D-08   THRD=3.2D-06   THRG=3.2D-06  HFMA2=F  DIIS_START=2   DIIS_MAX=10   DIIS_INCORE=F

 Level shifts:    0.00 (CLOSED)    0.00 (OPEN)    0.30 (GAP_MIN)

 ITER           ETOT              DE          GRAD        DDIFF     DIIS  NEXP   TIME(IT)  TIME(TOT)  DIAG
   1      -76.00432742     -76.00432742     0.00D+00     0.15D+00     0     0       0.01      0.01    start
   2      -76.03081225      -0.02648483     0.15D-01     0.26D-01     1     0       0.00      0.01    diag
   3      -76.04106650      -0.01025425     0.91D-02     0.92D-02     2     0       0.00      0.01    diag
   4      -76.04125086      -0.00018436     0.92D-03     0.14D-02     3     0       0.00      0.01    diag
   5      -76.04126617      -0.00001530     0.23D-03     0.40D-03     4     0       0.00      0.01    diag
   6      -76.04126689      -0.00000073     0.39D-04     0.78D-04     5     0       0.01      0.02    diag
   7      -76.04126692      -0.00000003     0.72D-05     0.18D-04     6     0       0.00      0.02    diag
   8      -76.04126692      -0.00000000     0.13D-05     0.30D-05     7     0       0.00      0.02    fixocc
   9      -76.04126692      -0.00000000     0.15D-06     0.22D-06     0     0       0.00      0.02    diag

 Final occupancy:   5

 !RHF STATE 1.1 Energy                -76.041266922272
  RHF One-electron energy            -122.937642371000
  RHF Two-electron energy              37.722628250746
  RHF Kinetic energy                   75.918858889833
  RHF Nuclear energy                    9.173747197981
  RHF Virial quotient                  -1.001612353429

 !RHF STATE 1.1 Dipole moment           0.78952257    -0.00793766    -0.00000000
 Dipole moment /Debye                   2.00676620    -0.02017552    -0.00000000

 Orbital energies:

           1.1          2.1          3.1          4.1          5.1          6.1          7.1
    -20.577821    -1.355746    -0.717273    -0.585984    -0.509366     0.035366     0.057951


 HOMO      5.1    -0.509366 =     -13.8605eV
 LUMO      6.1     0.035366 =       0.9624eV
 LUMO-HOMO         0.544731 =      14.8229eV

 Orbitals saved in record  2100.2


 **********************************************************************************************************************************
 DATASETS  * FILE   NREC   LENGTH (MB)   RECORD NAMES
              1      19       29.66       500      610      700      900      950      970     1000      129      960     1100   
                                          VAR    BASINP    GEOM    SYMINP    ZMAT    AOBASIS   BASIS     P2S    ABASIS      S 
                                         1400     1410     1200     1210     1080     1600     1650     1300     1700   
                                           T        V       H0       H01     AOSYM     SMH    MOLCAS    ERIS     OPER   

              2       4        0.44       700     1000      520     2100   
                                         GEOM     BASIS   MCVARS     RHF  

 PROGRAMS   *        TOTAL    HF-SCF       INT
 CPU TIMES  *         0.26      0.02      0.15
 REAL TIME  *        10.46 SEC
 DISK USED  *        34.59 MB
 **********************************************************************************************************************************


 PROGRAM * CCSD (Closed-shell coupled cluster)     Authors: C. Hampel, H.-J. Werner, 1991, M. Deegan, P.J. Knowles, 1992


 Convergence thresholds:  THRVAR = 1.00D-08  THRDEN = 1.00D-06

 Number of core orbitals:           1 (   1 )
 Number of closed-shell orbitals:   4 (   4 )
 Number of external orbitals:      36 (  36 )

 Molecular orbitals read from record     2100.2  Type=RHF/CANONICAL  

 Number of N-1 electron functions:               4
 Number of N-2 electron functions:              10
 Number of singly external CSFs:               144
 Number of doubly external CSFs:             10440
 Total number of CSFs:                       10585

 Length of J-op  integral file:               0.00 MB
 Length of K-op  integral file:               0.18 MB
 Length of 3-ext integral record:             0.00 MB

 Integral transformation finished. Total CPU:   0.01 sec, npass=  1  Memory used:   0.29 MW

 Reference energy:                    -76.04126692

 MP2 singlet pair energy:              -0.13575957
 MP2 triplet pair energy:              -0.08380622
 MP2 correlation energy:               -0.21956579
 MP2 total energy:                    -76.26083272

 SCS-MP2 correlation energy:           -0.21505758   (PS=  1.200000  PT=  0.333333)
 SCS-MP2 total energy:                -76.25632450

 ITER.      SQ.NORM     CORR.ENERGY   TOTAL ENERGY   ENERGY CHANGE        DEN1      VAR(S)    VAR(P)  DIIS     TIME  TIME/IT
   1      1.06073433    -0.22658009   -76.26784701    -0.00701430    -0.00221909  0.12D-02  0.87D-03  1  1     0.42     0.11
   2      1.06493257    -0.22722559   -76.26849252    -0.00064550    -0.00444522  0.89D-05  0.14D-03  2  2     0.42     0.09
   3      1.06641979    -0.22736435   -76.26863127    -0.00013875    -0.00084404  0.17D-04  0.53D-05  3  3     0.43     0.08
   4      1.06688003    -0.22732901   -76.26859593     0.00003534    -0.00020125  0.76D-06  0.46D-06  4  4     0.43     0.07
   5      1.06700246    -0.22732191   -76.26858883     0.00000710    -0.00004094  0.76D-07  0.31D-07  5  5     0.44     0.06
   6      1.06702394    -0.22732029   -76.26858722     0.00000161    -0.00000271  0.80D-08  0.20D-08  6  6     0.45     0.07
   7      1.06702930    -0.22731957   -76.26858649     0.00000073    -0.00000068  0.50D-09  0.33D-09  6  2     0.46     0.07
   8      1.06703005    -0.22731965   -76.26858657    -0.00000008     0.00000013  0.54D-10  0.19D-10  6  1     0.46     0.07

 Norm of t1 vector:      0.04918062      S-energy:    -0.00000013      T1 diagnostic:  0.01229516
                                                                       D1 diagnostic:  0.02657261
                                                                       D2 diagnostic:  0.12610395 (internal)


 RESULTS
 =======

  Reference energy                    -76.041266922272
  CCSD singlet pair energy             -0.153202818477
  CCSD triplet pair energy             -0.074116704892
  CCSD correlation energy              -0.227319651554

 !CCSD total energy                   -76.268586573826

 Timing summary (sec):

 STEP                 CPU(USER)    SYS     CPU(TOT)    WALL
 Transformation          0.01      0.00      0.01      0.35
 CCSD iterations         0.45      0.01      0.46      1.02

 Program statistics:

 Available memory in ccsd:              1572863931
 Min. memory needed in ccsd:                 53614
 Max. memory used in ccsd:                   59994
 Max. memory used in cckext:                 75512 ( 8 integral passes)



 **********************************************************************************************************************************
 DATASETS  * FILE   NREC   LENGTH (MB)   RECORD NAMES
              1      20       30.62       500      610      700      900      950      970     1000      129      960     1100   
                                          VAR    BASINP    GEOM    SYMINP    ZMAT    AOBASIS   BASIS     P2S    ABASIS      S 
                                         1400     1410     1200     1210     1080     1600     1650     1300     1700     1380   
                                           T        V       H0       H01     AOSYM     SMH    MOLCAS    ERIS     OPER     JKOP   

              2       4        0.44       700     1000      520     2100   
                                         GEOM     BASIS   MCVARS     RHF  

 PROGRAMS   *        TOTAL      CCSD    HF-SCF       INT
 CPU TIMES  *         0.35      0.08      0.02      0.15
 REAL TIME  *        12.26 SEC
 DISK USED  *        34.59 MB
 **********************************************************************************************************************************

 Dump information in style XML to xml output                                                                      

 Orbitals will not be exported.

 **********************************************************************************************************************************

 CCSD/aug-cc-pVDZ energy=    -76.268586573826

            CCSD          HF-SCF
    -76.26858657    -76.04126692
 **********************************************************************************************************************************
 Molpro calculation terminated
