
 Working directory              : /var/folders/2v/xbgp75_9785319ghcgb4zr4r0000gp/T//molpro.4RTdID16xn/
 Global scratch directory       : /var/folders/2v/xbgp75_9785319ghcgb4zr4r0000gp/T//molpro.4RTdID16xn/
 Wavefunction directory         : /Users/sacpjk/wfu/
 Main file repository           : /var/folders/2v/xbgp75_9785319ghcgb4zr4r0000gp/T//molpro.4RTdID16xn/

 id        : peterk

 Nodes                        nprocs
 Cardiff-University-G34YLXT77Y    1
 GA implementation: MPI file
 GA implementation (serial work in mppx): MPI file

 Using customized tuning parameters: mindgm=1; mindgv=20; mindgc=4; mindgr=1; noblas=0; minvec=7
 default implementation of scratch files=df  


 Variables initialized (1032), CPU time= 0.01 sec
 
 symmetry,nosym
 
 
 geometry={
            3
     H          0.00000000      0.00000000      1.48580271
     CL         0.00000000      0.00000000      0.00000000
     H          0.00000000      0.00000000     -1.48580271
 }
 basis=cc-pVDZ
 
 
 spin=1
 uhf
 
 
 
 {put,xml;noorbitals,nobasis}
 Commands initialized (841), CPU time= 0.00 sec, 704 directives.
 Default parameters read. Elapsed time= 0.12 sec

 Checking input...
 Passed
1


                                         ***  PROGRAM SYSTEM MOLPRO  ***
                                       Copyright, TTI GmbH Stuttgart, 2015
                                    Version 2023.1 linked Tue Jun  6 09:54:11 2023


 **********************************************************************************************************************************
 LABEL *                                                                                                                                                                 
  64 bit serial version                                                                  DATE: 09-Jun-23          TIME: 09:28:06  
 **********************************************************************************************************************************

 SHA1:             8ebb0dd001088a5c915591db1a321413035db0b1
 **********************************************************************************************************************************

 Memory per process:       805 MW
 Total memory per node:   1074 MW
 Total GA space:           268 MW

 GA preallocation disabled
 GA check enabled

 Variable memory set to 805.3 MW

 ZSYMEL=NOSYM


 Geometry recognized as XYZ

 SETTING BASIS          =    CC-PVDZ
 SETTING SPIN           =         1.00000000                                  


 Recomputing integrals since basis changed


 Using spherical harmonics

 Library entry H      S cc-pVDZ              selected for orbital group  1
 Library entry H      P cc-pVDZ              selected for orbital group  1
 Library entry CL     S cc-pVDZ              selected for orbital group  2
 Library entry CL     P cc-pVDZ              selected for orbital group  2
 Library entry CL     D cc-pVDZ              selected for orbital group  2


 PROGRAM * SEWARD (Integral evaluation for generally contracted gaussian basis sets)     Author: Roland Lindh, 1990

 Geometry written to block  1 of record 700


 Point group  C1  



 ATOMIC COORDINATES

 NR  ATOM    CHARGE       X              Y              Z

   1  H       1.00    0.000000000    0.000000000    2.807760197
   2  CL     17.00    0.000000000    0.000000000    0.000000000
   3  H       1.00    0.000000000    0.000000000   -2.807760197

 Bond lengths in Bohr (Angstrom)

 1-2  2.807760197  2-3  2.807760197
     ( 1.485802710)     ( 1.485802710)

 Bond angles

  1-2-3  179.99999915

 NUCLEAR CHARGE:                   19
 NUMBER OF PRIMITIVE AOS:          56
 NUMBER OF SYMMETRY AOS:           55
 NUMBER OF CONTRACTIONS:           28   (   28A   )
 NUMBER OF INNER CORE ORBITALS:     1   (    1A   )
 NUMBER OF OUTER CORE ORBITALS:     4   (    4A   )
 NUMBER OF VALENCE ORBITALS:        6   (    6A   )


 NUCLEAR REPULSION ENERGY   12.28737413

 EXTRA SYMMETRY OF AOS IN SYMMETRY 1:   1 1 2 3 1 1 1 1 1 2   3 1 2 3 1 2 3 1 1 4   2 5 3 1 1 2 3 1

 Eigenvalues of metric

         1 0.209E-01 0.507E-01 0.831E-01 0.892E-01 0.122E+00 0.122E+00 0.262E+00 0.288E+00


 Contracted 2-electron integrals neglected if value below      1.0D-11
 AO integral compression algorithm  1   Integral accuracy      1.0D-11

     0.262 MB (compressed) written to integral file ( 40.5%)


 NUMBER OF SORTED TWO-ELECTRON INTEGRALS:      82621.     BUFFER LENGTH:  32768
 NUMBER OF SEGMENTS:   1  SEGMENT LENGTH:      82621      RECORD LENGTH: 524288

 Memory used in sort:       0.64 MW

 SORT1 READ      116832. AND WROTE       20481. INTEGRALS IN      1 RECORDS. CPU TIME:     0.00 SEC, REAL TIME:     0.00 SEC
 SORT2 READ       20481. AND WROTE       82621. INTEGRALS IN      1 RECORDS. CPU TIME:     0.01 SEC, REAL TIME:     0.00 SEC

 FILE SIZES:   FILE 1:    30.3 MBYTE,  FILE 4:     4.3 MBYTE,   TOTAL:     34.6 MBYTE

 OPERATOR DM      FOR CENTER  0  COORDINATES:    0.000000    0.000000    0.000000


 **********************************************************************************************************************************
 DATASETS  * FILE   NREC   LENGTH (MB)   RECORD NAMES
              1      19       28.78       500      610      700      900      950      970     1000      129      960     1100   
                                          VAR    BASINP    GEOM    SYMINP    ZMAT    AOBASIS   BASIS     P2S    ABASIS      S 
                                         1400     1410     1200     1210     1080     1600     1650     1300     1700   
                                           T        V       H0       H01     AOSYM     SMH    MOLCAS    ERIS     OPER   

 PROGRAMS   *        TOTAL       INT
 CPU TIMES  *         0.17      0.09
 REAL TIME  *         0.67 SEC
 DISK USED  *        33.31 MB
 **********************************************************************************************************************************


 Program * Unrestricted Hartree-Fock

 Orbital guess generated from atomic densities. Full valence occupancy:   11

 Initial alpha occupancy:  10
 Initial beta  occupancy:   9

 Elapsed time for starting guess:      0.00 sec

 NELEC=   19   SYM=1   MS2=1   THRE=1.0D-08   THRD=3.2D-06   THRG=3.2D-06  HFMA2=F  DIIS_START=2   DIIS_MAX=10   DIIS_INCORE=F

 Initial level shifts:    0.20 (ALPHA)    0.20 (BETA)

 ITER         ETOT            DE          GRAD         DDIFF    DIIS  NEXP   TIME(IT)  TIME(TOT)  DIAG
   1   -460.50841180  -460.50841180     0.00D+00     0.00D+00     0     0       0.00      0.00    start
   2   -460.52554722    -0.01713542     0.86D-02     0.29D+00     1     0       0.00      0.00    diag
   3   -460.53213716    -0.00658994     0.43D-02     0.15D-01     2     0       0.01      0.01    diag
   4   -460.53434500    -0.00220785     0.22D-02     0.93D-02     3     0       0.00      0.01    diag
   5   -460.53464002    -0.00029501     0.65D-03     0.57D-02     4     0       0.00      0.01    diag
   6   -460.53466583    -0.00002581     0.19D-03     0.21D-02     5     0       0.00      0.01    diag
   7   -460.53466796    -0.00000213     0.56D-04     0.47D-03     6     0       0.00      0.01    diag
   8   -460.53466806    -0.00000009     0.13D-04     0.99D-04     6     0       0.00      0.01    diag
   9   -460.53466806    -0.00000000     0.29D-05     0.12D-04     5     0       0.00      0.01    diag
  10   -460.53466806    -0.00000000     0.84D-06     0.28D-05     5     0       0.00      0.01    diag/ort

 Final alpha occupancy:  10
 Final beta  occupancy:   9

 !UHF STATE 1.1 Energy               -460.534668059954
  UHF One-electron energy            -660.568784780184
  UHF Two-electron energy             187.746742593585
  UHF Kinetic energy                  460.604781774496
  UHF Nuclear energy                   12.287374126645
  UHF Virial quotient                  -0.999847779013

 !UHF STATE 1.1 Dipole moment          -0.00000000     0.00000000     0.00000000
 Dipole moment /Debye                  -0.00000000     0.00000000     0.00000000

 EXPECTATION VALUE OF S**2:             0.81701134

 Orbital energies for positive spin:

           1.1          2.1          3.1          4.1          5.1          6.1          7.1          8.1          9.1         10.1
   -104.862943   -10.587686    -8.050402    -8.050402    -8.047995    -1.120914    -0.705868    -0.489485    -0.489485    -0.372995

          11.1         12.1
      0.138330     0.427215

 Orbital energies for negative spin:

           1.1          2.1          3.1          4.1          5.1          6.1          7.1          8.1          9.1         10.1
   -104.863177   -10.585399    -8.060956    -8.048754    -8.048754    -1.110138    -0.626775    -0.476603    -0.476603     0.060249

          11.1
      0.203414


 HOMO     10.1    -0.372995 =     -10.1497eV
 LUMO    -10.1     0.060249 =       1.6395eV
 LUMO-HOMO         0.433244 =      11.7892eV

 Orbitals saved in record  2200.2

 Occupation number threshold for pseudo-canonical orbitals: 1.9990 (occupied), 0.0010 (virtual)

 Number of pseudo-canonical occupied orbitals per symmetry:    8
 Number of active natural orbitals per symmetry:               3

 Natural orbitals saved to record    2200.2 (Orbital set 3)

 Orbital spaces for UNO-CAS (Min. occupation: 0.020  Max. occupation: 1.980):

 Closed:        8
 Active:        3


 **********************************************************************************************************************************
 DATASETS  * FILE   NREC   LENGTH (MB)   RECORD NAMES
              1      19       28.78       500      610      700      900      950      970     1000      129      960     1100   
                                          VAR    BASINP    GEOM    SYMINP    ZMAT    AOBASIS   BASIS     P2S    ABASIS      S 
                                         1400     1410     1200     1210     1080     1600     1650     1300     1700   
                                           T        V       H0       H01     AOSYM     SMH    MOLCAS    ERIS     OPER   

              2       4        0.45       700     1000      520     2200   
                                         GEOM     BASIS   MCVARS     UHF  

              4       3        0.20      2900     3000     3100   

 PROGRAMS   *        TOTAL   UHF-SCF       INT
 CPU TIMES  *         0.18      0.01      0.09
 REAL TIME  *         0.83 SEC
 DISK USED  *        33.31 MB
 **********************************************************************************************************************************

 Dump information in style XML to xml output                                                                      

 Orbitals will not be exported.

 **********************************************************************************************************************************

 UHF/cc-pVDZ energy=   -460.534668059954

         UHF-SCF
   -460.53466806
 **********************************************************************************************************************************
 Molpro calculation terminated
