
 Working directory              : /var/folders/2v/xbgp75_9785319ghcgb4zr4r0000gp/T//molpro.OtR41gGo5H/
 Global scratch directory       : /var/folders/2v/xbgp75_9785319ghcgb4zr4r0000gp/T//molpro.OtR41gGo5H/
 Wavefunction directory         : /Users/sacpjk/wfu/
 Main file repository           : /var/folders/2v/xbgp75_9785319ghcgb4zr4r0000gp/T//molpro.OtR41gGo5H/

 id        : peterk

 Nodes                        nprocs
 Cardiff-University-G34YLXT77Y    1
 GA implementation: MPI file
 GA implementation (serial work in mppx): MPI file

 Using customized tuning parameters: mindgm=1; mindgv=20; mindgc=4; mindgr=1; noblas=0; minvec=7
 default implementation of scratch files=df  


 Variables initialized (1032), CPU time= 0.01 sec
 
 symmetry,nosym
 
 
 geometry={
           10
     N          0.26705172      0.69636738     -0.56173710
     N          1.35510702      0.81253986      0.35870941
     H          1.84787308     -0.08681106      0.41533588
     H          0.95114425      1.00024418      1.27451809
     H          0.69417443      0.79066305     -1.48682628
     N         -0.26705172     -0.69636738     -0.56173710
     N         -1.35510702     -0.81253986      0.35870941
     H         -0.69417443     -0.79066305     -1.48682628
     H         -0.95114425     -1.00024418      1.27451809
     H         -1.84787308      0.08681106      0.41533588
 }
 basis=cc-pVTZ
 
 
 
 hf
 
 
 
 {put,xml;noorbitals,nobasis}
 Commands initialized (841), CPU time= 0.00 sec, 704 directives.
 Default parameters read. Elapsed time= 0.15 sec

 Checking input...
 Passed
1


                                         ***  PROGRAM SYSTEM MOLPRO  ***
                                       Copyright, TTI GmbH Stuttgart, 2015
                                    Version 2023.1 linked Tue Jun  6 09:54:11 2023


 **********************************************************************************************************************************
 LABEL *                                                                                                                                                                 
  64 bit serial version                                                                  DATE: 12-Jun-23          TIME: 23:34:00  
 **********************************************************************************************************************************

 SHA1:             8ebb0dd001088a5c915591db1a321413035db0b1
 **********************************************************************************************************************************

 Memory per process:       393 MW
 Total memory per node:    524 MW
 Total GA space:           131 MW

 GA preallocation disabled
 GA check enabled

 Variable memory set to 393.2 MW

 ZSYMEL=NOSYM


 Geometry recognized as XYZ

 SETTING BASIS          =    CC-PVTZ


 Recomputing integrals since basis changed


 Using spherical harmonics

 Library entry N      S cc-pVTZ              selected for orbital group  1
 Library entry N      P cc-pVTZ              selected for orbital group  1
 Library entry N      D cc-pVTZ              selected for orbital group  1
 Library entry N      F cc-pVTZ              selected for orbital group  1
 Library entry H      S cc-pVTZ              selected for orbital group  2
 Library entry H      P cc-pVTZ              selected for orbital group  2
 Library entry H      D cc-pVTZ              selected for orbital group  2


 PROGRAM * SEWARD (Integral evaluation for generally contracted gaussian basis sets)     Author: Roland Lindh, 1990

 Geometry written to block  1 of record 700


 Point group  C1  



 ATOMIC COORDINATES

 NR  ATOM    CHARGE       X              Y              Z

   1  N       7.00    0.504654612    1.315943630   -1.061529273
   2  N       7.00    2.560781137    1.535477801    0.677862543
   3  H       1.00    3.491974034   -0.164049128    0.784871063
   4  H       1.00    1.797402138    1.890187558    2.408490131
   5  H       1.00    1.311799555    1.494136621   -2.809694464
   6  N       7.00   -0.504654612   -1.315943630   -1.061529273
   7  N       7.00   -2.560781137   -1.535477801    0.677862543
   8  H       1.00   -1.311799555   -1.494136621   -2.809694464
   9  H       1.00   -1.797402138   -1.890187558    2.408490131
  10  H       1.00   -3.491974034    0.164049128    0.784871063

 Bond lengths in Bohr (Angstrom)

 1-2  2.702098339  1-5  1.933731428  1-6  2.818782656  2-3  1.940866512  2-4  1.924483920
     ( 1.429888862)     ( 1.023286604)     ( 1.491635544)     ( 1.027062327)     ( 1.018393033)

  6- 7  2.702098339   6- 8  1.933731428   7- 9  1.924483920   7-10  1.940866512
       ( 1.429888862)       ( 1.023286604)       ( 1.018393033)       ( 1.027062327)

 Bond angles

  1-2-3  109.23428917   1-2-4  106.97847166   1-6-7  110.38485651   1-6-8  103.62095394

  2-1-5  104.88275036   2-1-6  110.38485651   3-2-4  107.58548703   5-1-6  103.62095394

  6- 7- 9  106.97847166   6- 7-10  109.23428917   7- 6- 8  104.88275036   9- 7-10  107.58548703

 NUCLEAR CHARGE:                   34
 NUMBER OF PRIMITIVE AOS:         290
 NUMBER OF SYMMETRY AOS:          264
 NUMBER OF CONTRACTIONS:          204   (  204A   )
 NUMBER OF INNER CORE ORBITALS:     0   (    0A   )
 NUMBER OF OUTER CORE ORBITALS:     4   (    4A   )
 NUMBER OF VALENCE ORBITALS:       22   (   22A   )


 NUCLEAR REPULSION ENERGY  135.83614119


 Eigenvalues of metric

         1 0.760E-03 0.101E-02 0.138E-02 0.195E-02 0.240E-02 0.265E-02 0.326E-02 0.338E-02


 Contracted 2-electron integrals neglected if value below      1.0D-11
 AO integral compression algorithm  1   Integral accuracy      1.0D-11

     846.725 MB (compressed) written to integral file ( 44.1%)


 NUMBER OF SORTED TWO-ELECTRON INTEGRALS:  218624505.     BUFFER LENGTH:  32768
 NUMBER OF SEGMENTS:  14  SEGMENT LENGTH:   15999503      RECORD LENGTH: 524288

 Memory used in sort:      16.56 MW

 SORT1 READ   240011254. AND WROTE   202344567. INTEGRALS IN    586 RECORDS. CPU TIME:     1.80 SEC, REAL TIME:     2.50 SEC
 SORT2 READ   202344567. AND WROTE   218624505. INTEGRALS IN   3230 RECORDS. CPU TIME:     1.38 SEC, REAL TIME:     1.89 SEC

 FILE SIZES:   FILE 1:   878.4 MBYTE,  FILE 4:  2457.9 MBYTE,   TOTAL:   3336.4 MBYTE

 OPERATOR DM      FOR CENTER  0  COORDINATES:    0.000000    0.000000    0.000000


 **********************************************************************************************************************************
 DATASETS  * FILE   NREC   LENGTH (MB)   RECORD NAMES
              1      19      767.08       500      610      700      900      950      970     1000      129      960     1100   
                                          VAR    BASINP    GEOM    SYMINP    ZMAT    AOBASIS   BASIS     P2S    ABASIS      S 
                                         1400     1410     1200     1210     1080     1600     1650     1300     1700   
                                           T        V       H0       H01     AOSYM     SMH    MOLCAS    ERIS     OPER   

 PROGRAMS   *        TOTAL       INT
 CPU TIMES  *         8.44      8.35
 REAL TIME  *        11.20 SEC
 DISK USED  *         3.11 GB
 **********************************************************************************************************************************


 Program * Restricted Hartree-Fock

 Orbital guess generated from atomic densities. Full valence occupancy:   26

 Initial occupancy:  17

 NELEC=   34   SYM=1   MS2= 0   THRE=1.0D-08   THRD=3.2D-06   THRG=3.2D-06  HFMA2=F  DIIS_START=2   DIIS_MAX=10   DIIS_INCORE=F

 Level shifts:    0.00 (CLOSED)    0.00 (OPEN)    0.30 (GAP_MIN)

 ITER           ETOT              DE          GRAD        DDIFF     DIIS  NEXP   TIME(IT)  TIME(TOT)  DIAG
   1     -221.20254521    -221.20254521     0.00D+00     0.53D-01     0     0       0.94      1.88    start
   2     -221.24861465      -0.04606944     0.40D-02     0.49D-02     1     0       0.94      2.82    diag
   3     -221.25373939      -0.00512474     0.14D-02     0.15D-02     2     0       0.93      3.75    diag
   4     -221.25477843      -0.00103904     0.56D-03     0.57D-03     3     0       0.91      4.66    diag
   5     -221.25485423      -0.00007580     0.11D-03     0.16D-03     4     0       1.04      5.70    diag
   6     -221.25486070      -0.00000647     0.26D-04     0.52D-04     5     0       0.96      6.66    diag
   7     -221.25486137      -0.00000067     0.83D-05     0.18D-04     6     0       0.97      7.63    diag
   8     -221.25486142      -0.00000005     0.24D-05     0.51D-05     7     0       0.96      8.59    fixocc
   9     -221.25486142      -0.00000000     0.80D-06     0.12D-05     8     0       0.93      9.52    diag
  10     -221.25486142      -0.00000000     0.16D-06     0.28D-06     0     0       0.97     10.49    diag/orth

 Final occupancy:  17

 !RHF STATE 1.1 Energy               -221.254861423937
  RHF One-electron energy            -570.440955972613
  RHF Two-electron energy             213.349953354614
  RHF Kinetic energy                  220.745900718068
  RHF Nuclear energy                  135.836141194062
  RHF Virial quotient                  -1.002305640577

 !RHF STATE 1.1 Dipole moment          -0.00000000     0.00000000     0.08630121
 Dipole moment /Debye                  -0.00000000     0.00000000     0.21935580

 Orbital energies:

           1.1          2.1          3.1          4.1          5.1          6.1          7.1          8.1          9.1         10.1
    -15.610343   -15.609942   -15.573003   -15.573003    -1.328393    -1.217683    -1.055816    -0.925911    -0.698244    -0.688227

          11.1         12.1         13.1         14.1         15.1         16.1         17.1         18.1         19.1
     -0.665470    -0.629523    -0.582898    -0.484947    -0.450667    -0.400291    -0.376179     0.139488     0.150526


 HOMO     17.1    -0.376179 =     -10.2364eV
 LUMO     18.1     0.139488 =       3.7957eV
 LUMO-HOMO         0.515667 =      14.0320eV

 Orbitals saved in record  2100.2


 **********************************************************************************************************************************
 DATASETS  * FILE   NREC   LENGTH (MB)   RECORD NAMES
              1      19      767.08       500      610      700      900      950      970     1000      129      960     1100   
                                          VAR    BASINP    GEOM    SYMINP    ZMAT    AOBASIS   BASIS     P2S    ABASIS      S 
                                         1400     1410     1200     1210     1080     1600     1650     1300     1700   
                                           T        V       H0       H01     AOSYM     SMH    MOLCAS    ERIS     OPER   

              2       4        1.19       700     1000      520     2100   
                                         GEOM     BASIS   MCVARS     RHF  

 PROGRAMS   *        TOTAL    HF-SCF       INT
 CPU TIMES  *        18.93     10.49      8.35
 REAL TIME  *        23.73 SEC
 DISK USED  *         3.11 GB
 **********************************************************************************************************************************

 Dump information in style XML to xml output                                                                      

 Orbitals will not be exported.

 **********************************************************************************************************************************

 HF/cc-pVTZ energy=   -221.254861423937

          HF-SCF
   -221.25486142
 **********************************************************************************************************************************
 Molpro calculation terminated
