
 Working directory              : /var/folders/2v/xbgp75_9785319ghcgb4zr4r0000gp/T//molpro.O5FNwvDtM9/
 Global scratch directory       : /var/folders/2v/xbgp75_9785319ghcgb4zr4r0000gp/T//molpro.O5FNwvDtM9/
 Wavefunction directory         : /Users/sacpjk/wfu/
 Main file repository           : /var/folders/2v/xbgp75_9785319ghcgb4zr4r0000gp/T//molpro.O5FNwvDtM9/

 id        : peterk

 Nodes                        nprocs
 Cardiff-University-G34YLXT77Y    1
 GA implementation: MPI file
 GA implementation (serial work in mppx): MPI file

 Using customized tuning parameters: mindgm=1; mindgv=20; mindgc=4; mindgr=1; noblas=0; minvec=7
 default implementation of scratch files=df  


 Variables initialized (1032), CPU time= 0.01 sec
 
 symmetry,nosym
 
 
 geometry={
           16
     H         -1.96835664      1.06706638      1.34307148
     C         -1.11416533      1.01457636      0.68421724
     C          0.22922214      0.72932626      1.09945039
     C         -1.11416533      1.01457636     -0.68421724
     H          1.98243777      0.70630025      0.00000000
     N          1.03477843      1.05782238      0.00000000
     C          0.22922214     -1.33411348      0.70659725
     H          0.61593228      0.86963631      2.10018875
     C          0.22922214     -1.33411348     -0.70659725
     H         -1.96835664      1.06706638     -1.34307148
     C          0.22922214      0.72932626     -1.09945039
     H          0.61593228      0.86963631     -2.10018875
     H         -0.65530617     -1.66353059     -1.23801644
     H         -0.65530617     -1.66353059      1.23801644
     H          1.15484347     -1.56502256      1.22577544
     H          1.15484347     -1.56502256     -1.22577544
 }
 basis=cc-pVTZ
 
 
 
 hf; mp4
 
 
 
 {put,xml;noorbitals,nobasis}
 Commands initialized (841), CPU time= 0.00 sec, 704 directives.
 Default parameters read. Elapsed time= 0.07 sec

 Checking input...
 Passed
1


                                         ***  PROGRAM SYSTEM MOLPRO  ***
                                       Copyright, TTI GmbH Stuttgart, 2015
                                    Version 2023.1 linked Tue Jun  6 09:54:11 2023


 **********************************************************************************************************************************
 LABEL *                                                                                                                                                                 
  64 bit serial version                                                                  DATE: 10-Jun-23          TIME: 21:29:12  
 **********************************************************************************************************************************

 SHA1:             8ebb0dd001088a5c915591db1a321413035db0b1
 **********************************************************************************************************************************

 Memory per process:       805 MW
 Total memory per node:   1074 MW
 Total GA space:           268 MW

 GA preallocation disabled
 GA check enabled

 Variable memory set to 805.3 MW

 ZSYMEL=NOSYM


 Geometry recognized as XYZ

 SETTING BASIS          =    CC-PVTZ


 Recomputing integrals since basis changed


 Using spherical harmonics

 Library entry H      S cc-pVTZ              selected for orbital group  1
 Library entry H      P cc-pVTZ              selected for orbital group  1
 Library entry H      D cc-pVTZ              selected for orbital group  1
 Library entry C      S cc-pVTZ              selected for orbital group  2
 Library entry C      P cc-pVTZ              selected for orbital group  2
 Library entry C      D cc-pVTZ              selected for orbital group  2
 Library entry C      F cc-pVTZ              selected for orbital group  2
 Library entry N      S cc-pVTZ              selected for orbital group  4
 Library entry N      P cc-pVTZ              selected for orbital group  4
 Library entry N      D cc-pVTZ              selected for orbital group  4
 Library entry N      F cc-pVTZ              selected for orbital group  4


 PROGRAM * SEWARD (Integral evaluation for generally contracted gaussian basis sets)     Author: Roland Lindh, 1990

 Geometry written to block  1 of record 700


 Point group  C1  



 ATOMIC COORDINATES

 NR  ATOM    CHARGE       X              Y              Z

   1  H       1.00   -3.719654965    2.016463215    2.538037263
   2  C       6.00   -2.105467331    1.917271453    1.292983193
   3  C       6.00    0.433167066    1.378226887    2.077660125
   4  C       6.00   -2.105467331    1.917271453   -1.292983193
   5  H       1.00    3.746264444    1.334714034    0.000000000
   6  N       7.00    1.955447832    1.998994587    0.000000000
   7  C       6.00    0.433167066   -2.521109096    1.335275283
   8  H       1.00    1.163943321    1.643374454    3.968781548
   9  C       6.00    0.433167066   -2.521109096   -1.335275283
  10  H       1.00   -3.719654965    2.016463215   -2.538037263
  11  C       6.00    0.433167066    1.378226887   -2.077660125
  12  H       1.00    1.163943321    1.643374454   -3.968781548
  13  H       1.00   -1.238349189   -3.143617215   -2.339512009
  14  H       1.00   -1.238349189   -3.143617215    2.339512009
  15  H       1.00    2.182337875   -2.957464017    2.316379872
  16  H       1.00    2.182337875   -2.957464017   -2.316379872

 Bond lengths in Bohr (Angstrom)

 1-2  2.040980245  2-3  2.711263826  2-4  2.585966387  3-6  2.649408021  3-7  3.969377327
     ( 1.080040233)     ( 1.434739030)     ( 1.368434480)     ( 1.402006347)     ( 2.100504023)

  3- 8  2.044670487   4-10  2.040980245   4-11  2.711263826   5- 6  1.910050468   6-11  2.649408021
       ( 1.081993026)       ( 1.080040233)       ( 1.434739030)       ( 1.010755179)       ( 1.402006347)

  7- 9  2.670550566   7-14  2.046942684   7-15  2.052454713   9-11  3.969377327   9-13  2.046942684
       ( 1.413194500)       ( 1.083195421)       ( 1.086112261)       ( 2.100504023)       ( 1.083195421)

  9-16  2.052454713  11-12  2.044670487
       ( 1.086112261)       ( 1.081993026)

 Bond angles

  1-2-3  125.00471058   1-2-4  127.59149119   2-3-6  105.33420794   2-3-7   98.11613532

  2- 3- 8  125.20800467   2- 4-10  127.59149119   2- 4-11  106.82285915   3- 2- 4  106.82285915

  3- 6- 5  117.20784605   3- 6-11  103.29310343   3- 7- 9  100.77939428   3- 7-14  101.94620578

  3- 7-15   96.86023435   4-11- 6  105.33420794   4-11- 9   98.11613532   4-11-12  125.20800467

  5- 6-11  117.20784605   6- 3- 7   94.78994231   6- 3- 8  119.31212562   6-11- 9   94.78994231

  6-11-12  119.31212562   7- 3- 8  107.47994432   7- 9-11  100.77939428   7- 9-13  119.38023894

  7- 9-16  118.55585287   9- 7-14  119.38023894   9- 7-15  118.55585287   9-11-12  107.47994432

 10- 4-11  125.00471058  11- 9-13  101.94620578  11- 9-16   96.86023435  13- 9-16  113.37550239

 14- 7-15  113.37550239

 NUCLEAR CHARGE:                   52
 NUMBER OF PRIMITIVE AOS:         482
 NUMBER OF SYMMETRY AOS:          438
 NUMBER OF CONTRACTIONS:          336   (  336A   )
 NUMBER OF INNER CORE ORBITALS:     0   (    0A   )
 NUMBER OF OUTER CORE ORBITALS:     7   (    7A   )
 NUMBER OF VALENCE ORBITALS:       37   (   37A   )


 NUCLEAR REPULSION ENERGY  301.85518202


 Eigenvalues of metric

         1 0.807E-04 0.283E-03 0.431E-03 0.681E-03 0.730E-03 0.857E-03 0.995E-03 0.111E-02


 Contracted 2-electron integrals neglected if value below      1.0D-11
 AO integral compression algorithm  1   Integral accuracy      1.0D-11

     5460.197 MB (compressed) written to integral file ( 40.8%)


 NUMBER OF SORTED TWO-ELECTRON INTEGRALS: 1602714036.     BUFFER LENGTH:  32768
 NUMBER OF SEGMENTS:  51  SEGMENT LENGTH:   31998710      RECORD LENGTH: 524288

 Memory used in sort:      32.56 MW

 SORT1 READ  1673571448. AND WROTE  1411082069. INTEGRALS IN   4065 RECORDS. CPU TIME:    15.03 SEC, REAL TIME:    25.22 SEC
 SORT2 READ  1411082069. AND WROTE  1602714036. INTEGRALS IN  20829 RECORDS. CPU TIME:     9.94 SEC, REAL TIME:    22.54 SEC

 FILE SIZES:   FILE 1:  5494.6 MBYTE,  FILE 4: 17049.9 MBYTE,   TOTAL:  22544.5 MBYTE

 OPERATOR DM      FOR CENTER  0  COORDINATES:    0.000000    0.000000    0.000000


 **********************************************************************************************************************************
 DATASETS  * FILE   NREC   LENGTH (MB)   RECORD NAMES
              1      19     4917.95       500      610      700      900      950      970     1000      129      960     1100   
                                          VAR    BASINP    GEOM    SYMINP    ZMAT    AOBASIS   BASIS     P2S    ABASIS      S 
                                         1400     1410     1200     1210     1080     1600     1650     1300     1700   
                                           T        V       H0       H01     AOSYM     SMH    MOLCAS    ERIS     OPER   

 PROGRAMS   *        TOTAL       INT
 CPU TIMES  *        65.34     65.24
 REAL TIME  *       107.49 SEC
 DISK USED  *        21.00 GB
 **********************************************************************************************************************************


 Program * Restricted Hartree-Fock

 Orbital guess generated from atomic densities. Full valence occupancy:   44

 Initial occupancy:  26

 NELEC=   52   SYM=1   MS2= 0   THRE=1.0D-08   THRD=3.2D-06   THRG=3.2D-06  HFMA2=F  DIIS_START=2   DIIS_MAX=10   DIIS_INCORE=F

 Level shifts:    0.00 (CLOSED)    0.00 (OPEN)    0.30 (GAP_MIN)

 ITER           ETOT              DE          GRAD        DDIFF     DIIS  NEXP   TIME(IT)  TIME(TOT)  DIAG
   1     -286.78125122    -286.78125122     0.00D+00     0.41D-01     0     0       9.03     17.29    start
   2     -286.85139008      -0.07013886     0.27D-02     0.40D-02     1     0       8.99     26.28    diag
   3     -286.86317393      -0.01178386     0.12D-02     0.13D-02     2     0       9.31     35.59    diag
   4     -286.86488214      -0.00170821     0.36D-03     0.52D-03     3     0       9.46     45.05    diag
   5     -286.86498394      -0.00010180     0.92D-04     0.12D-03     4     0       9.54     54.59    diag
   6     -286.86501187      -0.00002793     0.33D-04     0.70D-04     5     0       9.99     64.58    diag
   7     -286.86501831      -0.00000643     0.14D-04     0.31D-04     6     0      10.25     74.83    diag
   8     -286.86501975      -0.00000145     0.56D-05     0.18D-04     7     0      10.45     85.28    fixocc
   9     -286.86501990      -0.00000014     0.20D-05     0.49D-05     8     0      10.23     95.51    diag
  10     -286.86501992      -0.00000002     0.78D-06     0.20D-05     9     0      10.55    106.06    diag/orth
  11     -286.86501992      -0.00000000     0.23D-06     0.61D-06     9     0      10.33    116.39    diag
  12     -286.86501992      -0.00000000     0.80D-07     0.13D-06     0     0      10.49    126.88    diag

 Final occupancy:  26

 !RHF STATE 1.1 Energy               -286.865019922923
  RHF One-electron energy            -985.951169894841
  RHF Two-electron energy             397.230967953244
  RHF Kinetic energy                  286.364711068599
  RHF Nuclear energy                  301.855182018674
  RHF Virial quotient                  -1.001747103728

 !RHF STATE 1.1 Dipole moment           0.25657704    -0.06924255    -0.00000000
 Dipole moment /Debye                   0.65215378    -0.17599700    -0.00000000

 Orbital energies:

           1.1          2.1          3.1          4.1          5.1          6.1          7.1          8.1          9.1         10.1
    -15.570537   -11.270358   -11.270318   -11.219375   -11.217953   -11.213041   -11.211940    -1.275238    -1.047704    -0.999553

          11.1         12.1         13.1         14.1         15.1         16.1         17.1         18.1         19.1         20.1
     -0.966691    -0.790885    -0.781995    -0.749965    -0.727607    -0.613350    -0.598107    -0.577507    -0.559050    -0.543417

          21.1         22.1         23.1         24.1         25.1         26.1         27.1         28.1
     -0.536049    -0.531705    -0.484025    -0.370825    -0.318423    -0.298978     0.130312     0.145166


 HOMO     26.1    -0.298978 =      -8.1356eV
 LUMO     27.1     0.130312 =       3.5460eV
 LUMO-HOMO         0.429291 =      11.6816eV

 Orbitals saved in record  2100.2


 **********************************************************************************************************************************
 DATASETS  * FILE   NREC   LENGTH (MB)   RECORD NAMES
              1      19     4917.95       500      610      700      900      950      970     1000      129      960     1100   
                                          VAR    BASINP    GEOM    SYMINP    ZMAT    AOBASIS   BASIS     P2S    ABASIS      S 
                                         1400     1410     1200     1210     1080     1600     1650     1300     1700   
                                           T        V       H0       H01     AOSYM     SMH    MOLCAS    ERIS     OPER   

              2       4        2.40       700     1000      520     2100   
                                         GEOM     BASIS   MCVARS     RHF  

 PROGRAMS   *        TOTAL    HF-SCF       INT
 CPU TIMES  *       192.22    126.88     65.24
 REAL TIME  *       298.80 SEC
 DISK USED  *        21.00 GB
 **********************************************************************************************************************************


 PROGRAM * MP4 (Closed-shell)     Authors: C. Hampel, H.-J. Werner, 1991, M. Deegan, P.J. Knowles, 1992


 Convergence thresholds:  THRVAR = 1.00D-08  THRDEN = 1.00D-06

 MP4(T)     terms to be evaluated (factor= 0.000)


 Number of core orbitals:           7 (   7 )
 Number of closed-shell orbitals:  19 (  19 )
 Number of external orbitals:     310 ( 310 )

 Molecular orbitals read from record     2100.2  Type=RHF/CANONICAL  

 Number of N-1 electron functions:              19
 Number of N-2 electron functions:             190
 Number of singly external CSFs:              5890
 Number of doubly external CSFs:          17348995
 Total number of CSFs:                    17354886

 Length of J-op  integral file:               0.00 MB
 Length of K-op  integral file:               7.81 MB

 Memory could be reduced to 682.44 Mwords without degradation in triples

 Integral transformation finished. Total CPU:  89.19 sec, npass=  1  Memory used: 417.71 MW

 Reference energy:                   -286.86501992

                        CORR.ENERGY   TOTAL ENERGY   ENERGY CHANGE
 MP2:                   -1.23368424  -288.09870416    -1.23368424

 SCS-MP2 correlation energy:           -1.21285908   (PS=  1.200000  PT=  0.333333)
 SCS-MP2 total energy:               -288.07787900

 MP3(D):                -1.25572419  -288.12074412    -0.02203996
 MP4(DQ):               -1.24703400  -288.11205393     0.00869019
 MP4(SDQ):              -1.25729333  -288.12231325    -0.01025933

 Norm of t1 vector:      0.08372947      S-energy:    -0.01025933      T1 diagnostic:  0.00960443

   CPU time for triples:   1836.14 sec for i =  1 - 14 / 19 (~  41.6 % done)
   CPU time for triples:   1959.98 sec for i = 15 - 18 / 19 (~  85.6 % done)
   CPU time for triples:    677.12 sec for i = 19 - 19 / 19 (  100.0 % done)

 Total CPU time for triples:   4473.24 sec


 RESULTS
 =======

  Reference energy                   -286.865019922922
  MP4(SDQ) singlet pair energy         -0.827998799723
  MP4(SDQ) triplet pair energy         -0.419035202892
  MP4(SDQ) correlation energy          -1.257293331477

  Triples contribution                 -0.075566110354
  Total correlation energy             -1.332859441831

  MP4(SDQ) total energy              -288.122313254399
 !MP4(SDTQ) total energy             -288.197879364754

 Timing summary (sec):

 STEP                 CPU(USER)    SYS     CPU(TOT)    WALL
 Transformation         91.06      6.57     97.63    136.82
 CCSD iterations       389.42      6.62    396.04    283.27
 Triples              4473.24    160.84   4634.08   7573.31

 Program statistics:

 Available memory in ccsd:               805304898
 Min. memory needed in ccsd:              41156838
 Max. memory used in ccsd:                57276704
 Max. memory used in cckext:              44068198 ( 1 integral passes)



 **********************************************************************************************************************************
 DATASETS  * FILE   NREC   LENGTH (MB)   RECORD NAMES
              1      20     7331.59       500      610      700      900      950      970     1000      129      960     1100   
                                          VAR    BASINP    GEOM    SYMINP    ZMAT    AOBASIS   BASIS     P2S    ABASIS      S 
                                         1400     1410     1200     1210     1080     1600     1650     1300     1700     1380   
                                           T        V       H0       H01     AOSYM     SMH    MOLCAS    ERIS     OPER     JKOP   

              2       4        2.40       700     1000      520     2100   
                                         GEOM     BASIS   MCVARS     RHF  

 PROGRAMS   *        TOTAL       MP4    HF-SCF       INT
 CPU TIMES  *      4953.61   4761.39    126.88     65.24
 REAL TIME  *      8292.25 SEC
 DISK USED  *        21.00 GB
 **********************************************************************************************************************************

 Dump information in style XML to xml output                                                                      

 Orbitals will not be exported.

 **********************************************************************************************************************************

 MP4/cc-pVTZ energy=   -288.197879364754

             MP4          HF-SCF
   -288.19787936   -286.86501992
 **********************************************************************************************************************************
 Molpro calculation terminated
