
 Working directory              : /var/folders/2v/xbgp75_9785319ghcgb4zr4r0000gp/T//molpro.BnefEMjtAW/
 Global scratch directory       : /var/folders/2v/xbgp75_9785319ghcgb4zr4r0000gp/T//molpro.BnefEMjtAW/
 Wavefunction directory         : /Users/sacpjk/wfu/
 Main file repository           : /var/folders/2v/xbgp75_9785319ghcgb4zr4r0000gp/T//molpro.BnefEMjtAW/

 id        : peterk

 Nodes                        nprocs
 Cardiff-University-G34YLXT77Y    1
 GA implementation: MPI file
 GA implementation (serial work in mppx): MPI file

 Using customized tuning parameters: mindgm=1; mindgv=20; mindgc=4; mindgr=1; noblas=0; minvec=7
 default implementation of scratch files=df  


 Variables initialized (1032), CPU time= 0.00 sec
 
 symmetry,nosym
 
 
 geometry={
            8
     O         -1.91840367      0.19998510      0.00000000
     S         -1.32245423     -0.36733302     -1.47185555
     O         -0.00713321      0.65483762     -1.66061440
     S          1.55660614      0.01258458     -1.47076583
     O          1.46436627     -0.80016345      0.00000000
     S          1.55660614      0.01258458      1.47076583
     O         -0.00713321      0.65483762      1.66061440
     S         -1.32245423     -0.36733302      1.47185555
 }
 basis=cc-pVDZ
 
 
 
 hf; ccsd
 
 
 
 {put,xml;noorbitals,nobasis}
 Commands initialized (841), CPU time= 0.01 sec, 704 directives.
 Default parameters read. Elapsed time= 1.60 sec

 Checking input...
 Passed
1


                                         ***  PROGRAM SYSTEM MOLPRO  ***
                                       Copyright, TTI GmbH Stuttgart, 2015
                                    Version 2023.1 linked Tue Jun  6 09:54:11 2023


 **********************************************************************************************************************************
 LABEL *                                                                                                                                                                 
  64 bit serial version                                                                  DATE: 13-Jun-23          TIME: 04:22:08  
 **********************************************************************************************************************************

 SHA1:             8ebb0dd001088a5c915591db1a321413035db0b1
 **********************************************************************************************************************************

 Memory per process:       393 MW
 Total memory per node:    524 MW
 Total GA space:           131 MW

 GA preallocation disabled
 GA check enabled

 Variable memory set to 393.2 MW

 ZSYMEL=NOSYM


 Geometry recognized as XYZ

 SETTING BASIS          =    CC-PVDZ


 Recomputing integrals since basis changed


 Using spherical harmonics

 Library entry O      S cc-pVDZ              selected for orbital group  1
 Library entry O      P cc-pVDZ              selected for orbital group  1
 Library entry O      D cc-pVDZ              selected for orbital group  1
 Library entry S      S cc-pVDZ              selected for orbital group  2
 Library entry S      P cc-pVDZ              selected for orbital group  2
 Library entry S      D cc-pVDZ              selected for orbital group  2


 PROGRAM * SEWARD (Integral evaluation for generally contracted gaussian basis sets)     Author: Roland Lindh, 1990

 Geometry written to block  1 of record 700


 Point group  C1  



 ATOMIC COORDINATES

 NR  ATOM    CHARGE       X              Y              Z

   1  O       8.00   -3.625257533    0.377917068    0.000000000
   2  S      16.00   -2.499076307   -0.694158804   -2.781403885
   3  O       8.00   -0.013479813    1.237463758   -3.138106415
   4  S      16.00    2.941559289    0.023781410   -2.779344612
   5  O       8.00    2.767251196   -1.512089775    0.000000000
   6  S      16.00    2.941559289    0.023781410    2.779344612
   7  O       8.00   -0.013479813    1.237463758    3.138106415
   8  S      16.00   -2.499076307   -0.694158804    2.781403885

 Bond lengths in Bohr (Angstrom)

 1-2  3.186508810  1-8  3.186508810  2-3  3.168058135  2-4  5.487800841  3-4  3.214652542
     ( 1.686227845)     ( 1.686227845)     ( 1.676464168)     ( 2.904019143)     ( 1.701120866)

 4-5  3.180257864  5-6  3.180257864  6-7  3.214652542  6-8  5.487800841  7-8  3.168058135
     ( 1.682919986)     ( 1.682919986)     ( 1.701120866)     ( 2.904019143)     ( 1.676464168)

 Bond angles

  1-2-3   99.81294447   1-2-4  107.82084307   1-8-6  107.82084307   1-8-7   99.81294447

  2-1-8  121.58746966   2-3-4  118.58456359   2-4-3   30.45929611   2-4-5   83.26999558

  3-2-4   30.95614029   3-4-5  103.26659648   4-5-6  121.83880699   5-6-7  103.26659648

  5-6-8   83.26999558   6-7-8  118.58456359   6-8-7   30.95614029   7-6-8   30.45929611

 NUCLEAR CHARGE:                   96
 NUMBER OF PRIMITIVE AOS:         276
 NUMBER OF SYMMETRY AOS:          268
 NUMBER OF CONTRACTIONS:          128   (  128A   )
 NUMBER OF INNER CORE ORBITALS:     4   (    4A   )
 NUMBER OF OUTER CORE ORBITALS:    20   (   20A   )
 NUMBER OF VALENCE ORBITALS:       32   (   32A   )


 NUCLEAR REPULSION ENERGY  798.53403519


 Eigenvalues of metric

         1 0.807E-02 0.111E-01 0.121E-01 0.134E-01 0.202E-01 0.249E-01 0.249E-01 0.388E-01


 Contracted 2-electron integrals neglected if value below      1.0D-11
 AO integral compression algorithm  1   Integral accuracy      1.0D-11

     126.091 MB (compressed) written to integral file ( 40.5%)


 NUMBER OF SORTED TWO-ELECTRON INTEGRALS:   34084896.     BUFFER LENGTH:  32768
 NUMBER OF SEGMENTS:   3  SEGMENT LENGTH:   15998004      RECORD LENGTH: 524288

 Memory used in sort:      16.56 MW

 SORT1 READ    38945092. AND WROTE    31517093. INTEGRALS IN     92 RECORDS. CPU TIME:     0.28 SEC, REAL TIME:     0.36 SEC
 SORT2 READ    31517093. AND WROTE    34084896. INTEGRALS IN    481 RECORDS. CPU TIME:     0.31 SEC, REAL TIME:     0.36 SEC

 FILE SIZES:   FILE 1:   156.8 MBYTE,  FILE 4:   385.9 MBYTE,   TOTAL:    542.8 MBYTE

 OPERATOR DM      FOR CENTER  0  COORDINATES:    0.000000    0.000000    0.000000


 **********************************************************************************************************************************
 DATASETS  * FILE   NREC   LENGTH (MB)   RECORD NAMES
              1      19      132.85       500      610      700      900      950      970     1000      129      960     1100   
                                          VAR    BASINP    GEOM    SYMINP    ZMAT    AOBASIS   BASIS     P2S    ABASIS      S 
                                         1400     1410     1200     1210     1080     1600     1650     1300     1700   
                                           T        V       H0       H01     AOSYM     SMH    MOLCAS    ERIS     OPER   

 PROGRAMS   *        TOTAL       INT
 CPU TIMES  *         2.29      2.20
 REAL TIME  *         5.43 SEC
 DISK USED  *       518.12 MB
 **********************************************************************************************************************************


 Program * Restricted Hartree-Fock

 Orbital guess generated from atomic densities. Full valence occupancy:   56

 Initial occupancy:  48

 NELEC=   96   SYM=1   MS2= 0   THRE=1.0D-08   THRD=3.2D-06   THRG=3.2D-06  HFMA2=F  DIIS_START=2   DIIS_MAX=10   DIIS_INCORE=F

 Level shifts:    0.00 (CLOSED)    0.00 (OPEN)    0.30 (GAP_MIN)

 ITER           ETOT              DE          GRAD        DDIFF     DIIS  NEXP   TIME(IT)  TIME(TOT)  DIAG
   1    -1889.22017152   -1889.22017152     0.00D+00     0.14D+00     0     0       0.17      0.34    start
   2    -1889.32572452      -0.10555300     0.51D-02     0.14D-01     1     0       0.17      0.51    diag
   3    -1889.33489174      -0.00916722     0.15D-02     0.31D-02     2     0       0.16      0.67    diag
   4    -1889.33613814      -0.00124640     0.51D-03     0.12D-02     3     0       0.17      0.84    diag
   5    -1889.33641698      -0.00027885     0.25D-03     0.44D-03     4     0       0.17      1.01    diag
   6    -1889.33643812      -0.00002114     0.46D-04     0.13D-03     5     0       0.17      1.18    diag
   7    -1889.33644171      -0.00000359     0.20D-04     0.61D-04     6     0       0.18      1.36    diag
   8    -1889.33644260      -0.00000089     0.93D-05     0.29D-04     7     0       0.17      1.53    fixocc
   9    -1889.33644282      -0.00000022     0.33D-05     0.18D-04     8     0       0.17      1.70    diag
  10    -1889.33644285      -0.00000003     0.13D-05     0.62D-05     9     0       0.18      1.88    diag/orth
  11    -1889.33644285      -0.00000001     0.61D-06     0.28D-05     9     0       0.17      2.05    diag
  12    -1889.33644285      -0.00000000     0.22D-06     0.71D-06     0     0       0.17      2.22    diag

 Final occupancy:  48

 !RHF STATE 1.1 Energy              -1889.336442854520
  RHF One-electron energy           -4202.606543197016
  RHF Two-electron energy            1514.736065157302
  RHF Kinetic energy                 1888.924429488686
  RHF Nuclear energy                  798.534035185194
  RHF Virial quotient                  -1.000218120619

 !RHF STATE 1.1 Dipole moment           0.49221825    -0.73146238     0.00000000
 Dipole moment /Debye                   1.25109401    -1.85919192     0.00000000

 Orbital energies:

           1.1          2.1          3.1          4.1          5.1          6.1          7.1          8.1          9.1         10.1
    -92.082803   -92.082802   -92.078206   -92.078205   -20.659290   -20.648506   -20.648505   -20.646313    -9.075073    -9.075049

          11.1         12.1         13.1         14.1         15.1         16.1         17.1         18.1         19.1         20.1
     -9.070545    -9.070520    -6.756576    -6.756575    -6.754500    -6.754498    -6.752064    -6.752063    -6.750445    -6.750444

          21.1         22.1         23.1         24.1         25.1         26.1         27.1         28.1         29.1         30.1
     -6.750108    -6.750107    -6.746117    -6.746116    -1.463529    -1.422795    -1.419417    -1.370566    -1.042640    -0.953857

          31.1         32.1         33.1         34.1         35.1         36.1         37.1         38.1         39.1         40.1
     -0.948515    -0.828187    -0.724943    -0.693202    -0.684188    -0.670516    -0.644881    -0.620137    -0.616668    -0.555888

          41.1         42.1         43.1         44.1         45.1         46.1         47.1         48.1         49.1         50.1
     -0.548089    -0.538879    -0.535133    -0.517073    -0.393367    -0.386406    -0.383257    -0.369617     0.085252     0.085872


 HOMO     48.1    -0.369617 =     -10.0578eV
 LUMO     49.1     0.085252 =       2.3198eV
 LUMO-HOMO         0.454869 =      12.3776eV

 Orbitals saved in record  2100.2


 **********************************************************************************************************************************
 DATASETS  * FILE   NREC   LENGTH (MB)   RECORD NAMES
              1      19      132.85       500      610      700      900      950      970     1000      129      960     1100   
                                          VAR    BASINP    GEOM    SYMINP    ZMAT    AOBASIS   BASIS     P2S    ABASIS      S 
                                         1400     1410     1200     1210     1080     1600     1650     1300     1700   
                                           T        V       H0       H01     AOSYM     SMH    MOLCAS    ERIS     OPER   

              2       4        0.76       700     1000      520     2100   
                                         GEOM     BASIS   MCVARS     RHF  

 PROGRAMS   *        TOTAL    HF-SCF       INT
 CPU TIMES  *         4.52      2.23      2.20
 REAL TIME  *         8.13 SEC
 DISK USED  *       518.12 MB
 **********************************************************************************************************************************


 PROGRAM * CCSD (Closed-shell coupled cluster)     Authors: C. Hampel, H.-J. Werner, 1991, M. Deegan, P.J. Knowles, 1992


 Convergence thresholds:  THRVAR = 1.00D-08  THRDEN = 1.00D-06

 Number of core orbitals:          24 (  24 )
 Number of closed-shell orbitals:  24 (  24 )
 Number of external orbitals:      80 (  80 )

 Molecular orbitals read from record     2100.2  Type=RHF/CANONICAL  

 Number of N-1 electron functions:              24
 Number of N-2 electron functions:             300
 Number of singly external CSFs:              1920
 Number of doubly external CSFs:           1844160
 Total number of CSFs:                     1846081

 Length of J-op  integral file:               0.00 MB
 Length of K-op  integral file:               1.19 MB
 Length of 3-ext integral record:             0.00 MB

 Integral transformation finished. Total CPU:   1.38 sec, npass=  1  Memory used:  34.66 MW

 Reference energy:                  -1889.33644285

 MP2 singlet pair energy:              -0.74468491
 MP2 triplet pair energy:              -0.51226971
 MP2 correlation energy:               -1.25695462
 MP2 total energy:                  -1890.59339748

 SCS-MP2 correlation energy:           -1.21236749   (PS=  1.200000  PT=  0.333333)
 SCS-MP2 total energy:              -1890.54881035

 ITER.      SQ.NORM     CORR.ENERGY   TOTAL ENERGY   ENERGY CHANGE        DEN1      VAR(S)    VAR(P)  DIIS     TIME  TIME/IT
   1      1.44259385    -1.29431829 -1890.63076114    -0.03736366     0.01135068  0.16D-01  0.11D-01  1  1    13.28     8.09
   2      1.48683884    -1.29823468 -1890.63467753    -0.00391639    -0.03968638  0.43D-03  0.20D-02  2  2    21.72     8.82
   3      1.51269333    -1.29953866 -1890.63598152    -0.00130399    -0.01020348  0.50D-03  0.11D-03  3  3    29.47     8.69
   4      1.52293421    -1.29952046 -1890.63596332     0.00001820    -0.00255554  0.93D-04  0.33D-04  4  4    38.86     9.11
   5      1.53021991    -1.29953694 -1890.63597980    -0.00001648    -0.00108256  0.25D-04  0.54D-05  5  5    47.94     9.29
   6      1.53332144    -1.29947612 -1890.63591897     0.00006082    -0.00022832  0.55D-05  0.14D-05  6  6    56.97     9.45
   7      1.53452749    -1.29944795 -1890.63589080     0.00002817    -0.00006286  0.14D-05  0.39D-06  6  2    65.98     9.54
   8      1.53496748    -1.29944568 -1890.63588853     0.00000227    -0.00002645  0.41D-06  0.10D-06  6  1    74.52     9.53
   9      1.53519122    -1.29944332 -1890.63588618     0.00000235    -0.00000577  0.84D-07  0.20D-07  6  3    83.70     9.62
  10      1.53521829    -1.29944538 -1890.63588824    -0.00000206     0.00000210  0.17D-07  0.66D-08  6  5    92.22     9.61
  11      1.53523889    -1.29944650 -1890.63588936    -0.00000112     0.00000341  0.41D-08  0.13D-08  6  4   101.27     9.65
  12      1.53524049    -1.29944668 -1890.63588953    -0.00000018     0.00000100  0.12D-08  0.38D-09  6  6   111.27     9.77
  13      1.53523168    -1.29944701 -1890.63588986    -0.00000033     0.00000108  0.28D-09  0.11D-09  6  1   120.71     9.82

 Norm of t1 vector:      0.20961783      S-energy:     0.00000043      T1 diagnostic:  0.02139403
                                                                       D1 diagnostic:  0.08238896
                                                                       D2 diagnostic:  0.16334480 (external, symmetry=1)


 RESULTS
 =======

  Reference energy                  -1889.336442854520
  CCSD singlet pair energy             -0.849483967564
  CCSD triplet pair energy             -0.449963467316
  CCSD correlation energy              -1.299447006259

 !CCSD total energy                 -1890.635889860779

 Timing summary (sec):

 STEP                 CPU(USER)    SYS     CPU(TOT)    WALL
 Transformation          1.48      0.17      1.65      1.90
 CCSD iterations       119.38      3.67    123.05    128.07

 Program statistics:

 Available memory in ccsd:               393213648
 Min. memory needed in ccsd:               5141127
 Max. memory used in ccsd:                 6669831
 Max. memory used in cckext:              10176573 (13 integral passes)



 **********************************************************************************************************************************
 DATASETS  * FILE   NREC   LENGTH (MB)   RECORD NAMES
              1      20      236.96       500      610      700      900      950      970     1000      129      960     1100   
                                          VAR    BASINP    GEOM    SYMINP    ZMAT    AOBASIS   BASIS     P2S    ABASIS      S 
                                         1400     1410     1200     1210     1080     1600     1650     1300     1700     1380   
                                           T        V       H0       H01     AOSYM     SMH    MOLCAS    ERIS     OPER     JKOP   

              2       4        0.76       700     1000      520     2100   
                                         GEOM     BASIS   MCVARS     RHF  

 PROGRAMS   *        TOTAL      CCSD    HF-SCF       INT
 CPU TIMES  *       120.79    116.27      2.23      2.20
 REAL TIME  *       138.34 SEC
 DISK USED  *       552.58 MB
 **********************************************************************************************************************************

 Dump information in style XML to xml output                                                                      

 Orbitals will not be exported.

 **********************************************************************************************************************************

 CCSD/cc-pVDZ energy=  -1890.635889860779

            CCSD          HF-SCF
  -1890.63588986  -1889.33644285
 **********************************************************************************************************************************
 Molpro calculation terminated
