
 Working directory              : /var/folders/2v/xbgp75_9785319ghcgb4zr4r0000gp/T//molpro.4TVDug8Fbr/
 Global scratch directory       : /var/folders/2v/xbgp75_9785319ghcgb4zr4r0000gp/T//molpro.4TVDug8Fbr/
 Wavefunction directory         : /Users/sacpjk/wfu/
 Main file repository           : /var/folders/2v/xbgp75_9785319ghcgb4zr4r0000gp/T//molpro.4TVDug8Fbr/

 id        : peterk

 Nodes                        nprocs
 Cardiff-University-G34YLXT77Y    1
 GA implementation: MPI file
 GA implementation (serial work in mppx): MPI file

 Using customized tuning parameters: mindgm=1; mindgv=20; mindgc=4; mindgr=1; noblas=0; minvec=7
 default implementation of scratch files=df  


 Variables initialized (1032), CPU time= 0.00 sec
 
 symmetry,nosym
 
 
 geometry={
 3
  o         -0.173427461842   -0.355965673914    0.000000000000
  h         -0.596555870428    0.503630414469    0.000000000000
  h          0.769983332271   -0.147664740503    0.000000000000
 }
 basis=aug-cc-pVTZ
 
 
 
 hf; hf; papt; mp4
 
 
 
 {put,xml;noorbitals,nobasis}
 Commands initialized (841), CPU time= 0.01 sec, 704 directives.
 Default parameters read. Elapsed time= 2.04 sec

 Checking input...
 Passed
1


                                         ***  PROGRAM SYSTEM MOLPRO  ***
                                       Copyright, TTI GmbH Stuttgart, 2015
                                    Version 2023.1 linked Tue Jun  6 09:54:11 2023


 **********************************************************************************************************************************
 LABEL *                                                                                                                                                                 
  64 bit serial version                                                                  DATE: 09-Jun-23          TIME: 01:37:02  
 **********************************************************************************************************************************

 SHA1:             8ebb0dd001088a5c915591db1a321413035db0b1
 **********************************************************************************************************************************

 Memory per process:       805 MW
 Total memory per node:   1074 MW
 Total GA space:           268 MW

 GA preallocation disabled
 GA check enabled

 Variable memory set to 805.3 MW

 ZSYMEL=NOSYM


 Geometry recognized as XYZ

 SETTING BASIS          =    AUG-CC-PVTZ


 Recomputing integrals since basis changed


 Using spherical harmonics

 Library entry O      S aug-cc-pVTZ          selected for orbital group  1
 Library entry O      P aug-cc-pVTZ          selected for orbital group  1
 Library entry O      D aug-cc-pVTZ          selected for orbital group  1
 Library entry O      F aug-cc-pVTZ          selected for orbital group  1
 Library entry H      S aug-cc-pVTZ          selected for orbital group  2
 Library entry H      P aug-cc-pVTZ          selected for orbital group  2
 Library entry H      D aug-cc-pVTZ          selected for orbital group  2


 PROGRAM * SEWARD (Integral evaluation for generally contracted gaussian basis sets)     Author: Roland Lindh, 1990

 Geometry written to block  1 of record 700


 Point group  C1  



 ATOMIC COORDINATES

 NR  ATOM    CHARGE       X              Y              Z

   1  O       8.00   -0.327730405   -0.672677633    0.000000000
   2  H       1.00   -1.127327213    0.951723551    0.000000000
   3  H       1.00    1.455057619   -0.279045918    0.000000000

 Bond lengths in Bohr (Angstrom)

 1-2  1.810534248  1-3  1.825726996
     ( 0.958093464)     ( 0.966133120)

 Bond angles

  2-1-3  103.75741037

 NUCLEAR CHARGE:                   10
 NUMBER OF PRIMITIVE AOS:         121
 NUMBER OF SYMMETRY AOS:          108
 NUMBER OF CONTRACTIONS:           92   (   92A   )
 NUMBER OF INNER CORE ORBITALS:     0   (    0A   )
 NUMBER OF OUTER CORE ORBITALS:     1   (    1A   )
 NUMBER OF VALENCE ORBITALS:        6   (    6A   )


 NUCLEAR REPULSION ENERGY    9.14996834

 EXTRA SYMMETRY OF AOS IN SYMMETRY 1:   1 1 1 1 1 1 1 2 1 1   2 1 1 2 1 1 2 1 1 2   1 2 1 1 2 1 2 1 1 2   1 2 1 1 2 1 2 1 2 1
                                        1 2 1 2 1 2 1 1 1 1   1 1 2 1 1 2 1 1 2 1   1 2 1 2 1 1 2 1 2 1   1 1 1 1 1 2 1 1 2 1
                                        1 2 1 1 2 1 2 1 1 2   1 2

 Eigenvalues of metric

         1 0.387E-03 0.401E-03 0.167E-02 0.187E-02 0.325E-02 0.513E-02 0.566E-02 0.603E-02


 Contracted 2-electron integrals neglected if value below      1.0D-11
 AO integral compression algorithm  1   Integral accuracy      1.0D-11

     28.836 MB (compressed) written to integral file ( 29.9%)


 NUMBER OF SORTED TWO-ELECTRON INTEGRALS:    9152781.     BUFFER LENGTH:  32768
 NUMBER OF SEGMENTS:   1  SEGMENT LENGTH:    9152781      RECORD LENGTH: 524288

 Memory used in sort:       9.71 MW

 SORT1 READ    11938930. AND WROTE     4389820. INTEGRALS IN     13 RECORDS. CPU TIME:     0.05 SEC, REAL TIME:     0.09 SEC
 SORT2 READ     4389820. AND WROTE     9152781. INTEGRALS IN    110 RECORDS. CPU TIME:     0.10 SEC, REAL TIME:     0.12 SEC

 FILE SIZES:   FILE 1:    59.2 MBYTE,  FILE 4:    54.6 MBYTE,   TOTAL:    113.8 MBYTE

 OPERATOR DM      FOR CENTER  0  COORDINATES:    0.000000    0.000000    0.000000


 **********************************************************************************************************************************
 DATASETS  * FILE   NREC   LENGTH (MB)   RECORD NAMES
              1      19       49.52       500      610      700      900      950      970     1000      129      960     1100   
                                          VAR    BASINP    GEOM    SYMINP    ZMAT    AOBASIS   BASIS     P2S    ABASIS      S 
                                         1400     1410     1200     1210     1080     1600     1650     1300     1700   
                                           T        V       H0       H01     AOSYM     SMH    MOLCAS    ERIS     OPER   

 PROGRAMS   *        TOTAL       INT
 CPU TIMES  *         0.52      0.41
 REAL TIME  *         5.94 SEC
 DISK USED  *       108.86 MB
 **********************************************************************************************************************************


 Program * Restricted Hartree-Fock

 Orbital guess generated from atomic densities. Full valence occupancy:    7

 Initial occupancy:   5

 NELEC=   10   SYM=1   MS2= 0   THRE=1.0D-08   THRD=3.2D-06   THRG=3.2D-06  HFMA2=F  DIIS_START=2   DIIS_MAX=10   DIIS_INCORE=F

 Level shifts:    0.00 (CLOSED)    0.00 (OPEN)    0.30 (GAP_MIN)

 ITER           ETOT              DE          GRAD        DDIFF     DIIS  NEXP   TIME(IT)  TIME(TOT)  DIAG
   1      -76.02216419     -76.02216419     0.00D+00     0.66D-01     0     0       0.03      0.07    start
   2      -76.04898971      -0.02682552     0.10D-01     0.11D-01     1     0       0.04      0.11    diag
   3      -76.05995730      -0.01096760     0.65D-02     0.39D-02     2     0       0.04      0.15    diag
   4      -76.06014024      -0.00018293     0.60D-03     0.51D-03     3     0       0.04      0.19    diag
   5      -76.06015844      -0.00001820     0.16D-03     0.16D-03     4     0       0.04      0.23    diag
   6      -76.06015949      -0.00000105     0.31D-04     0.37D-04     5     0       0.04      0.27    diag
   7      -76.06015954      -0.00000005     0.59D-05     0.10D-04     6     0       0.04      0.31    diag
   8      -76.06015954      -0.00000000     0.11D-05     0.18D-05     7     0       0.03      0.34    fixocc
   9      -76.06015954      -0.00000000     0.13D-06     0.13D-06     0     0       0.04      0.38    diag

 Final occupancy:   5

 !RHF STATE 1.1 Energy                -76.060159536518
  RHF One-electron energy            -122.961408393747
  RHF Two-electron energy              37.751280517816
  RHF Kinetic energy                   75.940922018007
  RHF Nuclear energy                    9.149968339412
  RHF Virial quotient                  -1.001570135249

 !RHF STATE 1.1 Dipole moment           0.34318010     0.70765182     0.00000000
 Dipole moment /Debye                   0.87227681     1.79867153     0.00000000

 Orbital energies:

           1.1          2.1          3.1          4.1          5.1          6.1          7.1
    -20.568381    -1.351651    -0.713717    -0.585488    -0.510184     0.029333     0.047713


 HOMO      5.1    -0.510184 =     -13.8828eV
 LUMO      6.1     0.029333 =       0.7982eV
 LUMO-HOMO         0.539517 =      14.6810eV

 Orbitals saved in record  2100.2


 **********************************************************************************************************************************
 DATASETS  * FILE   NREC   LENGTH (MB)   RECORD NAMES
              1      19       49.52       500      610      700      900      950      970     1000      129      960     1100   
                                          VAR    BASINP    GEOM    SYMINP    ZMAT    AOBASIS   BASIS     P2S    ABASIS      S 
                                         1400     1410     1200     1210     1080     1600     1650     1300     1700   
                                           T        V       H0       H01     AOSYM     SMH    MOLCAS    ERIS     OPER   

              2       4        0.55       700     1000      520     2100   
                                         GEOM     BASIS   MCVARS     RHF  

 PROGRAMS   *        TOTAL    HF-SCF       INT
 CPU TIMES  *         0.90      0.38      0.41
 REAL TIME  *         7.38 SEC
 DISK USED  *       108.86 MB
 **********************************************************************************************************************************


 Program * Restricted Hartree-Fock

 Molecular orbitals read from record     2100.2  Type=RHF/CANONICAL  

 Initial occupancy:   5

 NELEC=   10   SYM=1   MS2= 0   THRE=1.0D-08   THRD=3.2D-06   THRG=3.2D-06  HFMA2=F  DIIS_START=2   DIIS_MAX=10   DIIS_INCORE=F

 Level shifts:    0.00 (CLOSED)    0.00 (OPEN)    0.30 (GAP_MIN)

 ITER           ETOT              DE          GRAD        DDIFF     DIIS  NEXP   TIME(IT)  TIME(TOT)  DIAG
   1      -76.06015954     -76.06015954     0.00D+00     0.68D-01     0     0       0.04      0.04    start
   2      -76.06015954      -0.00000000     0.55D-07     0.55D-07     1     0       0.04      0.08    diag

 Final occupancy:   5

 !RHF STATE 1.1 Energy                -76.060159536521
  RHF One-electron energy            -122.961412971936
  RHF Two-electron energy              37.751285096002
  RHF Kinetic energy                   75.940926887130
  RHF Nuclear energy                    9.149968339412
  RHF Virial quotient                  -1.001570071031

 !RHF STATE 1.1 Dipole moment           0.34318004     0.70765173     0.00000000
 Dipole moment /Debye                   0.87227667     1.79867128     0.00000000

 Orbital energies:

           1.1          2.1          3.1          4.1          5.1          6.1          7.1
    -20.568382    -1.351652    -0.713717    -0.585488    -0.510185     0.029333     0.047713


 HOMO      5.1    -0.510185 =     -13.8828eV
 LUMO      6.1     0.029333 =       0.7982eV
 LUMO-HOMO         0.539518 =      14.6810eV

 Orbitals saved in record  2101.2


 **********************************************************************************************************************************
 DATASETS  * FILE   NREC   LENGTH (MB)   RECORD NAMES
              1      19       49.52       500      610      700      900      950      970     1000      129      960     1100   
                                          VAR    BASINP    GEOM    SYMINP    ZMAT    AOBASIS   BASIS     P2S    ABASIS      S 
                                         1400     1410     1200     1210     1080     1600     1650     1300     1700   
                                           T        V       H0       H01     AOSYM     SMH    MOLCAS    ERIS     OPER   

              2       5        0.88       700     1000      520     2100     2101   
                                         GEOM     BASIS   MCVARS     RHF      RHF  

 PROGRAMS   *        TOTAL    HF-SCF    HF-SCF       INT
 CPU TIMES  *         0.99      0.09      0.38      0.41
 REAL TIME  *         8.17 SEC
 DISK USED  *       108.86 MB
 **********************************************************************************************************************************


 PROGRAM * PAPT (Closed-shell)     Authors: C. Hampel, H.-J. Werner, 1991, P.J. Knowles, 2021


 Convergence thresholds:  THRVAR = 1.00D-08  THRDEN = 1.00D-06

 Number of core orbitals:           1 (   1 )
 Number of closed-shell orbitals:   4 (   4 )
 Number of external orbitals:      87 (  87 )

 Molecular orbitals read from record     2101.2  Type=RHF/CANONICAL  

 Number of N-1 electron functions:               4
 Number of N-2 electron functions:              10
 Number of singly external CSFs:               348
 Number of doubly external CSFs:             60726
 Total number of CSFs:                       61075

 Length of J-op  integral file:               0.00 MB
 Length of K-op  integral file:               0.64 MB

 Integral transformation finished. Total CPU:   0.04 sec, npass=  1  Memory used:   0.33 MW

 Reference energy:                    -76.06015954

                        CORR.ENERGY   TOTAL ENERGY   ENERGY CHANGE
 MP2:                   -0.26879776   -76.32895730    -0.26879776

 SCS-MP2 correlation energy:           -0.26601487   (PS=  1.200000  PT=  0.333333)
 SCS-MP2 total energy:                -76.32617440
 Iteration:   1     0.2140D+00
 Iteration:   2     0.1932D+00
 Iteration:   3     0.8261D-01
 Iteration:   4     0.1548D-01
 Iteration:   5     0.2334D-01
 Iteration:   6     0.6108D-02
 Iteration:   7     0.2899D-02
 Iteration:   8     0.1917D-01
 Iteration:   9     0.6404D-03
 Iteration:  10     0.7573D-03
 Iteration:  11     0.3303D-03
 Iteration:  12     0.8617D-04
 PAPT operator written to  7000.1
 PAPT orbitals and eigenvalues written to  7000.2

 MP3(D):                -0.27138084   -76.33154037    -0.00258307



 RESULTS
 =======

  Reference energy                    -76.060159536521
  MP3 singlet pair energy              -0.182185489122
  MP3 triplet pair energy              -0.089195346568
  MP3 correlation energy               -0.271380835691

 !MP3 total energy                    -76.331540372212

 Timing summary (sec):

 STEP                 CPU(USER)    SYS     CPU(TOT)    WALL
 Transformation          0.05      0.01      0.06      0.34
 CCSD iterations         1.25      0.03      1.28      2.95

 Program statistics:

 Available memory in ccsd:               805306299
 Min. memory needed in ccsd:                288418
 Max. memory used in ccsd:                  330600
 Max. memory used in cckext:                240690 ( 1 integral passes)



 **********************************************************************************************************************************
 DATASETS  * FILE   NREC   LENGTH (MB)   RECORD NAMES
              1      21       50.65       500      610      700      900      950      970     1000      129      960     1100   
                                          VAR    BASINP    GEOM    SYMINP    ZMAT    AOBASIS   BASIS     P2S    ABASIS      S 
                                         1400     1410     1200     1210     1080     1600     1650     1300     1700     1380   
                                           T        V       H0       H01     AOSYM     SMH    MOLCAS    ERIS     OPER     JKOP   
                                         7000   
                                        PAPT AO    

              2       6        1.17       700     1000      520     2100     2101     7000   
                                         GEOM     BASIS   MCVARS     RHF      RHF     PAPT   

 PROGRAMS   *        TOTAL      PAPT    HF-SCF    HF-SCF       INT
 CPU TIMES  *         1.20      0.21      0.09      0.38      0.41
 REAL TIME  *        11.80 SEC
 DISK USED  *       108.86 MB
 **********************************************************************************************************************************


 PROGRAM * MP4 (Closed-shell)     Authors: C. Hampel, H.-J. Werner, 1991, M. Deegan, P.J. Knowles, 1992


 Convergence thresholds:  THRVAR = 1.00D-08  THRDEN = 1.00D-06

 MP4(T)     terms to be evaluated (factor= 0.000)


 Number of core orbitals:           1 (   1 )
 Number of closed-shell orbitals:   4 (   4 )
 Number of external orbitals:      87 (  87 )

 Molecular orbitals read from record     7000.2  Type=PAPT/CANONICAL (state 1.1)

 Number of N-1 electron functions:               4
 Number of N-2 electron functions:              10
 Number of singly external CSFs:               348
 Number of doubly external CSFs:             60726
 Total number of CSFs:                       61075

 Length of J-op  integral file:               0.00 MB
 Length of K-op  integral file:               0.64 MB

 Memory could be reduced to 4.57 Mwords without degradation in triples

 Integral transformation finished. Total CPU:   0.10 sec, npass=  1  Memory used:   2.30 MW
 Orbital energies read from record       7000.2  Type=PAPT/CANONICAL (state 1.1)

 Reference energy:                    -76.06015954

                        CORR.ENERGY   TOTAL ENERGY   ENERGY CHANGE
 MP2:                   -0.27323542   -76.33339495    -0.27323542

 SCS-MP2 correlation energy:           -0.27110264   (PS=  1.200000  PT=  0.333333)
 SCS-MP2 total energy:                -76.33126218

 MP3(D):                -0.27330973   -76.33346927    -0.00007432
 MP4(DQ):               -0.27172518   -76.33188472     0.00158455
 MP4(SDQ):              -0.27324395   -76.33340349    -0.00151878

 Norm of t1 vector:      0.02908189      S-energy:    -0.00151878      T1 diagnostic:  0.00727047

 Largest off-diagonal element in interal  block of Fock matrix:  0.98D-01
 Largest off-diagonal element in external block of Fock matrix:  0.51D+00


 Total CPU time for triples:      0.29 sec


 RESULTS
 =======

  Reference energy                    -76.060159536521
  MP4(SDQ) singlet pair energy         -0.181956803046
  MP4(SDQ) triplet pair energy         -0.089768375547
  MP4(SDQ) correlation energy          -0.273243953945

  Triples contribution                 -0.009563000973
  Total correlation energy             -0.282806954918

  MP4(SDQ) total energy               -76.333403490466
 !MP4(SDTQ) total energy              -76.342966491439

 Timing summary (sec):

 STEP                 CPU(USER)    SYS     CPU(TOT)    WALL
 Transformation          0.14      0.02      0.16      0.86
 CCSD iterations         1.41      0.01      1.42      1.03
 Triples                 0.29      0.02      0.31      0.35

 Program statistics:

 Available memory in ccsd:               805306299
 Min. memory needed in ccsd:                288418
 Max. memory used in ccsd:                  330600
 Max. memory used in cckext:                240690 ( 1 integral passes)



 **********************************************************************************************************************************
 DATASETS  * FILE   NREC   LENGTH (MB)   RECORD NAMES
              1      22       60.82       500      610      700      900      950      970     1000      129      960     1100   
                                          VAR    BASINP    GEOM    SYMINP    ZMAT    AOBASIS   BASIS     P2S    ABASIS      S 
                                         1400     1410     1200     1210     1080     1600     1650     1300     1700     1380   
                                           T        V       H0       H01     AOSYM     SMH    MOLCAS    ERIS     OPER     JKOP   
                                         7000     1380(1)
                                        PAPT AO   JKOP   

              2       6        1.17       700     1000      520     2100     2101     7000   
                                         GEOM     BASIS   MCVARS     RHF      RHF     PAPT   

 PROGRAMS   *        TOTAL       MP4      PAPT    HF-SCF    HF-SCF       INT
 CPU TIMES  *         1.74      0.54      0.21      0.09      0.38      0.41
 REAL TIME  *        14.82 SEC
 DISK USED  *       108.86 MB
 **********************************************************************************************************************************

 Dump information in style XML to xml output                                                                      

 Orbitals will not be exported.

 **********************************************************************************************************************************

 MP4/aug-cc-pVTZ energy=    -76.342966491439

             MP4            PAPT          HF-SCF          HF-SCF
    -76.34296649    -76.33154037    -76.06015954    -76.06015954
 **********************************************************************************************************************************
 Molpro calculation terminated
