
 Working directory              : /var/folders/2v/xbgp75_9785319ghcgb4zr4r0000gp/T//molpro.VGttVXU5Ae/
 Global scratch directory       : /var/folders/2v/xbgp75_9785319ghcgb4zr4r0000gp/T//molpro.VGttVXU5Ae/
 Wavefunction directory         : /Users/sacpjk/wfu/
 Main file repository           : /var/folders/2v/xbgp75_9785319ghcgb4zr4r0000gp/T//molpro.VGttVXU5Ae/

 id        : peterk

 Nodes                        nprocs
 Cardiff-University-G34YLXT77Y    1
 GA implementation: MPI file
 GA implementation (serial work in mppx): MPI file

 Using customized tuning parameters: mindgm=1; mindgv=20; mindgc=4; mindgr=1; noblas=0; minvec=7
 default implementation of scratch files=df  


 Variables initialized (1032), CPU time= 0.00 sec
 
 symmetry,nosym
 
 
 geometry={
 10
  n         -0.472418023626   -0.617684221153   -0.406552790556
  h         -0.568105431702   -1.586515261346   -0.130699879797
  h         -1.061557690768   -0.504250153419   -1.221312648750
  c         -0.955863483772    0.250395392662    0.673824908288
  h         -0.851713729789    1.287461032818    0.365972610155
  h         -1.993691320675    0.076991420521    0.964955047145
  h         -0.323977432017    0.110710186799    1.547065638608
  o          2.154314357207    0.579220653648   -0.301451296474
  h          1.336796948963    0.082948165603   -0.474604198882
  h          2.736215806180    0.320722783867   -1.017197389739
 }
 basis=aug-cc-pVDZ
 
 
 
 hf; hf; papt; mp3; counterpoise
 
 
 
 {put,xml;noorbitals,nobasis}
 Commands initialized (841), CPU time= 0.00 sec, 704 directives.
 Default parameters read. Elapsed time= 0.71 sec

 Checking input...
 Passed
1


                                         ***  PROGRAM SYSTEM MOLPRO  ***
                                       Copyright, TTI GmbH Stuttgart, 2015
                                    Version 2023.1 linked Tue Jun  6 09:54:11 2023


 **********************************************************************************************************************************
 LABEL *                                                                                                                                                                 
  64 bit serial version                                                                  DATE: 08-Jun-23          TIME: 16:19:13  
 **********************************************************************************************************************************

 SHA1:             8ebb0dd001088a5c915591db1a321413035db0b1
 **********************************************************************************************************************************

 Memory per process:       805 MW
 Total memory per node:   1074 MW
 Total GA space:           268 MW

 GA preallocation disabled
 GA check enabled

 Variable memory set to 805.3 MW

 ZSYMEL=NOSYM


 Geometry recognized as XYZ

 SETTING BASIS          =    AUG-CC-PVDZ


 Recomputing integrals since basis changed


 Using spherical harmonics

 Library entry N      S aug-cc-pVDZ          selected for orbital group  1
 Library entry N      P aug-cc-pVDZ          selected for orbital group  1
 Library entry N      D aug-cc-pVDZ          selected for orbital group  1
 Library entry H      S aug-cc-pVDZ          selected for orbital group  2
 Library entry H      P aug-cc-pVDZ          selected for orbital group  2
 Library entry C      S aug-cc-pVDZ          selected for orbital group  3
 Library entry C      P aug-cc-pVDZ          selected for orbital group  3
 Library entry C      D aug-cc-pVDZ          selected for orbital group  3
 Library entry O      S aug-cc-pVDZ          selected for orbital group  5
 Library entry O      P aug-cc-pVDZ          selected for orbital group  5
 Library entry O      D aug-cc-pVDZ          selected for orbital group  5


 PROGRAM * SEWARD (Integral evaluation for generally contracted gaussian basis sets)     Author: Roland Lindh, 1990

 Geometry written to block  1 of record 700


 Point group  C1  



 ATOMIC COORDINATES

 NR  ATOM    CHARGE       X              Y              Z

   1  N       7.00   -0.892740681   -1.167254009   -0.768273429
   2  H       1.00   -1.073563676   -2.998079336   -0.246986977
   3  H       1.00   -2.006053301   -0.952894688   -2.307946419
   4  C       6.00   -1.806320197    0.473178715    1.273344533
   5  H       1.00   -1.609505686    2.432948748    0.691588002
   6  H       1.00   -3.767530573    0.145492699    1.823500762
   7  H       1.00   -0.612228617    0.209211932    2.923530354
   8  O       8.00    4.071064121    1.094568401   -0.569660390
   9  H       1.00    2.526180118    0.156749316   -0.896871953
  10  H       1.00    5.170698492    0.606078223   -1.922224481

 Bond lengths in Bohr (Angstrom)

 1-2  1.912160532  1-3  1.912068990  1-4  2.773779183  4-5  2.053746624  4-6  2.063103522
     ( 1.011871777)     ( 1.011823335)     ( 1.467820732)     ( 1.086795910)     ( 1.091747367)

  4- 7  2.053934373   8- 9  1.836637860   8-10  1.810317105
       ( 1.086895263)       ( 0.971906900)       ( 0.957978557)

 Bond angles

  1-4-5  108.92232449   1-4-6  114.54691082   1-4-7  108.89704666   2-1-3  105.77144000

  2-1-4  109.53896727   3-1-4  109.54911814   5-4-6  108.55407821   5-4-7  107.12795867

  6- 4- 7  108.54184764   9- 8-10  103.88906569

 NUCLEAR CHARGE:                   28
 NUMBER OF PRIMITIVE AOS:         188
 NUMBER OF SYMMETRY AOS:          182
 NUMBER OF CONTRACTIONS:          132   (  132A   )
 NUMBER OF INNER CORE ORBITALS:     0   (    0A   )
 NUMBER OF OUTER CORE ORBITALS:     3   (    3A   )
 NUMBER OF VALENCE ORBITALS:       19   (   19A   )


 NUCLEAR REPULSION ENERGY   81.87844190


 Eigenvalues of metric

         1 0.217E-03 0.486E-03 0.563E-03 0.722E-03 0.897E-03 0.108E-02 0.123E-02 0.176E-02


 Contracted 2-electron integrals neglected if value below      1.0D-11
 AO integral compression algorithm  1   Integral accuracy      1.0D-11

     185.860 MB (compressed) written to integral file ( 52.1%)


 NUMBER OF SORTED TWO-ELECTRON INTEGRALS:   38531031.     BUFFER LENGTH:  32768
 NUMBER OF SEGMENTS:   3  SEGMENT LENGTH:   15998004      RECORD LENGTH: 524288

 Memory used in sort:      16.56 MW

 SORT1 READ    44603879. AND WROTE    38044884. INTEGRALS IN    111 RECORDS. CPU TIME:     0.26 SEC, REAL TIME:     0.37 SEC
 SORT2 READ    38044884. AND WROTE    38531031. INTEGRALS IN    709 RECORDS. CPU TIME:     0.28 SEC, REAL TIME:     0.36 SEC

 FILE SIZES:   FILE 1:   216.7 MBYTE,  FILE 4:   465.6 MBYTE,   TOTAL:    682.3 MBYTE

 OPERATOR DM      FOR CENTER  0  COORDINATES:    0.000000    0.000000    0.000000


 **********************************************************************************************************************************
 DATASETS  * FILE   NREC   LENGTH (MB)   RECORD NAMES
              1      19      185.38       500      610      700      900      950      970     1000      129      960     1100   
                                          VAR    BASINP    GEOM    SYMINP    ZMAT    AOBASIS   BASIS     P2S    ABASIS      S 
                                         1400     1410     1200     1210     1080     1600     1650     1300     1700   
                                           T        V       H0       H01     AOSYM     SMH    MOLCAS    ERIS     OPER   

 PROGRAMS   *        TOTAL       INT
 CPU TIMES  *         1.59      1.49
 REAL TIME  *         3.88 SEC
 DISK USED  *       651.18 MB
 **********************************************************************************************************************************


 Program * Restricted Hartree-Fock

 Orbital guess generated from atomic densities. Full valence occupancy:   22

 Initial occupancy:  14

 NELEC=   28   SYM=1   MS2= 0   THRE=1.0D-08   THRD=3.2D-06   THRG=3.2D-06  HFMA2=F  DIIS_START=2   DIIS_MAX=10   DIIS_INCORE=F

 Level shifts:    0.00 (CLOSED)    0.00 (OPEN)    0.30 (GAP_MIN)

 ITER           ETOT              DE          GRAD        DDIFF     DIIS  NEXP   TIME(IT)  TIME(TOT)  DIAG
   1     -171.21445454    -171.21445454     0.00D+00     0.76D-01     0     0       0.14      0.28    start
   2     -171.26490288      -0.05044834     0.62D-02     0.10D-01     1     0       0.16      0.44    diag
   3     -171.27858135      -0.01367847     0.34D-02     0.34D-02     2     0       0.15      0.59    diag
   4     -171.27933180      -0.00075045     0.57D-03     0.93D-03     3     0       0.15      0.74    diag
   5     -171.27937299      -0.00004119     0.12D-03     0.22D-03     4     0       0.15      0.89    diag
   6     -171.27937627      -0.00000328     0.37D-04     0.62D-04     5     0       0.15      1.04    diag
   7     -171.27937666      -0.00000039     0.12D-04     0.21D-04     6     0       0.15      1.19    diag
   8     -171.27937668      -0.00000002     0.23D-05     0.49D-05     7     0       0.15      1.34    fixocc
   9     -171.27937668      -0.00000000     0.78D-06     0.16D-05     8     0       0.15      1.49    diag
  10     -171.27937668      -0.00000000     0.19D-06     0.34D-06     0     0       0.14      1.63    diag/orth

 Final occupancy:  14

 !RHF STATE 1.1 Energy               -171.279376683988
  RHF One-electron energy            -395.725854116207
  RHF Two-electron energy             142.568035531342
  RHF Kinetic energy                  171.036926965807
  RHF Nuclear energy                   81.878441900878
  RHF Virial quotient                  -1.001417528498

 !RHF STATE 1.1 Dipole moment          -0.97414048    -0.70241374    -0.42328618
 Dipole moment /Debye                  -2.47601813    -1.78535766    -1.07588615

 Orbital energies:

           1.1          2.1          3.1          4.1          5.1          6.1          7.1          8.1          9.1         10.1
    -20.535036   -15.569589   -11.256733    -1.315236    -1.192785    -0.910288    -0.685849    -0.680213    -0.615336    -0.568841

          11.1         12.1         13.1         14.1         15.1         16.1
     -0.550944    -0.527949    -0.470333    -0.415750     0.030601     0.047113


 HOMO     14.1    -0.415750 =     -11.3131eV
 LUMO     15.1     0.030601 =       0.8327eV
 LUMO-HOMO         0.446351 =      12.1458eV

 Orbitals saved in record  2100.2


 **********************************************************************************************************************************
 DATASETS  * FILE   NREC   LENGTH (MB)   RECORD NAMES
              1      19      185.38       500      610      700      900      950      970     1000      129      960     1100   
                                          VAR    BASINP    GEOM    SYMINP    ZMAT    AOBASIS   BASIS     P2S    ABASIS      S 
                                         1400     1410     1200     1210     1080     1600     1650     1300     1700   
                                           T        V       H0       H01     AOSYM     SMH    MOLCAS    ERIS     OPER   

              2       4        0.81       700     1000      520     2100   
                                         GEOM     BASIS   MCVARS     RHF  

 PROGRAMS   *        TOTAL    HF-SCF       INT
 CPU TIMES  *         3.22      1.63      1.49
 REAL TIME  *         6.37 SEC
 DISK USED  *       651.18 MB
 **********************************************************************************************************************************


 Program * Restricted Hartree-Fock

 Molecular orbitals read from record     2100.2  Type=RHF/CANONICAL  

 Initial occupancy:  14

 NELEC=   28   SYM=1   MS2= 0   THRE=1.0D-08   THRD=3.2D-06   THRG=3.2D-06  HFMA2=F  DIIS_START=2   DIIS_MAX=10   DIIS_INCORE=F

 Level shifts:    0.00 (CLOSED)    0.00 (OPEN)    0.30 (GAP_MIN)

 ITER           ETOT              DE          GRAD        DDIFF     DIIS  NEXP   TIME(IT)  TIME(TOT)  DIAG
   1     -171.27937668    -171.27937668     0.00D+00     0.78D-01     0     0       0.14      0.14    start
   2     -171.27937668      -0.00000000     0.80D-07     0.14D-06     1     0       0.15      0.29    diag

 Final occupancy:  14

 !RHF STATE 1.1 Energy               -171.279376684011
  RHF One-electron energy            -395.725866979161
  RHF Two-electron energy             142.568048394273
  RHF Kinetic energy                  171.036932172169
  RHF Nuclear energy                   81.878441900878
  RHF Virial quotient                  -1.001417498015

 !RHF STATE 1.1 Dipole moment          -0.97413867    -0.70241370    -0.42328644
 Dipole moment /Debye                  -2.47601353    -1.78535754    -1.07588681

 Orbital energies:

           1.1          2.1          3.1          4.1          5.1          6.1          7.1          8.1          9.1         10.1
    -20.535036   -15.569588   -11.256739    -1.315236    -1.192785    -0.910290    -0.685848    -0.680213    -0.615337    -0.568842

          11.1         12.1         13.1         14.1         15.1         16.1
     -0.550944    -0.527950    -0.470334    -0.415750     0.030601     0.047113


 HOMO     14.1    -0.415750 =     -11.3131eV
 LUMO     15.1     0.030601 =       0.8327eV
 LUMO-HOMO         0.446351 =      12.1458eV

 Orbitals saved in record  2101.2


 **********************************************************************************************************************************
 DATASETS  * FILE   NREC   LENGTH (MB)   RECORD NAMES
              1      19      185.38       500      610      700      900      950      970     1000      129      960     1100   
                                          VAR    BASINP    GEOM    SYMINP    ZMAT    AOBASIS   BASIS     P2S    ABASIS      S 
                                         1400     1410     1200     1210     1080     1600     1650     1300     1700   
                                           T        V       H0       H01     AOSYM     SMH    MOLCAS    ERIS     OPER   

              2       5        1.38       700     1000      520     2100     2101   
                                         GEOM     BASIS   MCVARS     RHF      RHF  

 PROGRAMS   *        TOTAL    HF-SCF    HF-SCF       INT
 CPU TIMES  *         3.53      0.30      1.63      1.49
 REAL TIME  *         7.48 SEC
 DISK USED  *       651.18 MB
 **********************************************************************************************************************************


 PROGRAM * PAPT (Closed-shell)     Authors: C. Hampel, H.-J. Werner, 1991, P.J. Knowles, 2021


 Convergence thresholds:  THRVAR = 1.00D-08  THRDEN = 1.00D-06

 Number of core orbitals:           3 (   3 )
 Number of closed-shell orbitals:  11 (  11 )
 Number of external orbitals:     118 ( 118 )

 Molecular orbitals read from record     2101.2  Type=RHF/CANONICAL  

 Number of N-1 electron functions:              11
 Number of N-2 electron functions:              66
 Number of singly external CSFs:              1298
 Number of doubly external CSFs:            843051
 Total number of CSFs:                      844350

 Length of J-op  integral file:               0.00 MB
 Length of K-op  integral file:               1.26 MB

 Integral transformation finished. Total CPU:   0.31 sec, npass=  1  Memory used:   2.30 MW

 Reference energy:                   -171.27937668

                        CORR.ENERGY   TOTAL ENERGY   ENERGY CHANGE
 MP2:                   -0.56745422  -171.84683091    -0.56745422

 SCS-MP2 correlation energy:           -0.56263986   (PS=  1.200000  PT=  0.333333)
 SCS-MP2 total energy:               -171.84201654
 Iteration:   1     0.2285D+00
 Iteration:   2     0.3415D+00
 Iteration:   3     0.1316D+00
 Iteration:   4     0.1035D+00
 Iteration:   5     0.7181D+00
 Iteration:   6     0.1257D+00
 Iteration:   7     0.1552D+00
 Iteration:   8     0.1416D+00
 Iteration:   9     0.4209D-01
 Iteration:  10     0.1874D+00
 Iteration:  11     0.1958D-01
 Iteration:  12     0.4039D-01
 Iteration:  13     0.1176D-01
 Iteration:  14     0.7551D-02
 Iteration:  15     0.8670D-02
 Iteration:  16     0.3259D-02
 Iteration:  17     0.5169D-01
 Iteration:  18     0.1013D-02
 Iteration:  19     0.8137D-03
 Iteration:  20     0.9569D-03
 Iteration:  21     0.2211D-03
 Iteration:  22     0.8780D-03
 Iteration:  23     0.9061D-04
 PAPT operator written to  7000.1
 PAPT orbitals and eigenvalues written to  7000.2

 MP3(D):                -0.59635170  -171.87572838    -0.02889748



 RESULTS
 =======

  Reference energy                   -171.279376684011
  MP3 singlet pair energy              -0.403805823398
  MP3 triplet pair energy              -0.192545877210
  MP3 correlation energy               -0.596351700608

 !MP3 total energy                   -171.875728384619

 Timing summary (sec):

 STEP                 CPU(USER)    SYS     CPU(TOT)    WALL
 Transformation          0.34      0.06      0.40      0.58
 CCSD iterations         6.58      0.18      6.76      6.01

 Program statistics:

 Available memory in ccsd:               805305870
 Min. memory needed in ccsd:               2323550
 Max. memory used in ccsd:                 3052168
 Max. memory used in cckext:               2473006 ( 1 integral passes)



 **********************************************************************************************************************************
 DATASETS  * FILE   NREC   LENGTH (MB)   RECORD NAMES
              1      21      198.90       500      610      700      900      950      970     1000      129      960     1100   
                                          VAR    BASINP    GEOM    SYMINP    ZMAT    AOBASIS   BASIS     P2S    ABASIS      S 
                                         1400     1410     1200     1210     1080     1600     1650     1300     1700     1380   
                                           T        V       H0       H01     AOSYM     SMH    MOLCAS    ERIS     OPER     JKOP   
                                         7000   
                                        PAPT AO    

              2       6        1.88       700     1000      520     2100     2101     7000   
                                         GEOM     BASIS   MCVARS     RHF      RHF     PAPT   

 PROGRAMS   *        TOTAL      PAPT    HF-SCF    HF-SCF       INT
 CPU TIMES  *         6.82      3.29      0.30      1.63      1.49
 REAL TIME  *        14.81 SEC
 DISK USED  *       651.18 MB
 **********************************************************************************************************************************


 PROGRAM * MP3 (Closed-shell)     Authors: C. Hampel, H.-J. Werner, 1991, M. Deegan, P.J. Knowles, 1992


 Convergence thresholds:  THRVAR = 1.00D-08  THRDEN = 1.00D-06

 Number of core orbitals:           3 (   3 )
 Number of closed-shell orbitals:  11 (  11 )
 Number of external orbitals:     118 ( 118 )

 Molecular orbitals read from record     7000.2  Type=PAPT/CANONICAL (state 1.1)

 Number of N-1 electron functions:              11
 Number of N-2 electron functions:              66
 Number of singly external CSFs:              1298
 Number of doubly external CSFs:            843051
 Total number of CSFs:                      844350

 Length of J-op  integral file:               0.00 MB
 Length of K-op  integral file:               1.26 MB

 Integral transformation finished. Total CPU:   0.28 sec, npass=  1  Memory used:   2.30 MW
 Orbital energies read from record       7000.2  Type=PAPT/CANONICAL (state 1.1)

 Reference energy:                   -171.27937668

                        CORR.ENERGY   TOTAL ENERGY   ENERGY CHANGE
 MP2:                   -0.60233049  -171.88170718    -0.60233049

 SCS-MP2 correlation energy:           -0.60005223   (PS=  1.200000  PT=  0.333333)
 SCS-MP2 total energy:               -171.87942891

 MP3(D):                -0.60258705  -171.88196373    -0.00025655



 RESULTS
 =======

  Reference energy                   -171.279376684011
  MP3 singlet pair energy              -0.410503100804
  MP3 triplet pair energy              -0.192083947306
  MP3 correlation energy               -0.602587048110

 !MP3 total energy                   -171.881963732121

 Timing summary (sec):

 STEP                 CPU(USER)    SYS     CPU(TOT)    WALL
 Transformation          0.45      0.05      0.50      0.65
 CCSD iterations         7.74      0.06      7.80      1.08

 Program statistics:

 Available memory in ccsd:               805305870
 Min. memory needed in ccsd:               2323550
 Max. memory used in ccsd:                 3052168
 Max. memory used in cckext:               2473006 ( 1 integral passes)



 **********************************************************************************************************************************
 DATASETS  * FILE   NREC   LENGTH (MB)   RECORD NAMES
              1      21      198.90       500      610      700      900      950      970     1000      129      960     1100   
                                          VAR    BASINP    GEOM    SYMINP    ZMAT    AOBASIS   BASIS     P2S    ABASIS      S 
                                         1400     1410     1200     1210     1080     1600     1650     1300     1700     1380   
                                           T        V       H0       H01     AOSYM     SMH    MOLCAS    ERIS     OPER     JKOP   
                                         7000   
                                        PAPT AO    

              2       6        1.88       700     1000      520     2100     2101     7000   
                                         GEOM     BASIS   MCVARS     RHF      RHF     PAPT   

 PROGRAMS   *        TOTAL       MP3      PAPT    HF-SCF    HF-SCF       INT
 CPU TIMES  *         8.09      1.27      3.29      0.30      1.63      1.49
 REAL TIME  *        16.70 SEC
 DISK USED  *       651.18 MB
 **********************************************************************************************************************************

 Counterpoise: absolute minimum monomer separation=    -1.000 Bragg radius scale factor=     1.400 Number of monomers= 2

 Counterpoise  MP3  energy

 Running default procedure: HF-SCF001  PAPT  MP3

 Assignment of unique atoms to monomers:
1-10     1     1     1     1     1     1     1     2     2     2

 *** Long output written to logfile /Users/sacpjk/current/PAPT/S66/ddaa6a4e/12.molpro/run/1.molpro/1.log ***


 Description                       ENERGY          ENERGR          ENERGC
 Raw                        -171.88196373   -171.27937668   -171.88196373
 Dimer basis, monomer 1      -95.60452019    -95.23115808    -95.60452019
 Dimer basis, monomer 2      -76.26774127    -76.04101698    -76.26774127
 Monomer basis, monomer 1    -95.60311835    -95.23066288    -95.60311835
 Monomer basis, monomer 2    -76.26695072    -76.04075308    -76.26695072
 Counterpoise correction       0.00219240      0.00075911      0.00219240
 Counterpoise corrected     -171.87977134   -171.27861758   -171.87977134


 **********************************************************************************************************************************
 DATASETS  * FILE   NREC   LENGTH (MB)   RECORD NAMES
              1      18       29.38       500      610      700      900      950      970     1000      129      960     1100   
                                          VAR    BASINP    GEOM    SYMINP    ZMAT    AOBASIS   BASIS     P2S    ABASIS      S 
                                         1400     1410     1200     1210     1080     1600     1650     1700   
                                           T        V       H0       H01     AOSYM     SMH    MOLCAS    OPER   

              2      14        5.06       700     1000      520     2100     2101     2102     2103      701     1001     2104   
                                         GEOM     BASIS   MCVARS     RHF      RHF      RHF      RHF     GEOM     BASIS     RHF  
                                          702     1002     2105     7000   
                                         GEOM     BASIS     RHF     PAPT   

 PROGRAMS   *        TOTALCOUNTERPOI      PAPT    HF-SCF       INT       MP3      PAPT    HF-SCF       INT       MP3      PAPT
 CPU TIMES  *        15.60      0.09      0.05      0.02      0.06      0.22      0.42      0.37      0.40      0.52      0.48
 REAL TIME  *        31.08 SEC
 DISK USED  *       651.18 MB
 **********************************************************************************************************************************

 Dump information in style XML to xml output                                                                      

 Orbitals will not be exported.

 **********************************************************************************************************************************

 MP3/aug-cc-pVDZ energy=   -171.879771335151

             MP3            PAPT          HF-SCF             MP3            PAPT          HF-SCF             MP3            PAPT
    -76.26695072    -76.26544422    -76.04075308    -95.60311835    -95.59819627    -95.23066288    -76.26774127    -76.26623137
 **********************************************************************************************************************************
 Molpro calculation terminated
