
 Working directory              : /var/folders/2v/xbgp75_9785319ghcgb4zr4r0000gp/T//molpro.vgOxUHpwFb/
 Global scratch directory       : /var/folders/2v/xbgp75_9785319ghcgb4zr4r0000gp/T//molpro.vgOxUHpwFb/
 Wavefunction directory         : /Users/sacpjk/wfu/
 Main file repository           : /var/folders/2v/xbgp75_9785319ghcgb4zr4r0000gp/T//molpro.vgOxUHpwFb/

 id        : peterk

 Nodes                        nprocs
 Cardiff-University-G34YLXT77Y    1
 GA implementation: MPI file
 GA implementation (serial work in mppx): MPI file

 Using customized tuning parameters: mindgm=1; mindgv=20; mindgc=4; mindgr=1; noblas=0; minvec=7
 default implementation of scratch files=df  


 Variables initialized (1032), CPU time= 0.01 sec
 
 symmetry,nosym
 
 
 geometry={
           16
     C          0.48462430     -0.55755495      1.43729151
     C          0.48462430     -0.55755495     -1.43729151
     C         -0.27595797     -1.44977527      0.70359025
     C         -0.27595797     -1.44977527     -0.70359025
     C         -0.27595797      1.45086377      0.69299925
     C         -0.27595797      1.45086377     -0.69299925
     H          0.37292526     -0.50748993      2.51767690
     H          1.44526264     -0.21636383      1.06867438
     H          0.37292526     -0.50748993     -2.51767690
     H          1.44526264     -0.21636383     -1.06867438
     H         -1.05536225     -2.01444047      1.21328943
     H         -1.05536225     -2.01444047     -1.21328943
     H          0.51071931      1.96707995      1.23581344
     H         -1.20625330      1.32768072      1.23591744
     H          0.51071931      1.96707995     -1.23581344
     H         -1.20625330      1.32768072     -1.23591744
 }
 basis=cc-pVDZ
 
 
 
 hf; mp2
 
 
 
 {put,xml;noorbitals,nobasis}
 Commands initialized (841), CPU time= 0.00 sec, 704 directives.
 Default parameters read. Elapsed time= 1.77 sec

 Checking input...
 Passed
1


                                         ***  PROGRAM SYSTEM MOLPRO  ***
                                       Copyright, TTI GmbH Stuttgart, 2015
                                    Version 2023.1 linked Tue Jun  6 09:54:11 2023


 **********************************************************************************************************************************
 LABEL *                                                                                                                                                                 
  64 bit serial version                                                                  DATE: 10-Jun-23          TIME: 15:05:18  
 **********************************************************************************************************************************

 SHA1:             8ebb0dd001088a5c915591db1a321413035db0b1
 **********************************************************************************************************************************

 Memory per process:       805 MW
 Total memory per node:   1074 MW
 Total GA space:           268 MW

 GA preallocation disabled
 GA check enabled

 Variable memory set to 805.3 MW

 ZSYMEL=NOSYM


 Geometry recognized as XYZ

 SETTING BASIS          =    CC-PVDZ


 Recomputing integrals since basis changed


 Using spherical harmonics

 Library entry C      S cc-pVDZ              selected for orbital group  1
 Library entry C      P cc-pVDZ              selected for orbital group  1
 Library entry C      D cc-pVDZ              selected for orbital group  1
 Library entry H      S cc-pVDZ              selected for orbital group  2
 Library entry H      P cc-pVDZ              selected for orbital group  2


 PROGRAM * SEWARD (Integral evaluation for generally contracted gaussian basis sets)     Author: Roland Lindh, 1990

 Geometry written to block  1 of record 700


 Point group  C1  



 ATOMIC COORDINATES

 NR  ATOM    CHARGE       X              Y              Z

   1  C       6.00    0.915807200   -1.053626155    2.716087315
   2  C       6.00    0.915807200   -1.053626155   -2.716087315
   3  C       6.00   -0.521484985   -2.739678203    1.329592876
   4  C       6.00   -0.521484985   -2.739678203   -1.329592876
   5  C       6.00   -0.521484985    2.741735169    1.309578787
   6  C       6.00   -0.521484985    2.741735169   -1.309578787
   7  H       1.00    0.704726606   -0.959016979    4.757719811
   8  H       1.00    2.731150568   -0.408868382    2.019501895
   9  H       1.00    0.704726606   -0.959016979   -4.757719811
  10  H       1.00    2.731150568   -0.408868382   -2.019501895
  11  H       1.00   -1.994345615   -3.806740783    2.292784733
  12  H       1.00   -1.994345615   -3.806740783   -2.292784733
  13  H       1.00    0.965119622    3.717242371    2.335348943
  14  H       1.00   -2.279488374    2.508952942    2.335545474
  15  H       1.00    0.965119622    3.717242371   -2.335348943
  16  H       1.00   -2.279488374    2.508952942   -2.335545474

 Bond lengths in Bohr (Angstrom)

 1-3  2.613608074  1-7  2.054694421  1-8  2.048515408  2-4  2.613608074  2-9  2.054694421
     ( 1.383061831)     ( 1.087297463)     ( 1.084027670)     ( 1.383061831)     ( 1.087297463)

  2-10  2.048515408   3- 4  2.659185753   3-11  2.058076659   4-12  2.058076659   5- 6  2.619157574
       ( 1.084027670)       ( 1.407180500)       ( 1.089087266)       ( 1.089087266)       ( 1.385998500)

  5-13  2.052757163   5-14  2.048748673   6-15  2.052757163   6-16  2.048748673
       ( 1.086272310)       ( 1.084151108)       ( 1.086272310)       ( 1.084151108)

 Bond angles

  1- 3- 4  122.03860671   1- 3-11  118.66926903   2- 4- 3  122.03860671   2- 4-12  118.66926903

  3- 1- 7  120.02169320   3- 1- 8  120.66275757   3- 4-12  117.90492772   4- 2- 9  120.02169320

  4- 2-10  120.66275757   4- 3-11  117.90492772   5- 6-15  119.98039263   5- 6-16  120.05143452

  6- 5-13  119.98039263   6- 5-14  120.05143452   7- 1- 8  114.48326129   9- 2-10  114.48326129

 13- 5-14  115.16206745  15- 6-16  115.16206745

 NUCLEAR CHARGE:                   46
 NUMBER OF PRIMITIVE AOS:         232
 NUMBER OF SYMMETRY AOS:          226
 NUMBER OF CONTRACTIONS:          134   (  134A   )
 NUMBER OF INNER CORE ORBITALS:     0   (    0A   )
 NUMBER OF OUTER CORE ORBITALS:     6   (    6A   )
 NUMBER OF VALENCE ORBITALS:       34   (   34A   )


 NUCLEAR REPULSION ENERGY  223.96110073


 Eigenvalues of metric

         1 0.128E-02 0.292E-02 0.330E-02 0.406E-02 0.116E-01 0.117E-01 0.135E-01 0.167E-01


 Contracted 2-electron integrals neglected if value below      1.0D-11
 AO integral compression algorithm  1   Integral accuracy      1.0D-11

     170.918 MB (compressed) written to integral file ( 49.2%)


 NUMBER OF SORTED TWO-ELECTRON INTEGRALS:   40910535.     BUFFER LENGTH:  32768
 NUMBER OF SEGMENTS:   3  SEGMENT LENGTH:   15998004      RECORD LENGTH: 524288

 Memory used in sort:      16.56 MW

 SORT1 READ    43486902. AND WROTE    38903298. INTEGRALS IN    113 RECORDS. CPU TIME:     0.28 SEC, REAL TIME:     0.36 SEC
 SORT2 READ    38903298. AND WROTE    40910535. INTEGRALS IN    652 RECORDS. CPU TIME:     0.30 SEC, REAL TIME:     0.37 SEC

 FILE SIZES:   FILE 1:   201.8 MBYTE,  FILE 4:   474.0 MBYTE,   TOTAL:    675.9 MBYTE

 OPERATOR DM      FOR CENTER  0  COORDINATES:    0.000000    0.000000    0.000000


 **********************************************************************************************************************************
 DATASETS  * FILE   NREC   LENGTH (MB)   RECORD NAMES
              1      19      178.30       500      610      700      900      950      970     1000      129      960     1100   
                                          VAR    BASINP    GEOM    SYMINP    ZMAT    AOBASIS   BASIS     P2S    ABASIS      S 
                                         1400     1410     1200     1210     1080     1600     1650     1300     1700   
                                           T        V       H0       H01     AOSYM     SMH    MOLCAS    ERIS     OPER   

 PROGRAMS   *        TOTAL       INT
 CPU TIMES  *         2.43      2.34
 REAL TIME  *         5.67 SEC
 DISK USED  *       645.16 MB
 **********************************************************************************************************************************


 Program * Restricted Hartree-Fock

 Orbital guess generated from atomic densities. Full valence occupancy:   40

 Initial occupancy:  23

 NELEC=   46   SYM=1   MS2= 0   THRE=1.0D-08   THRD=3.2D-06   THRG=3.2D-06  HFMA2=F  DIIS_START=2   DIIS_MAX=10   DIIS_INCORE=F

 Level shifts:    0.00 (CLOSED)    0.00 (OPEN)    0.30 (GAP_MIN)

 ITER           ETOT              DE          GRAD        DDIFF     DIIS  NEXP   TIME(IT)  TIME(TOT)  DIAG
   1     -232.83535923    -232.83535923     0.00D+00     0.90D-01     0     0       0.17      0.33    start
   2     -232.89275003      -0.05739080     0.38D-02     0.85D-02     1     0       0.17      0.50    diag
   3     -232.89913511      -0.00638508     0.14D-02     0.29D-02     2     0       0.16      0.66    diag
   4     -232.90034940      -0.00121428     0.52D-03     0.11D-02     3     0       0.17      0.83    diag
   5     -232.90044901      -0.00009961     0.12D-03     0.23D-03     4     0       0.17      1.00    diag
   6     -232.90049796      -0.00004895     0.59D-04     0.16D-03     5     0       0.18      1.18    diag
   7     -232.90051505      -0.00001709     0.29D-04     0.11D-03     6     0       0.17      1.35    diag
   8     -232.90051736      -0.00000231     0.10D-04     0.50D-04     7     0       0.16      1.51    fixocc
   9     -232.90051743      -0.00000007     0.23D-05     0.83D-05     8     0       0.17      1.68    diag
  10     -232.90051743      -0.00000001     0.90D-06     0.24D-05     9     0       0.17      1.85    diag/orth
  11     -232.90051743      -0.00000000     0.24D-06     0.56D-06     0     0       0.18      2.03    diag

 Final occupancy:  23

 !RHF STATE 1.1 Energy               -232.900517432521
  RHF One-electron energy            -756.885981856147
  RHF Two-electron energy             300.024363697824
  RHF Kinetic energy                  232.501384923515
  RHF Nuclear energy                  223.961100725802
  RHF Virial quotient                  -1.001716688738

 !RHF STATE 1.1 Dipole moment           0.01938525     0.17247545    -0.00000000
 Dipole moment /Debye                   0.04927239     0.43838886    -0.00000000

 Orbital energies:

           1.1          2.1          3.1          4.1          5.1          6.1          7.1          8.1          9.1         10.1
    -11.241544   -11.241523   -11.233462   -11.232219   -11.225893   -11.224815    -1.090517    -1.011334    -0.974955    -0.847391

          11.1         12.1         13.1         14.1         15.1         16.1         17.1         18.1         19.1         20.1
     -0.791830    -0.712680    -0.664638    -0.631790    -0.591085    -0.565260    -0.562939    -0.514450    -0.501306    -0.484765

          21.1         22.1         23.1         24.1         25.1
     -0.469603    -0.303606    -0.301031     0.119825     0.152786


 HOMO     23.1    -0.301031 =      -8.1915eV
 LUMO     24.1     0.119825 =       3.2606eV
 LUMO-HOMO         0.420856 =      11.4521eV

 Orbitals saved in record  2100.2


 **********************************************************************************************************************************
 DATASETS  * FILE   NREC   LENGTH (MB)   RECORD NAMES
              1      19      178.30       500      610      700      900      950      970     1000      129      960     1100   
                                          VAR    BASINP    GEOM    SYMINP    ZMAT    AOBASIS   BASIS     P2S    ABASIS      S 
                                         1400     1410     1200     1210     1080     1600     1650     1300     1700   
                                           T        V       H0       H01     AOSYM     SMH    MOLCAS    ERIS     OPER   

              2       4        0.92       700     1000      520     2100   
                                         GEOM     BASIS   MCVARS     RHF  

 PROGRAMS   *        TOTAL    HF-SCF       INT
 CPU TIMES  *         4.46      2.03      2.34
 REAL TIME  *         8.31 SEC
 DISK USED  *       645.16 MB
 **********************************************************************************************************************************


 PROGRAM * MP2 (Closed-shell)     Authors: C. Hampel, H.-J. Werner, 1991, M. Deegan, P.J. Knowles, 1992


 Convergence thresholds:  THRVAR = 1.00D-08  THRDEN = 1.00D-06

 Number of core orbitals:           6 (   6 )
 Number of closed-shell orbitals:  17 (  17 )
 Number of external orbitals:     111 ( 111 )

 Molecular orbitals read from record     2100.2  Type=RHF/CANONICAL  

 Number of N-1 electron functions:              17
 Number of N-2 electron functions:             153
 Number of singly external CSFs:              1887
 Number of doubly external CSFs:           1781328
 Total number of CSFs:                     1783216

 Length of J-op  integral file:               0.00 MB
 Length of K-op  integral file:               1.30 MB

 Integral transformation finished. Total CPU:   0.48 sec, npass=  1  Memory used:   4.88 MW

 Memory needed for MP2:                      0.09 MW

 SCS-MP2 correlation energy:           -0.846501172793   (PS=  1.200000  PT=  0.333333)
 SCS-MP2 total energy:               -233.747018605314


  Reference energy                   -232.900517432521
  MP2 singlet pair energy              -0.540621435084
  MP2 triplet pair energy              -0.317821260040
  MP2 correlation energy               -0.858442695124

 !MP2 total energy                   -233.758960127646


 **********************************************************************************************************************************
 DATASETS  * FILE   NREC   LENGTH (MB)   RECORD NAMES
              1      20      210.10       500      610      700      900      950      970     1000      129      960     1100   
                                          VAR    BASINP    GEOM    SYMINP    ZMAT    AOBASIS   BASIS     P2S    ABASIS      S 
                                         1400     1410     1200     1210     1080     1600     1650     1300     1700     1380   
                                           T        V       H0       H01     AOSYM     SMH    MOLCAS    ERIS     OPER     JKOP   

              2       4        0.92       700     1000      520     2100   
                                         GEOM     BASIS   MCVARS     RHF  

 PROGRAMS   *        TOTAL       MP2    HF-SCF       INT
 CPU TIMES  *         5.04      0.59      2.03      2.34
 REAL TIME  *         9.83 SEC
 DISK USED  *       645.16 MB
 **********************************************************************************************************************************

 Dump information in style XML to xml output                                                                      

 Orbitals will not be exported.

 **********************************************************************************************************************************

 MP2/cc-pVDZ energy=   -233.758960127646

             MP2          HF-SCF
   -233.75896013   -232.90051743
 **********************************************************************************************************************************
 Molpro calculation terminated
