
 Working directory              : /var/folders/2v/xbgp75_9785319ghcgb4zr4r0000gp/T//molpro.LlngAIkwBd/
 Global scratch directory       : /var/folders/2v/xbgp75_9785319ghcgb4zr4r0000gp/T//molpro.LlngAIkwBd/
 Wavefunction directory         : /Users/sacpjk/wfu/
 Main file repository           : /var/folders/2v/xbgp75_9785319ghcgb4zr4r0000gp/T//molpro.LlngAIkwBd/

 id        : peterk

 Nodes                        nprocs
 Cardiff-University-G34YLXT77Y    1
 GA implementation: MPI file
 GA implementation (serial work in mppx): MPI file

 Using customized tuning parameters: mindgm=1; mindgv=20; mindgc=4; mindgr=1; noblas=0; minvec=7
 default implementation of scratch files=df  


 Variables initialized (1032), CPU time= 0.01 sec
 
 symmetry,nosym
 
 
 geometry={
           10
     C         -0.59349906      0.66586394     -0.00004792
     C         -1.50398503     -0.34395600     -0.00000692
     H         -0.35341081      1.18450527     -0.91727018
     H         -0.35370874      1.18469048      0.91716508
     H         -1.84849529     -0.78988150      0.92251507
     H         -1.84830479     -0.79020430     -0.92244024
     C          1.49065019     -0.22226005      0.00003008
     H          2.07381410      0.68860269     -0.00127392
     H          1.46805961     -0.78969100     -0.91863546
     H          1.46887983     -0.78766954      0.91996443
 }
 basis=cc-pVDZ
 
 
 spin=1
 uhf
 
 
 
 {put,xml;noorbitals,nobasis}
 Commands initialized (841), CPU time= 0.00 sec, 704 directives.
 Default parameters read. Elapsed time= 0.27 sec

 Checking input...
 Passed
1


                                         ***  PROGRAM SYSTEM MOLPRO  ***
                                       Copyright, TTI GmbH Stuttgart, 2015
                                    Version 2023.1 linked Tue Jun  6 09:54:11 2023


 **********************************************************************************************************************************
 LABEL *                                                                                                                                                                 
  64 bit serial version                                                                  DATE: 09-Jun-23          TIME: 09:27:07  
 **********************************************************************************************************************************

 SHA1:             8ebb0dd001088a5c915591db1a321413035db0b1
 **********************************************************************************************************************************

 Memory per process:       805 MW
 Total memory per node:   1074 MW
 Total GA space:           268 MW

 GA preallocation disabled
 GA check enabled

 Variable memory set to 805.3 MW

 ZSYMEL=NOSYM


 Geometry recognized as XYZ

 SETTING BASIS          =    CC-PVDZ
 SETTING SPIN           =         1.00000000                                  


 Recomputing integrals since basis changed


 Using spherical harmonics

 Library entry C      S cc-pVDZ              selected for orbital group  1
 Library entry C      P cc-pVDZ              selected for orbital group  1
 Library entry C      D cc-pVDZ              selected for orbital group  1
 Library entry H      S cc-pVDZ              selected for orbital group  2
 Library entry H      P cc-pVDZ              selected for orbital group  2


 PROGRAM * SEWARD (Integral evaluation for generally contracted gaussian basis sets)     Author: Roland Lindh, 1990

 Geometry written to block  1 of record 700


 Point group  C1  



 ATOMIC COORDINATES

 NR  ATOM    CHARGE       X              Y              Z

   1  C       6.00   -1.121550679    1.258300483   -0.000090556
   2  C       6.00   -2.842119802   -0.649982639   -0.000013077
   3  H       1.00   -0.667849640    2.238390553   -1.733389422
   4  H       1.00   -0.668412646    2.238740550    1.733190812
   5  H       1.00   -3.493149841   -1.492659706    1.743300828
   6  H       1.00   -3.492789848   -1.493269710   -1.743159420
   7  C       6.00    2.816920607   -0.420010623    0.000056843
   8  H       1.00    3.918940682    1.301270493   -0.002407360
   9  H       1.00    2.774230598   -1.492299713   -1.735969428
  10  H       1.00    2.775780589   -1.488479707    1.738480817

 Bond lengths in Bohr (Angstrom)

 1-2  2.569416780  1-3  2.042240471  1-4  2.042268616  2-5  2.042813776  2-6  2.042807814
     ( 1.359676805)     ( 1.080707116)     ( 1.080722010)     ( 1.081010496)     ( 1.081007341)

  7- 8  2.043835365   7- 9  2.040934478   7-10  2.040940126
       ( 1.081551098)       ( 1.080016015)       ( 1.080019004)

 Bond angles

  1-2-5  121.31879402   1-2-6  121.32240385   2-1-3  120.34561477   2-1-4  120.33794881

  3- 1- 4  116.14415586   5- 2- 6  117.15558866   8- 7- 9  116.91882259   8- 7-10  116.92302966

  9- 7-10  116.68277313

 NUCLEAR CHARGE:                   25
 NUMBER OF PRIMITIVE AOS:         130
 NUMBER OF SYMMETRY AOS:          127
 NUMBER OF CONTRACTIONS:           77   (   77A   )
 NUMBER OF INNER CORE ORBITALS:     0   (    0A   )
 NUMBER OF OUTER CORE ORBITALS:     3   (    3A   )
 NUMBER OF VALENCE ORBITALS:       19   (   19A   )


 NUCLEAR REPULSION ENERGY   70.26835351

 Eigenvalues of metric

         1 0.369E-02 0.106E-01 0.163E-01 0.166E-01 0.272E-01 0.274E-01 0.355E-01 0.357E-01


 Contracted 2-electron integrals neglected if value below      1.0D-11
 AO integral compression algorithm  1   Integral accuracy      1.0D-11

     21.234 MB (compressed) written to integral file ( 52.5%)


 NUMBER OF SORTED TWO-ELECTRON INTEGRALS:    4510506.     BUFFER LENGTH:  32768
 NUMBER OF SEGMENTS:   1  SEGMENT LENGTH:    4510506      RECORD LENGTH: 524288

 Memory used in sort:       5.07 MW

 SORT1 READ     5103520. AND WROTE     4424297. INTEGRALS IN     13 RECORDS. CPU TIME:     0.03 SEC, REAL TIME:     0.04 SEC
 SORT2 READ     4424297. AND WROTE     4510506. INTEGRALS IN     81 RECORDS. CPU TIME:     0.06 SEC, REAL TIME:     0.07 SEC

 FILE SIZES:   FILE 1:    51.6 MBYTE,  FILE 4:    54.6 MBYTE,   TOTAL:    106.2 MBYTE

 OPERATOR DM      FOR CENTER  0  COORDINATES:    0.000000    0.000000    0.000000


 **********************************************************************************************************************************
 DATASETS  * FILE   NREC   LENGTH (MB)   RECORD NAMES
              1      19       46.51       500      610      700      900      950      970     1000      129      960     1100   
                                          VAR    BASINP    GEOM    SYMINP    ZMAT    AOBASIS   BASIS     P2S    ABASIS      S 
                                         1400     1410     1200     1210     1080     1600     1650     1300     1700   
                                           T        V       H0       H01     AOSYM     SMH    MOLCAS    ERIS     OPER   

 PROGRAMS   *        TOTAL       INT
 CPU TIMES  *         0.45      0.37
 REAL TIME  *         1.28 SEC
 DISK USED  *       101.75 MB
 **********************************************************************************************************************************


 Program * Unrestricted Hartree-Fock

 Orbital guess generated from atomic densities. Full valence occupancy:   22

 Initial alpha occupancy:  13
 Initial beta  occupancy:  12

 Elapsed time for starting guess:      0.02 sec

 NELEC=   25   SYM=1   MS2=1   THRE=1.0D-08   THRD=3.2D-06   THRG=3.2D-06  HFMA2=F  DIIS_START=2   DIIS_MAX=10   DIIS_INCORE=F

 Initial level shifts:    0.20 (ALPHA)    0.20 (BETA)

 ITER         ETOT            DE          GRAD         DDIFF    DIIS  NEXP   TIME(IT)  TIME(TOT)  DIAG
   1   -117.52447622  -117.52447622     0.00D+00     0.00D+00     0     0       0.02      0.04    start
   2   -117.56428297    -0.03980675     0.56D-02     0.11D+00     1     0       0.02      0.06    diag
   3   -117.57558915    -0.01130618     0.22D-02     0.87D-02     2     0       0.03      0.09    diag
   4   -117.58096555    -0.00537640     0.13D-02     0.34D-02     3     0       0.02      0.11    diag
   5   -117.58471710    -0.00375155     0.82D-03     0.15D-02     4     0       0.02      0.13    diag
   6   -117.58571099    -0.00099390     0.42D-03     0.13D-02     5     0       0.03      0.16    diag
   7   -117.58601996    -0.00030896     0.23D-03     0.68D-03     6     0       0.02      0.18    diag
   8   -117.58616486    -0.00014491     0.15D-03     0.34D-03     7     0       0.02      0.20    diag
   9   -117.58620929    -0.00004443     0.78D-04     0.28D-03     8     0       0.02      0.22    diag
  10   -117.58622057    -0.00001128     0.41D-04     0.19D-03     9     0       0.03      0.25    diag/ort
  11   -117.58622313    -0.00000256     0.21D-04     0.10D-03     9     0       0.02      0.27    diag
  12   -117.58622350    -0.00000037     0.89D-05     0.48D-04     9     0       0.02      0.29    diag
  13   -117.58622355    -0.00000005     0.40D-05     0.17D-04     9     0       0.03      0.32    diag
  14   -117.58622356    -0.00000001     0.18D-05     0.57D-05     9     0       0.02      0.34    diag
  15   -117.58622357    -0.00000000     0.74D-06     0.25D-05     9     0       0.02      0.36    diag
  16   -117.58622357    -0.00000000     0.28D-06     0.93D-06     9     0       0.02      0.38    diag

 Final alpha occupancy:  13
 Final beta  occupancy:  12

 !UHF STATE 1.1 Energy               -117.586223565621
  UHF One-electron energy            -296.160471673383
  UHF Two-electron energy             108.305894602665
  UHF Kinetic energy                  117.509161769209
  UHF Nuclear energy                   70.268353505098
  UHF Virial quotient                  -1.000655793942

 !UHF STATE 1.1 Dipole moment           0.08118277     0.02762470    -0.00000709
 Dipole moment /Debye                   0.20634602     0.07021499    -0.00001802

 EXPECTATION VALUE OF S**2:             0.99866910

 Orbital energies for positive spin:

           1.1          2.1          3.1          4.1          5.1          6.1          7.1          8.1          9.1         10.1
    -11.232584   -11.226891   -11.224923    -1.031093    -0.937887    -0.789321    -0.635210    -0.582331    -0.564099    -0.557239

          11.1         12.1         13.1         14.1         15.1
     -0.499288    -0.438316    -0.325419     0.181813     0.210324

 Orbital energies for negative spin:

           1.1          2.1          3.1          4.1          5.1          6.1          7.1          8.1          9.1         10.1
    -11.239349   -11.209141   -11.209046    -1.022681    -0.861929    -0.777777    -0.632647    -0.575354    -0.549562    -0.545066

          11.1         12.1         13.1         14.1
     -0.496676    -0.384859     0.136367     0.188110


 HOMO     13.1    -0.325419 =      -8.8551eV
 LUMO    -13.1     0.136367 =       3.7107eV
 LUMO-HOMO         0.461786 =      12.5658eV

 Orbitals saved in record  2200.2

 Occupation number threshold for pseudo-canonical orbitals: 1.9990 (occupied), 0.0010 (virtual)

 Number of pseudo-canonical occupied orbitals per symmetry:    8
 Number of active natural orbitals per symmetry:               9

 Natural orbitals saved to record    2200.2 (Orbital set 3)

 Orbital spaces for UNO-CAS (Min. occupation: 0.020  Max. occupation: 1.980):

 Closed:       11
 Active:        3


 **********************************************************************************************************************************
 DATASETS  * FILE   NREC   LENGTH (MB)   RECORD NAMES
              1      19       46.51       500      610      700      900      950      970     1000      129      960     1100   
                                          VAR    BASINP    GEOM    SYMINP    ZMAT    AOBASIS   BASIS     P2S    ABASIS      S 
                                         1400     1410     1200     1210     1080     1600     1650     1300     1700   
                                           T        V       H0       H01     AOSYM     SMH    MOLCAS    ERIS     OPER   

              2       4        0.77       700     1000      520     2200   
                                         GEOM     BASIS   MCVARS     UHF  

              4       3        1.07      2900     3000     3100   

 PROGRAMS   *        TOTAL   UHF-SCF       INT
 CPU TIMES  *         0.84      0.39      0.37
 REAL TIME  *         2.02 SEC
 DISK USED  *       101.75 MB
 **********************************************************************************************************************************

 Dump information in style XML to xml output                                                                      

 Orbitals will not be exported.

 **********************************************************************************************************************************

 UHF/cc-pVDZ energy=   -117.586223565621

         UHF-SCF
   -117.58622357
 **********************************************************************************************************************************
 Molpro calculation terminated
