
 Working directory              : /var/folders/2v/xbgp75_9785319ghcgb4zr4r0000gp/T//molpro.oCeyZ5mfla/
 Global scratch directory       : /var/folders/2v/xbgp75_9785319ghcgb4zr4r0000gp/T//molpro.oCeyZ5mfla/
 Wavefunction directory         : /Users/sacpjk/wfu/
 Main file repository           : /var/folders/2v/xbgp75_9785319ghcgb4zr4r0000gp/T//molpro.oCeyZ5mfla/

 id        : peterk

 Nodes                        nprocs
 Cardiff-University-G34YLXT77Y    1
 GA implementation: MPI file
 GA implementation (serial work in mppx): MPI file

 Using customized tuning parameters: mindgm=1; mindgv=20; mindgc=4; mindgr=1; noblas=0; minvec=7
 default implementation of scratch files=df  


 Variables initialized (1032), CPU time= 0.00 sec
 
 symmetry,nosym
 
 
 geometry={
            6
     CL         0.00000000      0.00000000     -2.21807245
     C          0.00000000      0.00000000     -0.39966597
     H         -0.51253198      0.88773143     -0.05771428
     H         -0.51253198     -0.88773143     -0.05771428
     H          1.02506396      0.00000000     -0.05771428
     CL         0.00000000      0.00000000      2.79088125
 }
 basis=cc-pVTZ
 
 charge=-1
 
 hf
 
 
 
 {put,xml;noorbitals,nobasis}
 Commands initialized (841), CPU time= 0.01 sec, 704 directives.
 Default parameters read. Elapsed time= 1.13 sec

 Checking input...
 Passed
1


                                         ***  PROGRAM SYSTEM MOLPRO  ***
                                       Copyright, TTI GmbH Stuttgart, 2015
                                    Version 2023.1 linked Tue Jun  6 09:54:11 2023


 **********************************************************************************************************************************
 LABEL *                                                                                                                                                                 
  64 bit serial version                                                                  DATE: 09-Jun-23          TIME: 16:22:04  
 **********************************************************************************************************************************

 SHA1:             8ebb0dd001088a5c915591db1a321413035db0b1
 **********************************************************************************************************************************

 Memory per process:       805 MW
 Total memory per node:   1074 MW
 Total GA space:           268 MW

 GA preallocation disabled
 GA check enabled

 Variable memory set to 805.3 MW

 ZSYMEL=NOSYM


 Geometry recognized as XYZ

 SETTING BASIS          =    CC-PVTZ
 SETTING CHARGE         =        -1.00000000                                  


 Recomputing integrals since basis changed


 Using spherical harmonics

 Library entry CL     S cc-pVTZ              selected for orbital group  1
 Library entry CL     P cc-pVTZ              selected for orbital group  1
 Library entry CL     D cc-pVTZ              selected for orbital group  1
 Library entry CL     F cc-pVTZ              selected for orbital group  1
 Library entry C      S cc-pVTZ              selected for orbital group  2
 Library entry C      P cc-pVTZ              selected for orbital group  2
 Library entry C      D cc-pVTZ              selected for orbital group  2
 Library entry C      F cc-pVTZ              selected for orbital group  2
 Library entry H      S cc-pVTZ              selected for orbital group  3
 Library entry H      P cc-pVTZ              selected for orbital group  3
 Library entry H      D cc-pVTZ              selected for orbital group  3


 PROGRAM * SEWARD (Integral evaluation for generally contracted gaussian basis sets)     Author: Roland Lindh, 1990

 Geometry written to block  1 of record 700


 Point group  C1  



 ATOMIC COORDINATES

 NR  ATOM    CHARGE       X              Y              Z

   1  CL     17.00    0.000000000    0.000000000   -4.191549455
   2  C       6.00    0.000000000    0.000000000   -0.755259225
   3  H       1.00   -0.968545072    1.677569275   -0.109064183
   4  H       1.00   -0.968545072   -1.677569275   -0.109064183
   5  H       1.00    1.937090145    0.000000000   -0.109064183
   6  CL     17.00    0.000000000    0.000000000    5.274001209

 Bond lengths in Bohr (Angstrom)

 1-2  3.436290230  2-3  2.042029936  2-4  2.042029936  2-5  2.042029936
     ( 1.818406480)     ( 1.080595706)     ( 1.080595706)     ( 1.080595706)

 Bond angles

  1-2-3  108.44821349   1-2-4  108.44821349   1-2-5  108.44821349   3-2-4  110.47456744

  3-2-5  110.47456743   4-2-5  110.47456743

 NUCLEAR CHARGE:                   43
 NUMBER OF PRIMITIVE AOS:         226
 NUMBER OF SYMMETRY AOS:          208
 NUMBER OF CONTRACTIONS:          140   (  140A   )
 NUMBER OF INNER CORE ORBITALS:     2   (    2A   )
 NUMBER OF OUTER CORE ORBITALS:     9   (    9A   )
 NUMBER OF VALENCE ORBITALS:       15   (   15A   )


 NUCLEAR REPULSION ENERGY  107.04222592


 Eigenvalues of metric

         1 0.122E-02 0.180E-02 0.180E-02 0.250E-02 0.404E-02 0.743E-02 0.858E-02 0.102E-01


 Contracted 2-electron integrals neglected if value below      1.0D-11
 AO integral compression algorithm  1   Integral accuracy      1.0D-11

     133.956 MB (compressed) written to integral file ( 29.6%)


 NUMBER OF SORTED TWO-ELECTRON INTEGRALS:   48713385.     BUFFER LENGTH:  32768
 NUMBER OF SEGMENTS:   4  SEGMENT LENGTH:   15999503      RECORD LENGTH: 524288

 Memory used in sort:      16.56 MW

 SORT1 READ    56675876. AND WROTE    30896874. INTEGRALS IN     91 RECORDS. CPU TIME:     0.31 SEC, REAL TIME:     0.38 SEC
 SORT2 READ    30896874. AND WROTE    48713385. INTEGRALS IN    511 RECORDS. CPU TIME:     0.33 SEC, REAL TIME:     0.40 SEC

 FILE SIZES:   FILE 1:   164.8 MBYTE,  FILE 4:   381.7 MBYTE,   TOTAL:    546.5 MBYTE

 OPERATOR DM      FOR CENTER  0  COORDINATES:    0.000000    0.000000    0.000000


 **********************************************************************************************************************************
 DATASETS  * FILE   NREC   LENGTH (MB)   RECORD NAMES
              1      19      137.99       500      610      700      900      950      970     1000      129      960     1100   
                                          VAR    BASINP    GEOM    SYMINP    ZMAT    AOBASIS   BASIS     P2S    ABASIS      S 
                                         1400     1410     1200     1210     1080     1600     1650     1300     1700   
                                           T        V       H0       H01     AOSYM     SMH    MOLCAS    ERIS     OPER   

 PROGRAMS   *        TOTAL       INT
 CPU TIMES  *         2.04      1.96
 REAL TIME  *         4.38 SEC
 DISK USED  *       521.65 MB
 **********************************************************************************************************************************


 Program * Restricted Hartree-Fock

 Orbital guess generated from atomic densities. Full valence occupancy:   26

 Initial occupancy:  22

 NELEC=   44   SYM=1   MS2= 0   THRE=1.0D-08   THRD=3.2D-06   THRG=3.2D-06  HFMA2=F  DIIS_START=2   DIIS_MAX=10   DIIS_INCORE=F

 Level shifts:    0.00 (CLOSED)    0.00 (OPEN)    0.30 (GAP_MIN)

 ITER           ETOT              DE          GRAD        DDIFF     DIIS  NEXP   TIME(IT)  TIME(TOT)  DIAG
   1     -958.67126964    -958.67126964     0.00D+00     0.93D-01     0     0       0.22      0.42    start
   2     -958.72215808      -0.05088844     0.39D-02     0.12D-01     1     0       0.21      0.63    diag
   3     -958.72818247      -0.00602439     0.17D-02     0.18D-02     2     0       0.22      0.85    diag
   4     -958.72859933      -0.00041687     0.28D-03     0.62D-03     3     0       0.22      1.07    diag
   5     -958.72862742      -0.00002809     0.75D-04     0.16D-03     4     0       0.22      1.29    diag
   6     -958.72863054      -0.00000311     0.30D-04     0.58D-04     5     0       0.23      1.52    diag
   7     -958.72863069      -0.00000015     0.47D-05     0.15D-04     6     0       0.22      1.74    diag
   8     -958.72863070      -0.00000001     0.13D-05     0.34D-05     7     0       0.22      1.96    fixocc
   9     -958.72863071      -0.00000000     0.42D-06     0.14D-05     8     0       0.22      2.18    diag
  10     -958.72863071      -0.00000000     0.82D-07     0.16D-06     0     0       0.23      2.41    diag/orth

 Final occupancy:  22

 !RHF STATE 1.1 Energy               -958.728630705221
  RHF One-electron energy           -1546.307796588897
  RHF Two-electron energy             480.536939961968
  RHF Kinetic energy                  958.804869952780
  RHF Nuclear energy                  107.042225921708
  RHF Virial quotient                  -0.999920485127

 !RHF STATE 1.1 Dipole moment           0.00000000     0.00000000    -3.62808949
 Dipole moment /Debye                   0.00000000     0.00000000    -9.22168366

 Orbital energies:

           1.1          2.1          3.1          4.1          5.1          6.1          7.1          8.1          9.1         10.1
   -104.690493  -104.500367   -11.140240   -10.416167   -10.226973    -7.882920    -7.881475    -7.881475    -7.692987    -7.692984

          11.1         12.1         13.1         14.1         15.1         16.1         17.1         18.1         19.1         20.1
     -7.692984    -0.984661    -0.771789    -0.738509    -0.466981    -0.466981    -0.400664    -0.306338    -0.306338    -0.158945

          21.1         22.1         23.1         24.1
     -0.158336    -0.158336     0.290270     0.334255


 HOMO     22.1    -0.158336 =      -4.3085eV
 LUMO     23.1     0.290270 =       7.8986eV
 LUMO-HOMO         0.448606 =      12.2072eV

 Orbitals saved in record  2100.2


 **********************************************************************************************************************************
 DATASETS  * FILE   NREC   LENGTH (MB)   RECORD NAMES
              1      19      137.99       500      610      700      900      950      970     1000      129      960     1100   
                                          VAR    BASINP    GEOM    SYMINP    ZMAT    AOBASIS   BASIS     P2S    ABASIS      S 
                                         1400     1410     1200     1210     1080     1600     1650     1300     1700   
                                           T        V       H0       H01     AOSYM     SMH    MOLCAS    ERIS     OPER   

              2       4        0.78       700     1000      520     2100   
                                         GEOM     BASIS   MCVARS     RHF  

 PROGRAMS   *        TOTAL    HF-SCF       INT
 CPU TIMES  *         4.45      2.41      1.96
 REAL TIME  *         7.20 SEC
 DISK USED  *       521.65 MB
 **********************************************************************************************************************************

 Dump information in style XML to xml output                                                                      

 Orbitals will not be exported.

 **********************************************************************************************************************************

 HF/cc-pVTZ energy=   -958.728630705221

          HF-SCF
   -958.72863071
 **********************************************************************************************************************************
 Molpro calculation terminated
