
 Working directory              : /var/folders/2v/xbgp75_9785319ghcgb4zr4r0000gp/T//molpro.MA9S4at2LO/
 Global scratch directory       : /var/folders/2v/xbgp75_9785319ghcgb4zr4r0000gp/T//molpro.MA9S4at2LO/
 Wavefunction directory         : /Users/sacpjk/wfu/
 Main file repository           : /var/folders/2v/xbgp75_9785319ghcgb4zr4r0000gp/T//molpro.MA9S4at2LO/

 id        : peterk

 Nodes                        nprocs
 Cardiff-University-G34YLXT77Y    1
 GA implementation: MPI file
 GA implementation (serial work in mppx): MPI file

 Using customized tuning parameters: mindgm=1; mindgv=20; mindgc=4; mindgr=1; noblas=0; minvec=7
 default implementation of scratch files=df  


 Variables initialized (1032), CPU time= 0.00 sec
 
 symmetry,nosym
 
 
 geometry={
           10
     N          0.00000000      0.00000000      1.14271621
     C         -1.12415740      0.00000000      0.35290193
     C          1.12415740      0.00000000      0.35290193
     C         -0.71189725      0.00000000     -0.96006654
     C          0.71189725      0.00000000     -0.96006654
     H          0.00000000      0.00000000      2.14833657
     H         -2.11145475      0.00000000      0.78525808
     H          2.11145475      0.00000000      0.78525808
     H         -1.35853848      0.00000000     -1.82361985
     H          1.35853848      0.00000000     -1.82361985
 }
 basis=cc-pVTZ
 
 
 
 hf
 
 
 
 {put,xml;noorbitals,nobasis}
 Commands initialized (841), CPU time= 0.01 sec, 704 directives.
 Default parameters read. Elapsed time= 0.59 sec

 Checking input...
 Passed
1


                                         ***  PROGRAM SYSTEM MOLPRO  ***
                                       Copyright, TTI GmbH Stuttgart, 2015
                                    Version 2023.1 linked Tue Jun  6 09:54:11 2023


 **********************************************************************************************************************************
 LABEL *                                                                                                                                                                 
  64 bit serial version                                                                  DATE: 10-Jun-23          TIME: 14:48:24  
 **********************************************************************************************************************************

 SHA1:             8ebb0dd001088a5c915591db1a321413035db0b1
 **********************************************************************************************************************************

 Memory per process:       805 MW
 Total memory per node:   1074 MW
 Total GA space:           268 MW

 GA preallocation disabled
 GA check enabled

 Variable memory set to 805.3 MW

 ZSYMEL=NOSYM


 Geometry recognized as XYZ

 SETTING BASIS          =    CC-PVTZ


 Recomputing integrals since basis changed


 Using spherical harmonics

 Library entry N      S cc-pVTZ              selected for orbital group  1
 Library entry N      P cc-pVTZ              selected for orbital group  1
 Library entry N      D cc-pVTZ              selected for orbital group  1
 Library entry N      F cc-pVTZ              selected for orbital group  1
 Library entry C      S cc-pVTZ              selected for orbital group  2
 Library entry C      P cc-pVTZ              selected for orbital group  2
 Library entry C      D cc-pVTZ              selected for orbital group  2
 Library entry C      F cc-pVTZ              selected for orbital group  2
 Library entry H      S cc-pVTZ              selected for orbital group  3
 Library entry H      P cc-pVTZ              selected for orbital group  3
 Library entry H      D cc-pVTZ              selected for orbital group  3


 PROGRAM * SEWARD (Integral evaluation for generally contracted gaussian basis sets)     Author: Roland Lindh, 1990

 Geometry written to block  1 of record 700


 Point group  C1  



 ATOMIC COORDINATES

 NR  ATOM    CHARGE       X              Y              Z

   1  N       7.00    0.000000000    0.000000000    2.159420675
   2  C       6.00   -2.124349607    0.000000000    0.666887997
   3  C       6.00    2.124349607    0.000000000    0.666887997
   4  C       6.00   -1.345290831    0.000000000   -1.814262822
   5  C       6.00    1.345290831    0.000000000   -1.814262822
   6  H       1.00    0.000000000    0.000000000    4.059767741
   7  H       1.00   -3.990071202    0.000000000    1.483922708
   8  H       1.00    3.990071202    0.000000000    1.483922708
   9  H       1.00   -2.567265657    0.000000000   -3.446142072
  10  H       1.00    2.567265657    0.000000000   -3.446142072

 Bond lengths in Bohr (Angstrom)

 1-2  2.596250190  1-3  2.596250190  1-6  1.900347066  2-4  2.600584927  2-7  2.036777551
     ( 1.373876434)     ( 1.373876434)     ( 1.005620360)     ( 1.376170278)     ( 1.077816263)

  3- 5  2.600584927   3- 8  2.036777551   4- 5  2.690581663   4- 9  2.038688883   5-10  2.038688883
       ( 1.376170278)       ( 1.077816263)       ( 1.423794500)       ( 1.078827697)       ( 1.078827697)

 Bond angles

  1-2-4  107.65942498   1-2-7  121.25924213   1-3-5  107.65942498   1-3-8  121.25924213

  2-1-3  109.81752217   2-1-6  125.09123892   2-4-5  107.43181394   2-4-9  125.74178504

  3- 1- 6  125.09123892   3- 5- 4  107.43181394   3- 5-10  125.74178504   4- 2- 7  131.08133289

  4- 5-10  126.82640102   5- 3- 8  131.08133289   5- 4- 9  126.82640102

 NUCLEAR CHARGE:                   36
 NUMBER OF PRIMITIVE AOS:         320
 NUMBER OF SYMMETRY AOS:          290
 NUMBER OF CONTRACTIONS:          220   (  220A   )
 NUMBER OF INNER CORE ORBITALS:     0   (    0A   )
 NUMBER OF OUTER CORE ORBITALS:     5   (    5A   )
 NUMBER OF VALENCE ORBITALS:       25   (   25A   )


 NUCLEAR REPULSION ENERGY  160.95503825

 EXTRA SYMMETRY OF AOS IN SYMMETRY 1:   1 1 1 1 1 2 1 1 2 1   1 2 1 1 2 1 1 2 1 2   1 1 2 1 2 1 1 2 2 1   1 1 1 1 1 2 1 1 2 1
                                        1 2 1 1 2 1 1 2 1 2   1 1 2 1 2 1 1 2 2 1   1 1 1 1 1 2 1 1 2 1   1 2 1 1 2 1 1 2 1 2
                                        1 1 2 1 2 1 1 2 2 1   1 1 1 1 1 2 1 1 2 1   1 2 1 1 2 1 1 2 1 2   1 1 2 1 2 1 1 2 2 1
                                        1 1 1 1 1 2 1 1 2 1   1 2 1 1 2 1 1 2 1 2   1 1 2 1 2 1 1 2 2 1   1 1 1 1 2 1 1 2 1 1
                                        2 1 1 2 1 1 1 1 2 1   1 2 1 1 2 1 1 2 1 1   1 1 2 1 1 2 1 1 2 1   1 2 1 1 1 1 2 1 1 2
                                        1 1 2 1 1 2 1 1 1 1   2 1 1 2 1 1 2 1 1 2

 Eigenvalues of metric

         1 0.118E-03 0.550E-03 0.945E-03 0.106E-02 0.112E-02 0.125E-02 0.136E-02 0.145E-02


 Contracted 2-electron integrals neglected if value below      1.0D-11
 AO integral compression algorithm  1   Integral accuracy      1.0D-11

     640.942 MB (compressed) written to integral file ( 25.1%)


 NUMBER OF SORTED TWO-ELECTRON INTEGRALS:  295500205.     BUFFER LENGTH:  32768
 NUMBER OF SEGMENTS:  19  SEGMENT LENGTH:   15999762      RECORD LENGTH: 524288

 Memory used in sort:      16.56 MW

 SORT1 READ   319574930. AND WROTE   139816897. INTEGRALS IN    408 RECORDS. CPU TIME:     2.12 SEC, REAL TIME:     3.05 SEC
 SORT2 READ   139816897. AND WROTE   295500205. INTEGRALS IN   2445 RECORDS. CPU TIME:     1.47 SEC, REAL TIME:     2.09 SEC

 FILE SIZES:   FILE 1:   672.9 MBYTE,  FILE 4:  1711.3 MBYTE,   TOTAL:   2384.2 MBYTE

 OPERATOR DM      FOR CENTER  0  COORDINATES:    0.000000    0.000000    0.000000


 **********************************************************************************************************************************
 DATASETS  * FILE   NREC   LENGTH (MB)   RECORD NAMES
              1      19      574.88       500      610      700      900      950      970     1000      129      960     1100   
                                          VAR    BASINP    GEOM    SYMINP    ZMAT    AOBASIS   BASIS     P2S    ABASIS      S 
                                         1400     1410     1200     1210     1080     1600     1650     1300     1700   
                                           T        V       H0       H01     AOSYM     SMH    MOLCAS    ERIS     OPER   

 PROGRAMS   *        TOTAL       INT
 CPU TIMES  *        11.32     11.22
 REAL TIME  *        18.45 SEC
 DISK USED  *         2.22 GB
 **********************************************************************************************************************************


 Program * Restricted Hartree-Fock

 Orbital guess generated from atomic densities. Full valence occupancy:   30

 Initial occupancy:  18

 NELEC=   36   SYM=1   MS2= 0   THRE=1.0D-08   THRD=3.2D-06   THRG=3.2D-06  HFMA2=F  DIIS_START=2   DIIS_MAX=10   DIIS_INCORE=F

 Level shifts:    0.00 (CLOSED)    0.00 (OPEN)    0.30 (GAP_MIN)

 ITER           ETOT              DE          GRAD        DDIFF     DIIS  NEXP   TIME(IT)  TIME(TOT)  DIAG
   1     -208.81467716    -208.81467716     0.00D+00     0.51D-01     0     0       1.32      2.45    start
   2     -208.86574989      -0.05107273     0.38D-02     0.54D-02     1     0       1.28      3.73    diag
   3     -208.88200230      -0.01625241     0.22D-02     0.21D-02     2     0       1.29      5.02    diag
   4     -208.88338566      -0.00138336     0.49D-03     0.73D-03     3     0       1.32      6.34    diag
   5     -208.88351146      -0.00012581     0.16D-03     0.18D-03     4     0       1.21      7.55    diag
   6     -208.88353818      -0.00002672     0.44D-04     0.97D-04     5     0       1.23      8.78    diag
   7     -208.88354431      -0.00000613     0.20D-04     0.46D-04     6     0       1.22     10.00    diag
   8     -208.88354489      -0.00000058     0.60D-05     0.15D-04     7     0       1.24     11.24    fixocc
   9     -208.88354494      -0.00000005     0.23D-05     0.49D-05     8     0       1.24     12.48    diag
  10     -208.88354494      -0.00000000     0.44D-06     0.11D-05     9     0       1.26     13.74    diag/orth
  11     -208.88354494      -0.00000000     0.12D-06     0.22D-06     0     0       1.31     15.05    diag

 Final occupancy:  18

 !RHF STATE 1.1 Energy               -208.883544943566
  RHF One-electron energy            -600.600046493041
  RHF Two-electron energy             230.761463303522
  RHF Kinetic energy                  208.521087093572
  RHF Nuclear energy                  160.955038245953
  RHF Virial quotient                  -1.001738231155

 !RHF STATE 1.1 Dipole moment           0.00000000     0.00000000     0.74774714
 Dipole moment /Debye                   0.00000000     0.00000000     1.90058366

 Orbital energies:

           1.1          2.1          3.1          4.1          5.1          6.1          7.1          8.1          9.1         10.1
    -15.602261   -11.249383   -11.249339   -11.206678   -11.205645    -1.285920    -1.038025    -0.973453    -0.789378    -0.763431

          11.1         12.1         13.1         14.1         15.1         16.1         17.1         18.1         19.1         20.1
     -0.733104    -0.589125    -0.579424    -0.563913    -0.544690    -0.524656    -0.344314    -0.295821     0.137033     0.176814


 HOMO     18.1    -0.295821 =      -8.0497eV
 LUMO     19.1     0.137033 =       3.7289eV
 LUMO-HOMO         0.432854 =      11.7786eV

 Orbitals saved in record  2100.2


 **********************************************************************************************************************************
 DATASETS  * FILE   NREC   LENGTH (MB)   RECORD NAMES
              1      19      574.88       500      610      700      900      950      970     1000      129      960     1100   
                                          VAR    BASINP    GEOM    SYMINP    ZMAT    AOBASIS   BASIS     P2S    ABASIS      S 
                                         1400     1410     1200     1210     1080     1600     1650     1300     1700   
                                           T        V       H0       H01     AOSYM     SMH    MOLCAS    ERIS     OPER   

              2       4        1.30       700     1000      520     2100   
                                         GEOM     BASIS   MCVARS     RHF  

 PROGRAMS   *        TOTAL    HF-SCF       INT
 CPU TIMES  *        26.37     15.05     11.22
 REAL TIME  *        38.28 SEC
 DISK USED  *         2.22 GB
 **********************************************************************************************************************************

 Dump information in style XML to xml output                                                                      

 Orbitals will not be exported.

 **********************************************************************************************************************************

 HF/cc-pVTZ energy=   -208.883544943566

          HF-SCF
   -208.88354494
 **********************************************************************************************************************************
 Molpro calculation terminated
