
 Working directory              : /tmp/peterk/molpro.inCwKSaLj3/
 Global scratch directory       : /tmp/peterk/molpro.inCwKSaLj3/
 Wavefunction directory         : /home/peterk/wfu/
 Main file repository           : /tmp/peterk/molpro.inCwKSaLj3/

 id        : peterk

 Nodes     nprocs
 marat        1
 GA implementation: MPI file
 GA implementation (serial work in mppx): MPI file

 Using customized tuning parameters: mindgm=1; mindgv=20; mindgc=4; mindgr=1; noblas=0; minvec=7
 default implementation of scratch files=df  


 Variables initialized (1032), CPU time= 0.00 sec
 
 core,small
 angstrom
 
 geometry={
 N1;X,N1,10;H1,N1,1.01116937,X,112.42635522;H2,N1,1.01116937,X,112.42635522,H1,120;H3,N1,1.01116937,X,112.42635522,H2,120
 }
 basis=cc-pCVTZ
 
 
 
 hf; ccsd(t)
 
 
 
 {put,xml;noorbitals,nobasis}
 Commands initialized (841), CPU time= 0.01 sec, 708 directives.
 Default parameters read. Elapsed time= 0.05 sec

 Checking input...
 Passed
1


                                         ***  PROGRAM SYSTEM MOLPRO  ***
                                       Copyright, TTI GmbH Stuttgart, 2015
                                    Version 2023.1 linked Sat Jun 10 08:01:27 2023


 **********************************************************************************************************************************
 LABEL *                                                                                                                                                                 
  (16 PROC) 64 bit serial version                                                        DATE: 12-Jun-23          TIME: 10:33:23  
 **********************************************************************************************************************************

 SHA1:             8376d659ba1296ca7ee514c57770fe2c96af278c
 **********************************************************************************************************************************

 Memory per process:      1074 MW
 Total memory per node:   1074 MW

 GA preallocation disabled
 GA check disabled

 Variable memory set to 1073.7 MW

 ZUNIT=ANG

 SETTING BASIS          =    CC-PCVTZ


 Recomputing integrals since basis changed


 Using spherical harmonics

 Library entry N      S cc-pCVTZ             selected for orbital group  1
 Library entry N      P cc-pCVTZ             selected for orbital group  1
 Library entry N      D cc-pCVTZ             selected for orbital group  1
 Library entry N      F cc-pCVTZ             selected for orbital group  1
 Library entry H      S cc-pVTZ              selected for orbital group  2
 Library entry H      P cc-pVTZ              selected for orbital group  2
 Library entry H      D cc-pVTZ              selected for orbital group  2


 PROGRAM * SEWARD (Integral evaluation for generally contracted gaussian basis sets)     Author: Roland Lindh, 1990

 Geometry written to block  1 of record 700

 Orientation using atomic masses  
 Molecule type: Symmetric top,     Order of principal axis = 3
 Symmetry elements: Y
 Rotational constants:     298.8703436    298.8703436    191.3027215 GHz  (calculated with average atomic masses)

 Point group  Cs  



 ATOMIC COORDINATES

 NR  ATOM    CHARGE       X              Y              Z

   1  N1      7.00    0.000000000    0.000000000    0.129431608
   2  H1      1.00    0.883159051   -1.529676348   -0.599542866
   3  H3      1.00    0.883159051    1.529676348   -0.599542866
   4  H2      1.00   -1.766318102    0.000000000   -0.599542866

 Bond lengths in Bohr (Angstrom)

 1-2  1.910833175  1-3  1.910833175  1-4  1.910833175
     ( 1.011169370)     ( 1.011169370)     ( 1.011169370)

 Bond angles

  2-1-3  106.36119335   2-1-4  106.36119335   3-1-4  106.36119335

 NUCLEAR CHARGE:                   10
 NUMBER OF PRIMITIVE AOS:         112
 NUMBER OF SYMMETRY AOS:          103
 NUMBER OF CONTRACTIONS:           85   (   53A'  +   32A"  )
 NUMBER OF INNER CORE ORBITALS:     0   (    0A'  +    0A"  )
 NUMBER OF OUTER CORE ORBITALS:     1   (    1A'  +    0A"  )
 NUMBER OF VALENCE ORBITALS:        7   (    5A'  +    2A"  )


 NUCLEAR REPULSION ENERGY   11.97056997


 Eigenvalues of metric

         1 0.101E-02 0.297E-02 0.363E-02 0.766E-02 0.119E-01 0.129E-01 0.219E-01 0.301E-01
         2 0.363E-02 0.766E-02 0.301E-01 0.382E-01 0.656E-01 0.860E-01 0.132E+00 0.166E+00


 Contracted 2-electron integrals neglected if value below      1.0D-11
 AO integral compression algorithm  1   Integral accuracy      1.0D-11

     18.874 MB (compressed) written to integral file ( 53.1%)


 NUMBER OF SORTED TWO-ELECTRON INTEGRALS:    3430956.     BUFFER LENGTH:  32768
 NUMBER OF SEGMENTS:   1  SEGMENT LENGTH:    3430956      RECORD LENGTH: 524288

 Memory used in sort:       3.99 MW

 SORT1 READ     4410526. AND WROTE     3128983. INTEGRALS IN      9 RECORDS. CPU TIME:     0.03 SEC, REAL TIME:     0.06 SEC
 SORT2 READ     3128983. AND WROTE     3430956. INTEGRALS IN     72 RECORDS. CPU TIME:     0.06 SEC, REAL TIME:     0.08 SEC

 FILE SIZES:   FILE 1:    49.1 MBYTE,  FILE 4:    37.8 MBYTE,   TOTAL:     86.9 MBYTE

 OPERATOR DM      FOR CENTER  0  COORDINATES:    0.000000    0.000000    0.000000


 **********************************************************************************************************************************
 DATASETS  * FILE   NREC   LENGTH (MB)   RECORD NAMES
              1      19       42.61       500      610      700      900      950      970     1000      129      960     1100   
                                          VAR    BASINP    GEOM    SYMINP    ZMAT    AOBASIS   BASIS     P2S    ABASIS      S 
                                         1400     1410     1200     1210     1080     1600     1650     1300     1700   
                                           T        V       H0       H01     AOSYM     SMH    MOLCAS    ERIS     OPER   

 PROGRAMS   *        TOTAL       INT
 CPU TIMES  *         0.71      0.61
 REAL TIME  *         1.44 SEC
 DISK USED  *        83.24 MB
 **********************************************************************************************************************************


 Program * Restricted Hartree-Fock

 Orbital guess generated from atomic densities. Full valence occupancy:    6   2

 Initial occupancy:   4   1

 NELEC=   10   SYM=1   MS2= 0   THRE=1.0D-08   THRD=3.2D-06   THRG=3.2D-06  HFMA2=F  DIIS_START=2   DIIS_MAX=10   DIIS_INCORE=F

 Level shifts:    0.00 (CLOSED)    0.00 (OPEN)    0.30 (GAP_MIN)

 ITER           ETOT              DE          GRAD        DDIFF     DIIS  NEXP   TIME(IT)  TIME(TOT)  DIAG
   1      -56.19231723     -56.19231723     0.00D+00     0.96D-01     0     0       0.01      0.02    start
   2      -56.21317190      -0.02085467     0.11D-01     0.14D-01     1     0       0.02      0.04    diag
   3      -56.21788354      -0.00471164     0.53D-02     0.45D-02     2     0       0.01      0.05    diag
   4      -56.21810462      -0.00022107     0.81D-03     0.88D-03     3     0       0.02      0.07    diag
   5      -56.21811901      -0.00001440     0.19D-03     0.24D-03     4     0       0.01      0.08    diag
   6      -56.21811963      -0.00000062     0.33D-04     0.60D-04     5     0       0.01      0.09    diag
   7      -56.21811965      -0.00000003     0.62D-05     0.14D-04     6     0       0.01      0.10    diag
   8      -56.21811966      -0.00000000     0.15D-05     0.32D-05     7     0       0.02      0.12    fixocc
   9      -56.21811966      -0.00000000     0.22D-06     0.58D-06     8     0       0.01      0.13    diag
  10      -56.21811966      -0.00000000     0.56D-07     0.10D-06     0     0       0.02      0.15    diag/orth

 Final occupancy:   4   1

 !RHF STATE 1.1 Energy                -56.218119656429
  RHF One-electron energy             -99.684636479214
  RHF Two-electron energy              31.495946848817
  RHF Kinetic energy                   56.176861783840
  RHF Nuclear energy                   11.970569973967
  RHF Virial quotient                  -1.000734428220

 !RHF STATE 1.1 Dipole moment           0.00000000     0.00000000    -0.65600963
 Dipole moment /Debye                   0.00000000     0.00000000    -1.66741016

 Orbital energies:

           1.1          2.1          3.1          4.1          5.1          6.1
    -15.532916    -1.138635    -0.623700    -0.427421     0.137104     0.217021

           1.2          2.2          3.2
     -0.623700     0.217021     0.477388


 HOMO      4.1    -0.427421 =     -11.6307eV
 LUMO      5.1     0.137104 =       3.7308eV
 LUMO-HOMO         0.564525 =      15.3615eV

 Orbitals saved in record  2100.2


 **********************************************************************************************************************************
 DATASETS  * FILE   NREC   LENGTH (MB)   RECORD NAMES
              1      19       42.61       500      610      700      900      950      970     1000      129      960     1100   
                                          VAR    BASINP    GEOM    SYMINP    ZMAT    AOBASIS   BASIS     P2S    ABASIS      S 
                                         1400     1410     1200     1210     1080     1600     1650     1300     1700   
                                           T        V       H0       H01     AOSYM     SMH    MOLCAS    ERIS     OPER   

              2       4        0.47       700     1000      520     2100   
                                         GEOM     BASIS   MCVARS     RHF  

 PROGRAMS   *        TOTAL    HF-SCF       INT
 CPU TIMES  *         0.86      0.15      0.61
 REAL TIME  *         1.60 SEC
 DISK USED  *        83.24 MB
 **********************************************************************************************************************************


 PROGRAM * CCSD (Closed-shell coupled cluster)     Authors: C. Hampel, H.-J. Werner, 1991, M. Deegan, P.J. Knowles, 1992


 CORETYPE=SMALL

 Convergence thresholds:  THRVAR = 1.00D-08  THRDEN = 1.00D-06

 CCSD(T)     terms to be evaluated (factor= 1.000)


 Number of closed-shell orbitals:   5 (   4   1 )
 Number of external orbitals:      80 (  49  31 )

 Molecular orbitals read from record     2100.2  Type=RHF/CANONICAL  

 Number of N-1 electron functions:               5
 Number of N-2 electron functions:              15
 Number of singly external CSFs:               227
 Number of doubly external CSFs:             40929
 Total number of CSFs:                       41157

 Length of J-op  integral file:               0.00 MB
 Length of K-op  integral file:               0.33 MB
 Length of 3-ext integral record:             0.00 MB

 Memory could be reduced to 2.11 Mwords without degradation in triples

 Integral transformation finished. Total CPU:   0.03 sec, npass=  1  Memory used:   0.69 MW

 Reference energy:                    -56.21811966

 MP2 singlet pair energy:              -0.20023571
 MP2 triplet pair energy:              -0.08694104
 MP2 correlation energy:               -0.28717674
 MP2 total energy:                    -56.50529640

 SCS-MP2 correlation energy:           -0.29437949   (PS=  1.200000  PT=  0.333333)
 SCS-MP2 total energy:                -56.51249915

 ITER.      SQ.NORM     CORR.ENERGY   TOTAL ENERGY   ENERGY CHANGE        DEN1      VAR(S)    VAR(P)  DIIS     TIME  TIME/IT
   1      1.06970888    -0.30022145   -56.51834110    -0.01304470    -0.00751750  0.50D-03  0.88D-03  1  1     1.27     0.05
   2      1.07340087    -0.30085002   -56.51896968    -0.00062857    -0.00494583  0.12D-04  0.99D-04  2  2     1.31     0.05
   3      1.07467108    -0.30093657   -56.51905623    -0.00008655    -0.00096688  0.14D-05  0.81D-05  3  3     1.35     0.05
   4      1.07513058    -0.30093837   -56.51905803    -0.00000180    -0.00031748  0.20D-06  0.37D-06  4  4     1.39     0.05
   5      1.07518630    -0.30094209   -56.51906175    -0.00000372    -0.00001460  0.37D-07  0.20D-07  5  5     1.43     0.05
   6      1.07519180    -0.30094166   -56.51906132     0.00000042    -0.00000188  0.11D-07  0.18D-08  6  6     1.47     0.05
   7      1.07519456    -0.30094167   -56.51906133    -0.00000001    -0.00000085  0.19D-08  0.42D-09  6  1     1.52     0.05

 Norm of t1 vector:      0.02621965      S-energy:    -0.00000005      T1 diagnostic:  0.00586289
                                                                       D1 diagnostic:  0.01028240
                                                                       D2 diagnostic:  0.13031802 (internal)


 Total CPU time for triples:      0.19 sec


 RESULTS
 =======

  Reference energy                    -56.218119656429

  Correlated core orbitals:             1.1
  Orbital energies:                   -15.5329

  CCSD core-core energy                -0.037742670949
  CCSD core-valence energy             -0.014521997064
  CCSD valence correlation energy      -0.248677002731

  CCSD singlet pair energy             -0.220749379602
  CCSD triplet pair energy             -0.080192239444
  CCSD correlation energy              -0.300941670744

  Triples (T) contribution             -0.008134925334
  Total correlation energy             -0.309076596078

  CCSD total energy                   -56.519061327174
  CCSD[T] energy                      -56.527422434091
  CCSD-T energy                       -56.527094712747
 !CCSD(T) total energy                -56.527196252507

 Timing summary (sec):

 STEP                 CPU(USER)    SYS     CPU(TOT)    WALL
 Transformation          0.04      0.01      0.05      0.06
 CCSD iterations         1.48      0.04      1.52      0.34
 Triples                 0.19      0.03      0.22      0.21

 Program statistics:

 Available memory in ccsd:              1073741720
 Min. memory needed in ccsd:                165914
 Max. memory used in ccsd:                  196551
 Max. memory used in cckext:                257941 ( 7 integral passes)



 **********************************************************************************************************************************
 DATASETS  * FILE   NREC   LENGTH (MB)   RECORD NAMES
              1      20       48.30       500      610      700      900      950      970     1000      129      960     1100   
                                          VAR    BASINP    GEOM    SYMINP    ZMAT    AOBASIS   BASIS     P2S    ABASIS      S 
                                         1400     1410     1200     1210     1080     1600     1650     1300     1700     1380   
                                           T        V       H0       H01     AOSYM     SMH    MOLCAS    ERIS     OPER     JKOP   

              2       4        0.47       700     1000      520     2100   
                                         GEOM     BASIS   MCVARS     RHF  

 PROGRAMS   *        TOTAL   CCSD(T)    HF-SCF       INT
 CPU TIMES  *         1.41      0.55      0.15      0.61
 REAL TIME  *         2.24 SEC
 DISK USED  *        83.24 MB
 **********************************************************************************************************************************

 Dump information in style XML to xml output                                                                      

 Orbitals will not be exported.

 **********************************************************************************************************************************

 CCSD(T)/cc-pCVTZ energy=    -56.527196252507

         CCSD(T)          HF-SCF
    -56.52719625    -56.21811966
 **********************************************************************************************************************************
 Molpro calculation terminated
