
 Working directory              : /var/folders/2v/xbgp75_9785319ghcgb4zr4r0000gp/T//molpro.WNkmBCwmYe/
 Global scratch directory       : /var/folders/2v/xbgp75_9785319ghcgb4zr4r0000gp/T//molpro.WNkmBCwmYe/
 Wavefunction directory         : /Users/sacpjk/wfu/
 Main file repository           : /var/folders/2v/xbgp75_9785319ghcgb4zr4r0000gp/T//molpro.WNkmBCwmYe/

 id        : peterk

 Nodes                        nprocs
 Cardiff-University-G34YLXT77Y    1
 GA implementation: MPI file
 GA implementation (serial work in mppx): MPI file

 Using customized tuning parameters: mindgm=1; mindgv=20; mindgc=4; mindgr=1; noblas=0; minvec=7
 default implementation of scratch files=df  


 Variables initialized (1032), CPU time= 0.01 sec
 
 symmetry,nosym
 
 
 geometry={
           16
     C          0.48462430     -0.55755495      1.43729151
     C          0.48462430     -0.55755495     -1.43729151
     C         -0.27595797     -1.44977527      0.70359025
     C         -0.27595797     -1.44977527     -0.70359025
     C         -0.27595797      1.45086377      0.69299925
     C         -0.27595797      1.45086377     -0.69299925
     H          0.37292526     -0.50748993      2.51767690
     H          1.44526264     -0.21636383      1.06867438
     H          0.37292526     -0.50748993     -2.51767690
     H          1.44526264     -0.21636383     -1.06867438
     H         -1.05536225     -2.01444047      1.21328943
     H         -1.05536225     -2.01444047     -1.21328943
     H          0.51071931      1.96707995      1.23581344
     H         -1.20625330      1.32768072      1.23591744
     H          0.51071931      1.96707995     -1.23581344
     H         -1.20625330      1.32768072     -1.23591744
 }
 basis=cc-pVTZ
 
 
 
 hf; mp4
 
 
 
 {put,xml;noorbitals,nobasis}
 Commands initialized (841), CPU time= 0.00 sec, 704 directives.
 Default parameters read. Elapsed time= 0.07 sec

 Checking input...
 Passed
1


                                         ***  PROGRAM SYSTEM MOLPRO  ***
                                       Copyright, TTI GmbH Stuttgart, 2015
                                    Version 2023.1 linked Tue Jun  6 09:54:11 2023


 **********************************************************************************************************************************
 LABEL *                                                                                                                                                                 
  64 bit serial version                                                                  DATE: 10-Jun-23          TIME: 23:05:21  
 **********************************************************************************************************************************

 SHA1:             8ebb0dd001088a5c915591db1a321413035db0b1
 **********************************************************************************************************************************

 Memory per process:       805 MW
 Total memory per node:   1074 MW
 Total GA space:           268 MW

 GA preallocation disabled
 GA check enabled

 Variable memory set to 805.3 MW

 ZSYMEL=NOSYM


 Geometry recognized as XYZ

 SETTING BASIS          =    CC-PVTZ


 Recomputing integrals since basis changed


 Using spherical harmonics

 Library entry C      S cc-pVTZ              selected for orbital group  1
 Library entry C      P cc-pVTZ              selected for orbital group  1
 Library entry C      D cc-pVTZ              selected for orbital group  1
 Library entry C      F cc-pVTZ              selected for orbital group  1
 Library entry H      S cc-pVTZ              selected for orbital group  2
 Library entry H      P cc-pVTZ              selected for orbital group  2
 Library entry H      D cc-pVTZ              selected for orbital group  2


 PROGRAM * SEWARD (Integral evaluation for generally contracted gaussian basis sets)     Author: Roland Lindh, 1990

 Geometry written to block  1 of record 700


 Point group  C1  



 ATOMIC COORDINATES

 NR  ATOM    CHARGE       X              Y              Z

   1  C       6.00    0.915807200   -1.053626155    2.716087315
   2  C       6.00    0.915807200   -1.053626155   -2.716087315
   3  C       6.00   -0.521484985   -2.739678203    1.329592876
   4  C       6.00   -0.521484985   -2.739678203   -1.329592876
   5  C       6.00   -0.521484985    2.741735169    1.309578787
   6  C       6.00   -0.521484985    2.741735169   -1.309578787
   7  H       1.00    0.704726606   -0.959016979    4.757719811
   8  H       1.00    2.731150568   -0.408868382    2.019501895
   9  H       1.00    0.704726606   -0.959016979   -4.757719811
  10  H       1.00    2.731150568   -0.408868382   -2.019501895
  11  H       1.00   -1.994345615   -3.806740783    2.292784733
  12  H       1.00   -1.994345615   -3.806740783   -2.292784733
  13  H       1.00    0.965119622    3.717242371    2.335348943
  14  H       1.00   -2.279488374    2.508952942    2.335545474
  15  H       1.00    0.965119622    3.717242371   -2.335348943
  16  H       1.00   -2.279488374    2.508952942   -2.335545474

 Bond lengths in Bohr (Angstrom)

 1-3  2.613608074  1-7  2.054694421  1-8  2.048515408  2-4  2.613608074  2-9  2.054694421
     ( 1.383061831)     ( 1.087297463)     ( 1.084027670)     ( 1.383061831)     ( 1.087297463)

  2-10  2.048515408   3- 4  2.659185753   3-11  2.058076659   4-12  2.058076659   5- 6  2.619157574
       ( 1.084027670)       ( 1.407180500)       ( 1.089087266)       ( 1.089087266)       ( 1.385998500)

  5-13  2.052757163   5-14  2.048748673   6-15  2.052757163   6-16  2.048748673
       ( 1.086272310)       ( 1.084151108)       ( 1.086272310)       ( 1.084151108)

 Bond angles

  1- 3- 4  122.03860671   1- 3-11  118.66926903   2- 4- 3  122.03860671   2- 4-12  118.66926903

  3- 1- 7  120.02169320   3- 1- 8  120.66275757   3- 4-12  117.90492772   4- 2- 9  120.02169320

  4- 2-10  120.66275757   4- 3-11  117.90492772   5- 6-15  119.98039263   5- 6-16  120.05143452

  6- 5-13  119.98039263   6- 5-14  120.05143452   7- 1- 8  114.48326129   9- 2-10  114.48326129

 13- 5-14  115.16206745  15- 6-16  115.16206745

 NUCLEAR CHARGE:                   46
 NUMBER OF PRIMITIVE AOS:         452
 NUMBER OF SYMMETRY AOS:          412
 NUMBER OF CONTRACTIONS:          320   (  320A   )
 NUMBER OF INNER CORE ORBITALS:     0   (    0A   )
 NUMBER OF OUTER CORE ORBITALS:     6   (    6A   )
 NUMBER OF VALENCE ORBITALS:       34   (   34A   )


 NUCLEAR REPULSION ENERGY  223.96110073


 Eigenvalues of metric

         1 0.150E-03 0.351E-03 0.544E-03 0.727E-03 0.764E-03 0.835E-03 0.105E-02 0.111E-02


 Contracted 2-electron integrals neglected if value below      1.0D-11
 AO integral compression algorithm  1   Integral accuracy      1.0D-11

     4214.751 MB (compressed) written to integral file ( 38.5%)


 NUMBER OF SORTED TWO-ELECTRON INTEGRALS: 1318950480.     BUFFER LENGTH:  32768
 NUMBER OF SEGMENTS:  42  SEGMENT LENGTH:   31998710      RECORD LENGTH: 524288

 Memory used in sort:      32.56 MW

 SORT1 READ  1368857533. AND WROTE  1105986179. INTEGRALS IN   3186 RECORDS. CPU TIME:    11.36 SEC, REAL TIME:    32.50 SEC
 SORT2 READ  1105986179. AND WROTE  1318950480. INTEGRALS IN  16078 RECORDS. CPU TIME:     7.99 SEC, REAL TIME:    23.29 SEC

 FILE SIZES:   FILE 1:  4248.8 MBYTE,  FILE 4: 13363.1 MBYTE,   TOTAL:  17611.9 MBYTE

 OPERATOR DM      FOR CENTER  0  COORDINATES:    0.000000    0.000000    0.000000


 **********************************************************************************************************************************
 DATASETS  * FILE   NREC   LENGTH (MB)   RECORD NAMES
              1      19     3780.14       500      610      700      900      950      970     1000      129      960     1100   
                                          VAR    BASINP    GEOM    SYMINP    ZMAT    AOBASIS   BASIS     P2S    ABASIS      S 
                                         1400     1410     1200     1210     1080     1600     1650     1300     1700   
                                           T        V       H0       H01     AOSYM     SMH    MOLCAS    ERIS     OPER   

 PROGRAMS   *        TOTAL       INT
 CPU TIMES  *        50.19     50.10
 REAL TIME  *       126.64 SEC
 DISK USED  *        16.40 GB
 **********************************************************************************************************************************


 Program * Restricted Hartree-Fock

 Orbital guess generated from atomic densities. Full valence occupancy:   40

 Initial occupancy:  23

 NELEC=   46   SYM=1   MS2= 0   THRE=1.0D-08   THRD=3.2D-06   THRG=3.2D-06  HFMA2=F  DIIS_START=2   DIIS_MAX=10   DIIS_INCORE=F

 Level shifts:    0.00 (CLOSED)    0.00 (OPEN)    0.30 (GAP_MIN)

 ITER           ETOT              DE          GRAD        DDIFF     DIIS  NEXP   TIME(IT)  TIME(TOT)  DIAG
   1     -232.89534337    -232.89534337     0.00D+00     0.41D-01     0     0       8.16     15.59    start
   2     -232.95498565      -0.05964228     0.25D-02     0.37D-02     1     0       8.26     23.85    diag
   3     -232.96262768      -0.00764203     0.97D-03     0.11D-02     2     0       8.02     31.87    diag
   4     -232.96405447      -0.00142679     0.35D-03     0.48D-03     3     0       7.80     39.67    diag
   5     -232.96415611      -0.00010164     0.75D-04     0.11D-03     4     0       8.18     47.85    diag
   6     -232.96419826      -0.00004215     0.37D-04     0.66D-04     5     0       7.84     55.69    diag
   7     -232.96421484      -0.00001658     0.18D-04     0.45D-04     6     0       7.51     63.20    diag
   8     -232.96421851      -0.00000367     0.78D-05     0.27D-04     7     0       7.97     71.17    fixocc
   9     -232.96421864      -0.00000013     0.17D-05     0.54D-05     8     0       8.33     79.50    diag
  10     -232.96421865      -0.00000001     0.54D-06     0.11D-05     9     0       7.72     87.22    diag/orth
  11     -232.96421865      -0.00000000     0.20D-06     0.34D-06     0     0       8.35     95.57    diag

 Final occupancy:  23

 !RHF STATE 1.1 Energy               -232.964218648231
  RHF One-electron energy            -757.022770340688
  RHF Two-electron energy             300.097450966655
  RHF Kinetic energy                  232.546637902514
  RHF Nuclear energy                  223.961100725802
  RHF Virial quotient                  -1.001795686016

 !RHF STATE 1.1 Dipole moment           0.00941170     0.19261491     0.00000000
 Dipole moment /Debye                   0.02392214     0.48957828     0.00000000

 Orbital energies:

           1.1          2.1          3.1          4.1          5.1          6.1          7.1          8.1          9.1         10.1
    -11.235726   -11.235709   -11.227773   -11.226488   -11.221326   -11.220209    -1.090475    -1.011796    -0.975111    -0.848116

          11.1         12.1         13.1         14.1         15.1         16.1         17.1         18.1         19.1         20.1
     -0.793315    -0.713900    -0.666616    -0.634247    -0.593296    -0.567886    -0.564926    -0.516964    -0.503628    -0.487063

          21.1         22.1         23.1         24.1         25.1
     -0.471187    -0.305443    -0.302759     0.108304     0.138513


 HOMO     23.1    -0.302759 =      -8.2385eV
 LUMO     24.1     0.108304 =       2.9471eV
 LUMO-HOMO         0.411063 =      11.1856eV

 Orbitals saved in record  2100.2


 **********************************************************************************************************************************
 DATASETS  * FILE   NREC   LENGTH (MB)   RECORD NAMES
              1      19     3780.14       500      610      700      900      950      970     1000      129      960     1100   
                                          VAR    BASINP    GEOM    SYMINP    ZMAT    AOBASIS   BASIS     P2S    ABASIS      S 
                                         1400     1410     1200     1210     1080     1600     1650     1300     1700   
                                           T        V       H0       H01     AOSYM     SMH    MOLCAS    ERIS     OPER   

              2       4        2.24       700     1000      520     2100   
                                         GEOM     BASIS   MCVARS     RHF  

 PROGRAMS   *        TOTAL    HF-SCF       INT
 CPU TIMES  *       145.77     95.57     50.10
 REAL TIME  *       355.23 SEC
 DISK USED  *        16.40 GB
 **********************************************************************************************************************************


 PROGRAM * MP4 (Closed-shell)     Authors: C. Hampel, H.-J. Werner, 1991, M. Deegan, P.J. Knowles, 1992


 Convergence thresholds:  THRVAR = 1.00D-08  THRDEN = 1.00D-06

 MP4(T)     terms to be evaluated (factor= 0.000)


 Number of core orbitals:           6 (   6 )
 Number of closed-shell orbitals:  17 (  17 )
 Number of external orbitals:     297 ( 297 )

 Molecular orbitals read from record     2100.2  Type=RHF/CANONICAL  

 Number of N-1 electron functions:              17
 Number of N-2 electron functions:             153
 Number of singly external CSFs:              5049
 Number of doubly external CSFs:          12748725
 Total number of CSFs:                    12753775

 Length of J-op  integral file:               0.00 MB
 Length of K-op  integral file:               7.09 MB

 Memory could be reduced to 542.17 Mwords without degradation in triples

 Integral transformation finished. Total CPU:  67.85 sec, npass=  1  Memory used: 323.62 MW

 Reference energy:                   -232.96421865

                        CORR.ENERGY   TOTAL ENERGY   ENERGY CHANGE
 MP2:                   -1.04059743  -234.00481608    -1.04059743

 SCS-MP2 correlation energy:           -1.03514656   (PS=  1.200000  PT=  0.333333)
 SCS-MP2 total energy:               -233.99936521

 MP3(D):                -1.07770524  -234.04192388    -0.03710781
 MP4(DQ):               -1.06949778  -234.03371643     0.00820745
 MP4(SDQ):              -1.07767557  -234.04189422    -0.00817779

 Norm of t1 vector:      0.07359722      S-energy:    -0.00817779      T1 diagnostic:  0.00892497

   CPU time for triples:   2161.09 sec for i =  1 - 15 / 17 (~  69.9 % done)
   CPU time for triples:    917.41 sec for i = 16 - 17 / 17 (  100.0 % done)

 Total CPU time for triples:   3078.50 sec


 RESULTS
 =======

  Reference energy                   -232.964218648231
  MP4(SDQ) singlet pair energy         -0.730612209023
  MP4(SDQ) triplet pair energy         -0.338885572470
  MP4(SDQ) correlation energy          -1.077675568739

  Triples contribution                 -0.061341429538
  Total correlation energy             -1.139016998277

  MP4(SDQ) total energy              -234.041894216970
 !MP4(SDTQ) total energy             -234.103235646508

 Timing summary (sec):

 STEP                 CPU(USER)    SYS     CPU(TOT)    WALL
 Transformation         69.01      8.08     77.09    166.66
 CCSD iterations       276.88      5.33    282.21    281.93
 Triples              3078.50    106.11   3184.61   5099.81

 Program statistics:

 Available memory in ccsd:               805305189
 Min. memory needed in ccsd:              30737753
 Max. memory used in ccsd:                42497979
 Max. memory used in cckext:              32340670 ( 1 integral passes)



 **********************************************************************************************************************************
 DATASETS  * FILE   NREC   LENGTH (MB)   RECORD NAMES
              1      20     5665.85       500      610      700      900      950      970     1000      129      960     1100   
                                          VAR    BASINP    GEOM    SYMINP    ZMAT    AOBASIS   BASIS     P2S    ABASIS      S 
                                         1400     1410     1200     1210     1080     1600     1650     1300     1700     1380   
                                           T        V       H0       H01     AOSYM     SMH    MOLCAS    ERIS     OPER     JKOP   

              2       4        2.24       700     1000      520     2100   
                                         GEOM     BASIS   MCVARS     RHF  

 PROGRAMS   *        TOTAL       MP4    HF-SCF       INT
 CPU TIMES  *      3424.29   3278.53     95.57     50.10
 REAL TIME  *      5903.67 SEC
 DISK USED  *        16.40 GB
 **********************************************************************************************************************************

 Dump information in style XML to xml output                                                                      

 Orbitals will not be exported.

 **********************************************************************************************************************************

 MP4/cc-pVTZ energy=   -234.103235646508

             MP4          HF-SCF
   -234.10323565   -232.96421865
 **********************************************************************************************************************************
 Molpro calculation terminated
