
 Working directory              : /tmp/peterk/molpro.CQyJD0nh8m/
 Global scratch directory       : /tmp/peterk/molpro.CQyJD0nh8m/
 Wavefunction directory         : /home/peterk/wfu/
 Main file repository           : /tmp/peterk/molpro.CQyJD0nh8m/

 id        : peterk

 Nodes     nprocs
 marat        1
 GA implementation: MPI file
 GA implementation (serial work in mppx): MPI file

 Using customized tuning parameters: mindgm=1; mindgv=20; mindgc=4; mindgr=1; noblas=0; minvec=7
 default implementation of scratch files=df  


 Variables initialized (1032), CPU time= 0.00 sec
 
 symmetry,nosym
 
 
 geometry={
            8
     S         -1.45620599      1.45620599     -0.36909390
     O         -1.87655153      0.00000000      0.36909390
     S         -1.45620599     -1.45620599     -0.36909390
     O          0.00000000     -1.87655153      0.36909390
     S          1.45620599     -1.45620599     -0.36909390
     O          1.87655153      0.00000000      0.36909390
     S          1.45620599      1.45620599     -0.36909390
     O          0.00000000      1.87655153      0.36909390
 }
 basis=cc-pVDZ
 
 
 
 hf; ccsd(t)
 
 
 
 {put,xml;noorbitals,nobasis}
 Commands initialized (841), CPU time= 0.01 sec, 708 directives.
 Default parameters read. Elapsed time= 0.06 sec

 Checking input...
 Passed
1


                                         ***  PROGRAM SYSTEM MOLPRO  ***
                                       Copyright, TTI GmbH Stuttgart, 2015
                                    Version 2023.1 linked Sat Jun 10 08:01:27 2023


 **********************************************************************************************************************************
 LABEL *                                                                                                                                                                 
  (16 PROC) 64 bit serial version                                                        DATE: 13-Jun-23          TIME: 11:36:55  
 **********************************************************************************************************************************

 SHA1:             8376d659ba1296ca7ee514c57770fe2c96af278c
 **********************************************************************************************************************************

 Memory per process:      1074 MW
 Total memory per node:   1074 MW

 GA preallocation disabled
 GA check disabled

 Variable memory set to 1073.7 MW

 ZSYMEL=NOSYM


 Geometry recognized as XYZ

 SETTING BASIS          =    CC-PVDZ


 Recomputing integrals since basis changed


 Using spherical harmonics

 Library entry S      S cc-pVDZ              selected for orbital group  1
 Library entry S      P cc-pVDZ              selected for orbital group  1
 Library entry S      D cc-pVDZ              selected for orbital group  1
 Library entry O      S cc-pVDZ              selected for orbital group  2
 Library entry O      P cc-pVDZ              selected for orbital group  2
 Library entry O      D cc-pVDZ              selected for orbital group  2


 PROGRAM * SEWARD (Integral evaluation for generally contracted gaussian basis sets)     Author: Roland Lindh, 1990

 Geometry written to block  1 of record 700


 Point group  C1  



 ATOMIC COORDINATES

 NR  ATOM    CHARGE       X              Y              Z

   1  S      16.00   -2.751830502    2.751830502   -0.697486385
   2  O       8.00   -3.546168450    0.000000000    0.697486385
   3  S      16.00   -2.751830502   -2.751830502   -0.697486385
   4  O       8.00    0.000000000   -3.546168450    0.697486385
   5  S      16.00    2.751830502   -2.751830502   -0.697486385
   6  O       8.00    3.546168450    0.000000000    0.697486385
   7  S      16.00    2.751830502    2.751830502   -0.697486385
   8  O       8.00    0.000000000    3.546168450    0.697486385

 Bond lengths in Bohr (Angstrom)

 1-2  3.185826882  1-3  5.503661004  1-7  5.503661004  1-8  3.185826882  2-3  3.185826882
     ( 1.685866984)     ( 2.912411980)     ( 2.912411980)     ( 1.685866984)     ( 1.685866984)

 3-4  3.185826882  3-5  5.503661004  4-5  3.185826882  5-6  3.185826882  5-7  5.503661004
     ( 1.685866984)     ( 2.912411980)     ( 1.685866984)     ( 1.685866984)     ( 2.912411980)

 6-7  3.185826882  7-8  3.185826882
     ( 1.685866984)     ( 1.685866984)

 Bond angles

  1-2-3  119.48573081   1-3-2   30.25713460   1-3-4  104.43816075   1-3-5   90.00000000

  1-7-5   90.00000000   1-7-6  104.43816075   1-7-8   30.25713460   1-8-7  119.48573081

  2-1-3   30.25713460   2-1-7  104.43816075   2-1-8  103.82804422   2-3-4  103.82804422

  2-3-5  104.43816075   3-1-7   90.00000000   3-1-8  104.43816075   3-4-5  119.48573081

  3-5-4   30.25713460   3-5-6  104.43816075   3-5-7   90.00000000   4-3-5   30.25713460

  4-5-6  103.82804422   4-5-7  104.43816075   5-6-7  119.48573081   5-7-6   30.25713460

  5-7-8  104.43816075   6-5-7   30.25713460   6-7-8  103.82804422   7-1-8   30.25713460

 NUCLEAR CHARGE:                   96
 NUMBER OF PRIMITIVE AOS:         276
 NUMBER OF SYMMETRY AOS:          268
 NUMBER OF CONTRACTIONS:          128   (  128A   )
 NUMBER OF INNER CORE ORBITALS:     4   (    4A   )
 NUMBER OF OUTER CORE ORBITALS:    20   (   20A   )
 NUMBER OF VALENCE ORBITALS:       32   (   32A   )


 NUCLEAR REPULSION ENERGY  788.36996931


 Eigenvalues of metric

         1 0.828E-02 0.113E-01 0.113E-01 0.147E-01 0.203E-01 0.244E-01 0.244E-01 0.382E-01


 Contracted 2-electron integrals neglected if value below      1.0D-11
 AO integral compression algorithm  1   Integral accuracy      1.0D-11

     114.295 MB (compressed) written to integral file ( 37.2%)


 NUMBER OF SORTED TWO-ELECTRON INTEGRALS:   34084896.     BUFFER LENGTH:  32768
 NUMBER OF SEGMENTS:   3  SEGMENT LENGTH:   15998004      RECORD LENGTH: 524288

 Memory used in sort:      16.56 MW

 SORT1 READ    38495532. AND WROTE    29036461. INTEGRALS IN     84 RECORDS. CPU TIME:     0.31 SEC, REAL TIME:     0.54 SEC
 SORT2 READ    29036461. AND WROTE    34084896. INTEGRALS IN    436 RECORDS. CPU TIME:     0.42 SEC, REAL TIME:     0.51 SEC

 FILE SIZES:   FILE 1:   145.1 MBYTE,  FILE 4:   352.4 MBYTE,   TOTAL:    497.4 MBYTE

 OPERATOR DM      FOR CENTER  0  COORDINATES:    0.000000    0.000000    0.000000


 **********************************************************************************************************************************
 DATASETS  * FILE   NREC   LENGTH (MB)   RECORD NAMES
              1      19      123.19       500      610      700      900      950      970     1000      129      960     1100   
                                          VAR    BASINP    GEOM    SYMINP    ZMAT    AOBASIS   BASIS     P2S    ABASIS      S 
                                         1400     1410     1200     1210     1080     1600     1650     1300     1700   
                                           T        V       H0       H01     AOSYM     SMH    MOLCAS    ERIS     OPER   

 PROGRAMS   *        TOTAL       INT
 CPU TIMES  *         3.47      3.36
 REAL TIME  *         4.66 SEC
 DISK USED  *       474.87 MB
 **********************************************************************************************************************************


 Program * Restricted Hartree-Fock

 Orbital guess generated from atomic densities. Full valence occupancy:   56

 Initial occupancy:  48

 NELEC=   96   SYM=1   MS2= 0   THRE=1.0D-08   THRD=3.2D-06   THRG=3.2D-06  HFMA2=F  DIIS_START=2   DIIS_MAX=10   DIIS_INCORE=F

 Level shifts:    0.00 (CLOSED)    0.00 (OPEN)    0.30 (GAP_MIN)

 ITER           ETOT              DE          GRAD        DDIFF     DIIS  NEXP   TIME(IT)  TIME(TOT)  DIAG
   1    -1889.22240441   -1889.22240441     0.00D+00     0.14D+00     0     0       0.21      0.43    start
   2    -1889.32780322      -0.10539881     0.51D-02     0.14D-01     1     0       0.22      0.65    diag
   3    -1889.33734635      -0.00954313     0.15D-02     0.31D-02     2     0       0.22      0.87    diag
   4    -1889.33850972      -0.00116337     0.45D-03     0.12D-02     3     0       0.22      1.09    diag
   5    -1889.33867736      -0.00016764     0.19D-03     0.34D-03     4     0       0.22      1.31    diag
   6    -1889.33869677      -0.00001940     0.49D-04     0.13D-03     5     0       0.22      1.53    diag
   7    -1889.33869931      -0.00000254     0.12D-04     0.59D-04     6     0       0.23      1.76    diag
   8    -1889.33869955      -0.00000024     0.37D-05     0.20D-04     7     0       0.21      1.97    fixocc
   9    -1889.33869958      -0.00000003     0.12D-05     0.77D-05     8     0       0.21      2.18    diag
  10    -1889.33869958      -0.00000000     0.28D-06     0.16D-05     9     0       0.20      2.38    diag/orth
  11    -1889.33869958      -0.00000000     0.81D-07     0.23D-06     0     0       0.21      2.59    diag

 Final occupancy:  48

 !RHF STATE 1.1 Energy              -1889.338699577613
  RHF One-electron energy           -4182.033511417865
  RHF Two-electron energy            1504.324842531833
  RHF Kinetic energy                 1888.917601796097
  RHF Nuclear energy                  788.369969308418
  RHF Virial quotient                  -1.000222930731

 !RHF STATE 1.1 Dipole moment          -0.00000000     0.00000000    -1.47656787
 Dipole moment /Debye                  -0.00000000     0.00000000    -3.75306118

 Orbital energies:

           1.1          2.1          3.1          4.1          5.1          6.1          7.1          8.1          9.1         10.1
    -92.082358   -92.082357   -92.082357   -92.082357   -20.655111   -20.655102   -20.655102   -20.655090    -9.074845    -9.074820

          11.1         12.1         13.1         14.1         15.1         16.1         17.1         18.1         19.1         20.1
     -9.074820    -9.074801    -6.756376    -6.756376    -6.756376    -6.756375    -6.754214    -6.754213    -6.754213    -6.754213

          21.1         22.1         23.1         24.1         25.1         26.1         27.1         28.1         29.1         30.1
     -6.750327    -6.750326    -6.750326    -6.750326    -1.462656    -1.424960    -1.424960    -1.377643    -1.046405    -0.949561

          31.1         32.1         33.1         34.1         35.1         36.1         37.1         38.1         39.1         40.1
     -0.949561    -0.843606    -0.714712    -0.696237    -0.696237    -0.682989    -0.626274    -0.622490    -0.622490    -0.578894

          41.1         42.1         43.1         44.1         45.1         46.1         47.1         48.1         49.1         50.1
     -0.563399    -0.541523    -0.509552    -0.509552    -0.399246    -0.388577    -0.383799    -0.383799     0.087397     0.087397


 HOMO     48.1    -0.383799 =     -10.4437eV
 LUMO     49.1     0.087397 =       2.3782eV
 LUMO-HOMO         0.471196 =      12.8219eV

 Orbitals saved in record  2100.2


 **********************************************************************************************************************************
 DATASETS  * FILE   NREC   LENGTH (MB)   RECORD NAMES
              1      19      123.19       500      610      700      900      950      970     1000      129      960     1100   
                                          VAR    BASINP    GEOM    SYMINP    ZMAT    AOBASIS   BASIS     P2S    ABASIS      S 
                                         1400     1410     1200     1210     1080     1600     1650     1300     1700   
                                           T        V       H0       H01     AOSYM     SMH    MOLCAS    ERIS     OPER   

              2       4        0.76       700     1000      520     2100   
                                         GEOM     BASIS   MCVARS     RHF  

 PROGRAMS   *        TOTAL    HF-SCF       INT
 CPU TIMES  *         6.07      2.60      3.36
 REAL TIME  *         7.38 SEC
 DISK USED  *       474.87 MB
 **********************************************************************************************************************************


 PROGRAM * CCSD (Closed-shell coupled cluster)     Authors: C. Hampel, H.-J. Werner, 1991, M. Deegan, P.J. Knowles, 1992


 Convergence thresholds:  THRVAR = 1.00D-08  THRDEN = 1.00D-06

 CCSD(T)     terms to be evaluated (factor= 1.000)


 Number of core orbitals:          24 (  24 )
 Number of closed-shell orbitals:  24 (  24 )
 Number of external orbitals:      80 (  80 )

 Molecular orbitals read from record     2100.2  Type=RHF/CANONICAL  

 Number of N-1 electron functions:              24
 Number of N-2 electron functions:             300
 Number of singly external CSFs:              1920
 Number of doubly external CSFs:           1844160
 Total number of CSFs:                     1846081

 Length of J-op  integral file:               0.00 MB
 Length of K-op  integral file:               1.19 MB
 Length of 3-ext integral record:             0.00 MB

 Memory could be reduced to 18.38 Mwords without degradation in triples

 Integral transformation finished. Total CPU:   2.48 sec, npass=  1  Memory used:  34.66 MW

 Reference energy:                  -1889.33869958

 MP2 singlet pair energy:              -0.74632390
 MP2 triplet pair energy:              -0.51407793
 MP2 correlation energy:               -1.26040183
 MP2 total energy:                  -1890.59910141

 SCS-MP2 correlation energy:           -1.21545939   (PS=  1.200000  PT=  0.333333)
 SCS-MP2 total energy:              -1890.55415897

 ITER.      SQ.NORM     CORR.ENERGY   TOTAL ENERGY   ENERGY CHANGE        DEN1      VAR(S)    VAR(P)  DIIS     TIME  TIME/IT
   1      1.44401283    -1.29683536 -1890.63553494    -0.03643353     0.01295466  0.16D-01  0.11D-01  1  1    22.24    13.22
   2      1.48840378    -1.30048965 -1890.63918923    -0.00365429    -0.03997939  0.43D-03  0.20D-02  2  2    36.12    13.65
   3      1.51437944    -1.30178875 -1890.64048832    -0.00129909    -0.01027531  0.49D-03  0.11D-03  3  3    49.33    13.56
   4      1.52456357    -1.30172717 -1890.64042675     0.00006158    -0.00258312  0.86D-04  0.32D-04  4  4    62.85    13.60
   5      1.53153184    -1.30172288 -1890.64042246     0.00000429    -0.00106823  0.22D-04  0.49D-05  5  5    76.79    13.70
   6      1.53428822    -1.30166236 -1890.64036194     0.00006052    -0.00020485  0.46D-05  0.13D-05  6  6    90.53    13.74
   7      1.53534890    -1.30163580 -1890.64033538     0.00002656    -0.00005593  0.12D-05  0.34D-06  6  2   104.45    13.80
   8      1.53574475    -1.30163388 -1890.64033346     0.00000192    -0.00002490  0.27D-06  0.94D-07  6  1   118.38    13.84
   9      1.53593215    -1.30163220 -1890.64033178     0.00000168    -0.00000433  0.46D-07  0.15D-07  6  3   132.51    13.89
  10      1.53595187    -1.30163415 -1890.64033372    -0.00000194     0.00000199  0.53D-08  0.41D-08  6  5   146.68    13.93
  11      1.53596305    -1.30163526 -1890.64033484    -0.00000111     0.00000311  0.10D-08  0.52D-09  6  4   160.76    13.97
  12      1.53596105    -1.30163550 -1890.64033508    -0.00000024     0.00000098  0.25D-09  0.11D-09  6  6   174.39    13.95
  13      1.53595542    -1.30163575 -1890.64033533    -0.00000025     0.00000078  0.51D-10  0.29D-10  6  1   188.08    13.94

 Norm of t1 vector:      0.20851926      S-energy:     0.00000036      T1 diagnostic:  0.02128191
                                                                       D1 diagnostic:  0.06962976
                                                                       D2 diagnostic:  0.16541082 (external, symmetry=1)


 Total CPU time for triples:     92.59 sec


 RESULTS
 =======

  Reference energy                  -1889.338699577612
  CCSD singlet pair energy             -0.850695694059
  CCSD triplet pair energy             -0.450940413866
  CCSD correlation energy              -1.301635752275

  Triples (T) contribution             -0.048535623217
  Total correlation energy             -1.350171375491

  CCSD total energy                 -1890.640335329887
  CCSD[T] energy                    -1890.693277893311
  CCSD-T energy                     -1890.687404215294
 !CCSD(T) total energy              -1890.688870953103

 Timing summary (sec):

 STEP                 CPU(USER)    SYS     CPU(TOT)    WALL
 Transformation          2.63      0.27      2.90      2.91
 CCSD iterations       185.64      2.33    187.97    181.47
 Triples                92.59      2.30     94.89     94.89

 Program statistics:

 Available memory in ccsd:              1073739472
 Min. memory needed in ccsd:               5141127
 Max. memory used in ccsd:                 6669831
 Max. memory used in cckext:              10176573 (13 integral passes)



 **********************************************************************************************************************************
 DATASETS  * FILE   NREC   LENGTH (MB)   RECORD NAMES
              1      20      227.31       500      610      700      900      950      970     1000      129      960     1100   
                                          VAR    BASINP    GEOM    SYMINP    ZMAT    AOBASIS   BASIS     P2S    ABASIS      S 
                                         1400     1410     1200     1210     1080     1600     1650     1300     1700     1380   
                                           T        V       H0       H01     AOSYM     SMH    MOLCAS    ERIS     OPER     JKOP   

              2       4        0.76       700     1000      520     2100   
                                         GEOM     BASIS   MCVARS     RHF  

 PROGRAMS   *        TOTAL   CCSD(T)    HF-SCF       INT
 CPU TIMES  *       280.47    274.40      2.60      3.36
 REAL TIME  *       286.73 SEC
 DISK USED  *       542.92 MB
 **********************************************************************************************************************************

 Dump information in style XML to xml output                                                                      

 Orbitals will not be exported.

 **********************************************************************************************************************************

 CCSD(T)/cc-pVDZ energy=  -1890.688870953103

         CCSD(T)          HF-SCF
  -1890.68887095  -1889.33869958
 **********************************************************************************************************************************
 Molpro calculation terminated
