
 Working directory              : /var/folders/2v/xbgp75_9785319ghcgb4zr4r0000gp/T//molpro.9soavOqZLH/
 Global scratch directory       : /var/folders/2v/xbgp75_9785319ghcgb4zr4r0000gp/T//molpro.9soavOqZLH/
 Wavefunction directory         : /Users/sacpjk/wfu/
 Main file repository           : /var/folders/2v/xbgp75_9785319ghcgb4zr4r0000gp/T//molpro.9soavOqZLH/

 id        : peterk

 Nodes                        nprocs
 Cardiff-University-G34YLXT77Y    1
 GA implementation: MPI file
 GA implementation (serial work in mppx): MPI file

 Using customized tuning parameters: mindgm=1; mindgv=20; mindgc=4; mindgr=1; noblas=0; minvec=7
 default implementation of scratch files=df  


 Variables initialized (1032), CPU time= 0.01 sec
 
 symmetry,nosym
 
 
 geometry={
            3
     P          0.00000000      0.00000000      0.65538955
     H         -1.02013202      0.00000000     -0.32769478
     H          1.02013202      0.00000000     -0.32769478
 }
 basis=cc-pVDZ
 
 
 spin=1
 uhf
 
 
 
 {put,xml;noorbitals,nobasis}
 Commands initialized (841), CPU time= 0.00 sec, 704 directives.
 Default parameters read. Elapsed time= 0.35 sec

 Checking input...
 Passed
1


                                         ***  PROGRAM SYSTEM MOLPRO  ***
                                       Copyright, TTI GmbH Stuttgart, 2015
                                    Version 2023.1 linked Tue Jun  6 09:54:11 2023


 **********************************************************************************************************************************
 LABEL *                                                                                                                                                                 
  64 bit serial version                                                                  DATE: 09-Jun-23          TIME: 09:27:10  
 **********************************************************************************************************************************

 SHA1:             8ebb0dd001088a5c915591db1a321413035db0b1
 **********************************************************************************************************************************

 Memory per process:       805 MW
 Total memory per node:   1074 MW
 Total GA space:           268 MW

 GA preallocation disabled
 GA check enabled

 Variable memory set to 805.3 MW

 ZSYMEL=NOSYM


 Geometry recognized as XYZ

 SETTING BASIS          =    CC-PVDZ
 SETTING SPIN           =         1.00000000                                  


 Recomputing integrals since basis changed


 Using spherical harmonics

 Library entry P      S cc-pVDZ              selected for orbital group  1
 Library entry P      P cc-pVDZ              selected for orbital group  1
 Library entry P      D cc-pVDZ              selected for orbital group  1
 Library entry H      S cc-pVDZ              selected for orbital group  2
 Library entry H      P cc-pVDZ              selected for orbital group  2


 PROGRAM * SEWARD (Integral evaluation for generally contracted gaussian basis sets)     Author: Roland Lindh, 1990

 Geometry written to block  1 of record 700


 Point group  C1  



 ATOMIC COORDINATES

 NR  ATOM    CHARGE       X              Y              Z

   1  P      15.00    0.000000000    0.000000000    1.238506754
   2  H       1.00   -1.927770129    0.000000000   -0.619253387
   3  H       1.00    1.927770129    0.000000000   -0.619253387

 Bond lengths in Bohr (Angstrom)

 1-2  2.677231856  1-3  2.677231856
     ( 1.416730087)     ( 1.416730087)

 Bond angles

  2-1-3   92.11902655

 NUCLEAR CHARGE:                   17
 NUMBER OF PRIMITIVE AOS:          56
 NUMBER OF SYMMETRY AOS:           55
 NUMBER OF CONTRACTIONS:           28   (   28A   )
 NUMBER OF INNER CORE ORBITALS:     1   (    1A   )
 NUMBER OF OUTER CORE ORBITALS:     4   (    4A   )
 NUMBER OF VALENCE ORBITALS:        6   (    6A   )


 NUCLEAR REPULSION ENERGY   11.46497103

 EXTRA SYMMETRY OF AOS IN SYMMETRY 1:   1 1 1 1 1 2 1 1 2 1   1 2 1 1 2 1 1 2 1 1   1 2 1 1 1 1 2 1

 Eigenvalues of metric

         1 0.136E-01 0.422E-01 0.625E-01 0.860E-01 0.872E-01 0.927E-01 0.113E+00 0.132E+00


 Contracted 2-electron integrals neglected if value below      1.0D-11
 AO integral compression algorithm  1   Integral accuracy      1.0D-11

     0.524 MB (compressed) written to integral file ( 35.7%)


 NUMBER OF SORTED TWO-ELECTRON INTEGRALS:      82621.     BUFFER LENGTH:  32768
 NUMBER OF SEGMENTS:   1  SEGMENT LENGTH:      82621      RECORD LENGTH: 524288

 Memory used in sort:       0.64 MW

 SORT1 READ      110532. AND WROTE       38085. INTEGRALS IN      1 RECORDS. CPU TIME:     0.00 SEC, REAL TIME:     0.00 SEC
 SORT2 READ       38085. AND WROTE       82621. INTEGRALS IN      2 RECORDS. CPU TIME:     0.01 SEC, REAL TIME:     0.00 SEC

 FILE SIZES:   FILE 1:    30.6 MBYTE,  FILE 4:     4.3 MBYTE,   TOTAL:     34.8 MBYTE

 OPERATOR DM      FOR CENTER  0  COORDINATES:    0.000000    0.000000    0.000000


 **********************************************************************************************************************************
 DATASETS  * FILE   NREC   LENGTH (MB)   RECORD NAMES
              1      19       28.86       500      610      700      900      950      970     1000      129      960     1100   
                                          VAR    BASINP    GEOM    SYMINP    ZMAT    AOBASIS   BASIS     P2S    ABASIS      S 
                                         1400     1410     1200     1210     1080     1600     1650     1300     1700   
                                           T        V       H0       H01     AOSYM     SMH    MOLCAS    ERIS     OPER   

 PROGRAMS   *        TOTAL       INT
 CPU TIMES  *         0.17      0.09
 REAL TIME  *         0.98 SEC
 DISK USED  *        33.56 MB
 **********************************************************************************************************************************


 Program * Unrestricted Hartree-Fock

 Orbital guess generated from atomic densities. Full valence occupancy:   11

 Initial alpha occupancy:   9
 Initial beta  occupancy:   8

 Elapsed time for starting guess:      0.00 sec

 NELEC=   17   SYM=1   MS2=1   THRE=1.0D-08   THRD=3.2D-06   THRG=3.2D-06  HFMA2=F  DIIS_START=2   DIIS_MAX=10   DIIS_INCORE=F

 Initial level shifts:    0.20 (ALPHA)    0.20 (BETA)

 ITER         ETOT            DE          GRAD         DDIFF    DIIS  NEXP   TIME(IT)  TIME(TOT)  DIAG
   1   -341.85710379  -341.85710379     0.00D+00     0.00D+00     0     0       0.00      0.00    start
   2   -341.86928835    -0.01218455     0.64D-02     0.27D+00     1     0       0.00      0.00    diag
   3   -341.87158644    -0.00229809     0.25D-02     0.12D-01     2     0       0.00      0.00    diag
   4   -341.87200332    -0.00041689     0.91D-03     0.48D-02     3     0       0.00      0.00    diag
   5   -341.87205858    -0.00005526     0.31D-03     0.22D-02     4     0       0.01      0.01    diag
   6   -341.87206475    -0.00000617     0.10D-03     0.85D-03     5     0       0.00      0.01    diag
   7   -341.87206549    -0.00000074     0.35D-04     0.25D-03     6     0       0.00      0.01    diag
   8   -341.87206559    -0.00000010     0.12D-04     0.56D-04     6     0       0.00      0.01    diag
   9   -341.87206561    -0.00000002     0.46D-05     0.96D-05     6     0       0.00      0.01    diag
  10   -341.87206562    -0.00000000     0.18D-05     0.31D-05     6     0       0.00      0.01    diag/ort
  11   -341.87206562    -0.00000000     0.66D-06     0.11D-05     6     0       0.00      0.01    diag

 Final alpha occupancy:   9
 Final beta  occupancy:   8

 !UHF STATE 1.1 Energy               -341.872065615422
  UHF One-electron energy            -495.541147206922
  UHF Two-electron energy             142.204110566466
  UHF Kinetic energy                  341.836006771777
  UHF Nuclear energy                   11.464971025033
  UHF Virial quotient                  -1.000105485797

 !UHF STATE 1.1 Dipole moment           0.00000000    -0.00000000    -0.28805724
 Dipole moment /Debye                   0.00000000    -0.00000000    -0.73216847

 EXPECTATION VALUE OF S**2:             0.76393526

 Orbital energies for positive spin:

           1.1          2.1          3.1          4.1          5.1          6.1          7.1          8.1          9.1         10.1
    -79.959478    -7.502026    -5.406095    -5.392942    -5.391136    -0.857071    -0.521825    -0.426869    -0.373685     0.168846

          11.1
      0.174883

 Orbital energies for negative spin:

           1.1          2.1          3.1          4.1          5.1          6.1          7.1          8.1          9.1         10.1
    -79.952472    -7.493618    -5.388018    -5.387477    -5.374176    -0.787172    -0.515832    -0.403033     0.048489     0.176451


 HOMO      9.1    -0.373685 =     -10.1685eV
 LUMO     -9.1     0.048489 =       1.3195eV
 LUMO-HOMO         0.422175 =      11.4880eV

 Orbitals saved in record  2200.2

 Occupation number threshold for pseudo-canonical orbitals: 1.9990 (occupied), 0.0010 (virtual)

 Number of pseudo-canonical occupied orbitals per symmetry:    7
 Number of active natural orbitals per symmetry:               3

 Natural orbitals saved to record    2200.2 (Orbital set 3)

 Orbital spaces for UNO-CAS (Min. occupation: 0.020  Max. occupation: 1.980):

 Closed:        8
 Active:        1


 **********************************************************************************************************************************
 DATASETS  * FILE   NREC   LENGTH (MB)   RECORD NAMES
              1      19       28.86       500      610      700      900      950      970     1000      129      960     1100   
                                          VAR    BASINP    GEOM    SYMINP    ZMAT    AOBASIS   BASIS     P2S    ABASIS      S 
                                         1400     1410     1200     1210     1080     1600     1650     1300     1700   
                                           T        V       H0       H01     AOSYM     SMH    MOLCAS    ERIS     OPER   

              2       4        0.45       700     1000      520     2200   
                                         GEOM     BASIS   MCVARS     UHF  

              4       3        0.20      2900     3000     3100   

 PROGRAMS   *        TOTAL   UHF-SCF       INT
 CPU TIMES  *         0.18      0.01      0.09
 REAL TIME  *         1.36 SEC
 DISK USED  *        33.56 MB
 **********************************************************************************************************************************

 Dump information in style XML to xml output                                                                      

 Orbitals will not be exported.

 **********************************************************************************************************************************

 UHF/cc-pVDZ energy=   -341.872065615422

         UHF-SCF
   -341.87206562
 **********************************************************************************************************************************
 Molpro calculation terminated
