
 Working directory              : /var/folders/2v/xbgp75_9785319ghcgb4zr4r0000gp/T//molpro.GmdrSyULFZ/
 Global scratch directory       : /var/folders/2v/xbgp75_9785319ghcgb4zr4r0000gp/T//molpro.GmdrSyULFZ/
 Wavefunction directory         : /Users/sacpjk/wfu/
 Main file repository           : /var/folders/2v/xbgp75_9785319ghcgb4zr4r0000gp/T//molpro.GmdrSyULFZ/

 id        : peterk

 Nodes                        nprocs
 Cardiff-University-G34YLXT77Y    1
 GA implementation: MPI file
 GA implementation (serial work in mppx): MPI file

 Using customized tuning parameters: mindgm=1; mindgv=20; mindgc=4; mindgr=1; noblas=0; minvec=7
 default implementation of scratch files=df  


 Variables initialized (1032), CPU time= 0.00 sec
 
 symmetry,nosym
 
 
 geometry={
           17
     SI         0.00000000     -2.06141387     -0.87292226
     SI         0.00000000      0.00000000     -2.02977282
     SI         0.00000000      2.06141387     -0.87292226
     SI         0.00000000      2.04066436      1.47296712
     SI         0.00000000     -2.04066436      1.47296712
     H          1.19799593     -2.82548452     -1.31822012
     H         -1.19799593     -2.82548452     -1.31822012
     H         -1.19676843      0.00000000     -2.91518357
     H          1.19676843      0.00000000     -2.91518357
     H          1.19799593      2.82548452     -1.31822012
     H         -1.19799593      2.82548452     -1.31822012
     H          0.00000000      3.44041450      1.97229570
     H         -1.20608553      1.35278084      1.99746897
     H          1.20608553      1.35278084      1.99746897
     H          0.00000000     -3.44041450      1.97229570
     H          1.20608553     -1.35278084      1.99746897
     H         -1.20608553     -1.35278084      1.99746897
 }
 basis=cc-pVTZ
 
 
 
 hf; mp4
 
 
 
 {put,xml;noorbitals,nobasis}
 Commands initialized (841), CPU time= 0.00 sec, 704 directives.
 Default parameters read. Elapsed time= 0.34 sec

 Checking input...
 Passed
1


                                         ***  PROGRAM SYSTEM MOLPRO  ***
                                       Copyright, TTI GmbH Stuttgart, 2015
                                    Version 2023.1 linked Tue Jun  6 09:54:11 2023


 **********************************************************************************************************************************
 LABEL *                                                                                                                                                                 
  64 bit serial version                                                                  DATE: 13-Jun-23          TIME: 01:27:40  
 **********************************************************************************************************************************

 SHA1:             8ebb0dd001088a5c915591db1a321413035db0b1
 **********************************************************************************************************************************

 Memory per process:       393 MW
 Total memory per node:    524 MW
 Total GA space:           131 MW

 GA preallocation disabled
 GA check enabled

 Variable memory set to 393.2 MW

 ZSYMEL=NOSYM


 Geometry recognized as XYZ

 SETTING BASIS          =    CC-PVTZ


 Recomputing integrals since basis changed


 Using spherical harmonics

 Library entry SI     S cc-pVTZ              selected for orbital group  1
 Library entry SI     P cc-pVTZ              selected for orbital group  1
 Library entry SI     D cc-pVTZ              selected for orbital group  1
 Library entry SI     F cc-pVTZ              selected for orbital group  1
 Library entry H      S cc-pVTZ              selected for orbital group  2
 Library entry H      P cc-pVTZ              selected for orbital group  2
 Library entry H      D cc-pVTZ              selected for orbital group  2


 PROGRAM * SEWARD (Integral evaluation for generally contracted gaussian basis sets)     Author: Roland Lindh, 1990

 Geometry written to block  1 of record 700


 Point group  C1  



 ATOMIC COORDINATES

 NR  ATOM    CHARGE       X              Y              Z

   1  SI     14.00    0.000000000   -3.895507644   -1.649583999
   2  SI     14.00    0.000000000    0.000000000   -3.835714725
   3  SI     14.00    0.000000000    3.895507644   -1.649583999
   4  SI     14.00    0.000000000    3.856296753    2.783504447
   5  SI     14.00    0.000000000   -3.856296753    2.783504447
   6  H       1.00    2.263884206   -5.339391912   -2.491074999
   7  H       1.00   -2.263884206   -5.339391912   -2.491074999
   8  H       1.00   -2.261564567    0.000000000   -5.508898550
   9  H       1.00    2.261564567    0.000000000   -5.508898550
  10  H       1.00    2.263884206    5.339391912   -2.491074999
  11  H       1.00   -2.263884206    5.339391912   -2.491074999
  12  H       1.00    0.000000000    6.501441160    3.727098710
  13  H       1.00   -2.279171335    2.556385294    3.774669296
  14  H       1.00    2.279171335    2.556385294    3.774669296
  15  H       1.00    0.000000000   -6.501441160    3.727098710
  16  H       1.00    2.279171335   -2.556385294    3.774669296
  17  H       1.00   -2.279171335   -2.556385294    3.774669296

 Bond lengths in Bohr (Angstrom)

 1-2  4.467006531  1-5  4.433261855  1-6  2.813908417  1-7  2.813908417  2-3  4.467006531
     ( 2.363838057)     ( 2.345981143)     ( 1.489056208)     ( 1.489056208)     ( 2.363838057)

  2- 8  2.813222068   2- 9  2.813222068   3- 4  4.433261855   3-10  2.813908417   3-11  2.813908417
       ( 1.488693008)       ( 1.488693008)       ( 2.345981143)       ( 1.489056208)       ( 1.489056208)

  4-12  2.808408636   4-13  2.804781547   4-14  2.804781547   5-15  2.808408636   5-16  2.804781547
       ( 1.486145849)       ( 1.484226476)       ( 1.484226476)       ( 1.486145849)       ( 1.484226476)

  5-17  2.804781547
       ( 1.484226476)

 Bond angles

  1- 2- 3  121.39834924   1- 2- 8  106.92209593   1- 2- 9  106.92209593   1- 5-15  109.12591571

  1- 5-16  110.94486070   1- 5-17  110.94486070   2- 1- 5  118.79405453   2- 1- 6  107.52512709

  2- 1- 7  107.52512709   2- 3- 4  118.79405453   2- 3-10  107.52512709   2- 3-11  107.52512709

  3- 2- 8  106.92209593   3- 2- 9  106.92209593   3- 4-12  109.12591571   3- 4-13  110.94486070

  3- 4-14  110.94486070   4- 3-10  107.67237964   4- 3-11  107.67237964   5- 1- 6  107.67237964

  5- 1- 7  107.67237964   6- 1- 7  107.13049617   8- 2- 9  107.00936217  10- 3-11  107.13049617

 12- 4-13  108.52911808  12- 4-14  108.52911808  13- 4-14  108.70189379  15- 5-16  108.52911808

 15- 5-17  108.52911808  16- 5-17  108.70189379

 NUCLEAR CHARGE:                   82
 NUMBER OF PRIMITIVE AOS:         524
 NUMBER OF SYMMETRY AOS:          487
 NUMBER OF CONTRACTIONS:          338   (  338A   )
 NUMBER OF INNER CORE ORBITALS:     5   (    5A   )
 NUMBER OF OUTER CORE ORBITALS:    20   (   20A   )
 NUMBER OF VALENCE ORBITALS:       32   (   32A   )


 NUCLEAR REPULSION ENERGY  478.56234912


 Eigenvalues of metric

         1 0.694E-03 0.911E-03 0.114E-02 0.119E-02 0.147E-02 0.161E-02 0.172E-02 0.195E-02


 Contracted 2-electron integrals neglected if value below      1.0D-11
 AO integral compression algorithm  1   Integral accuracy      1.0D-11

     3279.421 MB (compressed) written to integral file ( 27.1%)


 NUMBER OF SORTED TWO-ELECTRON INTEGRALS: 1641157986.     BUFFER LENGTH:  32768
 NUMBER OF SEGMENTS:  52  SEGMENT LENGTH:   31998710      RECORD LENGTH: 524288

 Memory used in sort:      32.56 MW

 SORT1 READ  1514912525. AND WROTE   936063989. INTEGRALS IN   2702 RECORDS. CPU TIME:    11.51 SEC, REAL TIME:    15.64 SEC
 SORT2 READ   936063989. AND WROTE  1641157986. INTEGRALS IN  12510 RECORDS. CPU TIME:     9.00 SEC, REAL TIME:    14.89 SEC

 FILE SIZES:   FILE 1:  3313.9 MBYTE,  FILE 4: 11333.1 MBYTE,   TOTAL:  14647.0 MBYTE

 OPERATOR DM      FOR CENTER  0  COORDINATES:    0.000000    0.000000    0.000000


 **********************************************************************************************************************************
 DATASETS  * FILE   NREC   LENGTH (MB)   RECORD NAMES
              1      19     2818.83       500      610      700      900      950      970     1000      129      960     1100   
                                          VAR    BASINP    GEOM    SYMINP    ZMAT    AOBASIS   BASIS     P2S    ABASIS      S 
                                         1400     1410     1200     1210     1080     1600     1650     1300     1700   
                                           T        V       H0       H01     AOSYM     SMH    MOLCAS    ERIS     OPER   

 PROGRAMS   *        TOTAL       INT
 CPU TIMES  *        54.50     54.40
 REAL TIME  *        69.32 SEC
 DISK USED  *        13.64 GB
 **********************************************************************************************************************************


 Program * Restricted Hartree-Fock

 Orbital guess generated from atomic densities. Full valence occupancy:   57

 Initial occupancy:  41

 NELEC=   82   SYM=1   MS2= 0   THRE=1.0D-08   THRD=3.2D-06   THRG=3.2D-06  HFMA2=F  DIIS_START=2   DIIS_MAX=10   DIIS_INCORE=F

 Level shifts:    0.00 (CLOSED)    0.00 (OPEN)    0.30 (GAP_MIN)

 ITER           ETOT              DE          GRAD        DDIFF     DIIS  NEXP   TIME(IT)  TIME(TOT)  DIAG
   1    -1451.62715110   -1451.62715110     0.00D+00     0.51D-01     0     0       8.65     16.61    start
   2    -1451.68854689      -0.06139579     0.13D-02     0.24D-02     1     0       8.58     25.19    diag
   3    -1451.69709402      -0.00854713     0.45D-03     0.86D-03     2     0       8.64     33.83    diag
   4    -1451.69743737      -0.00034335     0.10D-03     0.20D-03     3     0       8.65     42.48    diag
   5    -1451.69746360      -0.00002623     0.26D-04     0.77D-04     4     0       8.60     51.08    diag
   6    -1451.69746468      -0.00000108     0.47D-05     0.22D-04     5     0       7.90     58.98    diag
   7    -1451.69746471      -0.00000004     0.92D-06     0.40D-05     6     0       7.91     66.89    diag
   8    -1451.69746471      -0.00000000     0.22D-06     0.80D-06     7     0       7.87     74.76    fixocc
   9    -1451.69746471      -0.00000000     0.58D-07     0.15D-06     0     0       7.84     82.60    diag

 Final occupancy:  41

 !RHF STATE 1.1 Energy              -1451.697464714303
  RHF One-electron energy           -2967.385842924473
  RHF Two-electron energy            1037.126029086996
  RHF Kinetic energy                 1451.793793917888
  RHF Nuclear energy                  478.562349123174
  RHF Virial quotient                  -0.999933648150

 !RHF STATE 1.1 Dipole moment           0.00000000    -0.00000000     0.06534345
 Dipole moment /Debye                   0.00000000    -0.00000000     0.16608648

 Orbital energies:

           1.1          2.1          3.1          4.1          5.1          6.1          7.1          8.1          9.1         10.1
    -68.776238   -68.776063   -68.776063   -68.774428   -68.774428    -6.125914    -6.125872    -6.125871    -6.124484    -6.124476

          11.1         12.1         13.1         14.1         15.1         16.1         17.1         18.1         19.1         20.1
     -4.231839    -4.231823    -4.231736    -4.231732    -4.231714    -4.231714    -4.231712    -4.231697    -4.231671    -4.230278

          21.1         22.1         23.1         24.1         25.1         26.1         27.1         28.1         29.1         30.1
     -4.230276    -4.230182    -4.230179    -4.230131    -4.230066    -0.780091    -0.750950    -0.719269    -0.669208    -0.632707

          31.1         32.1         33.1         34.1         35.1         36.1         37.1         38.1         39.1         40.1
     -0.515863    -0.501203    -0.496861    -0.494686    -0.480460    -0.467744    -0.459776    -0.450053    -0.408531    -0.385741

          41.1         42.1         43.1
     -0.383144     0.089563     0.096133


 HOMO     41.1    -0.383144 =     -10.4259eV
 LUMO     42.1     0.089563 =       2.4371eV
 LUMO-HOMO         0.472708 =      12.8630eV

 Orbitals saved in record  2100.2


 **********************************************************************************************************************************
 DATASETS  * FILE   NREC   LENGTH (MB)   RECORD NAMES
              1      19     2818.83       500      610      700      900      950      970     1000      129      960     1100   
                                          VAR    BASINP    GEOM    SYMINP    ZMAT    AOBASIS   BASIS     P2S    ABASIS      S 
                                         1400     1410     1200     1210     1080     1600     1650     1300     1700   
                                           T        V       H0       H01     AOSYM     SMH    MOLCAS    ERIS     OPER   

              2       4        2.44       700     1000      520     2100   
                                         GEOM     BASIS   MCVARS     RHF  

 PROGRAMS   *        TOTAL    HF-SCF       INT
 CPU TIMES  *       137.10     82.60     54.40
 REAL TIME  *       160.33 SEC
 DISK USED  *        13.64 GB
 **********************************************************************************************************************************


 PROGRAM * MP4 (Closed-shell)     Authors: C. Hampel, H.-J. Werner, 1991, M. Deegan, P.J. Knowles, 1992


 Convergence thresholds:  THRVAR = 1.00D-08  THRDEN = 1.00D-06

 MP4(T)     terms to be evaluated (factor= 0.000)


 Number of core orbitals:          25 (  25 )
 Number of closed-shell orbitals:  16 (  16 )
 Number of external orbitals:     297 ( 297 )

 Molecular orbitals read from record     2100.2  Type=RHF/CANONICAL  

 Number of N-1 electron functions:              16
 Number of N-2 electron functions:             136
 Number of singly external CSFs:              4752
 Number of doubly external CSFs:          11293128
 Total number of CSFs:                    11297881

 Length of J-op  integral file:               0.00 MB
 Length of K-op  integral file:               7.91 MB

 For full I/O caching in triples, increase memory by 119.38 Mwords to 512.64 Mwords.

 Integral transformation finished. Total CPU:  54.68 sec, npass=  1  Memory used: 357.10 MW

 Reference energy:                  -1451.69746471

                        CORR.ENERGY   TOTAL ENERGY   ENERGY CHANGE
 MP2:                   -0.63689935 -1452.33436406    -0.63689935

 SCS-MP2 correlation energy:           -0.68006284   (PS=  1.200000  PT=  0.333333)
 SCS-MP2 total energy:              -1452.37752756

 MP3(D):                -0.73255864 -1452.43002336    -0.09565930
 MP4(DQ):               -0.74087617 -1452.43834089    -0.00831753
 MP4(SDQ):              -0.74462704 -1452.44209175    -0.00375086

 Norm of t1 vector:      0.06802486      S-energy:    -0.00375086      T1 diagnostic:  0.00850311


 Total CPU time for triples:   2032.72 sec


 RESULTS
 =======

  Reference energy                  -1451.697464714311
  MP4(SDQ) singlet pair energy         -0.586194989768
  MP4(SDQ) triplet pair energy         -0.154681182998
  MP4(SDQ) correlation energy          -0.744627037395

  Triples contribution                 -0.021568801509
  Total correlation energy             -0.766195838904

  MP4(SDQ) total energy             -1452.442091751706
 !MP4(SDTQ) total energy            -1452.463660553215

 Timing summary (sec):

 STEP                 CPU(USER)    SYS     CPU(TOT)    WALL
 Transformation         56.10      6.92     63.02     62.44
 CCSD iterations       240.31      4.37    244.68    101.25
 Triples              2032.72     72.35   2105.07   1835.58

 Program statistics:

 Available memory in ccsd:               393214935
 Min. memory needed in ccsd:              27758494
 Max. memory used in ccsd:                37931766
 Max. memory used in cckext:              32146366 ( 1 integral passes)



 **********************************************************************************************************************************
 DATASETS  * FILE   NREC   LENGTH (MB)   RECORD NAMES
              1      20     4602.95       500      610      700      900      950      970     1000      129      960     1100   
                                          VAR    BASINP    GEOM    SYMINP    ZMAT    AOBASIS   BASIS     P2S    ABASIS      S 
                                         1400     1410     1200     1210     1080     1600     1650     1300     1700     1380   
                                           T        V       H0       H01     AOSYM     SMH    MOLCAS    ERIS     OPER     JKOP   

              2       4        2.44       700     1000      520     2100   
                                         GEOM     BASIS   MCVARS     RHF  

 PROGRAMS   *        TOTAL       MP4    HF-SCF       INT
 CPU TIMES  *      2329.03   2191.93     82.60     54.40
 REAL TIME  *      2159.73 SEC
 DISK USED  *        13.64 GB
 **********************************************************************************************************************************

 Dump information in style XML to xml output                                                                      

 Orbitals will not be exported.

 **********************************************************************************************************************************

 MP4/cc-pVTZ energy=  -1452.463660553215

             MP4          HF-SCF
  -1452.46366055  -1451.69746471
 **********************************************************************************************************************************
 Molpro calculation terminated
