
 Working directory              : /tmp/peterk/molpro.eNgv94cCOA/
 Global scratch directory       : /tmp/peterk/molpro.eNgv94cCOA/
 Wavefunction directory         : /home/peterk/wfu/
 Main file repository           : /tmp/peterk/molpro.eNgv94cCOA/

 id        : peterk

 Nodes     nprocs
 marat        1
 GA implementation: MPI file
 GA implementation (serial work in mppx): MPI file

 Using customized tuning parameters: mindgm=1; mindgv=20; mindgc=4; mindgr=1; noblas=0; minvec=7
 default implementation of scratch files=df  


 Variables initialized (1032), CPU time= 0.00 sec
 
 symmetry,nosym
 
 
 geometry={
            6
     F          0.00000000      0.00000000     -1.88993626
     C          0.00000000      0.00000000     -0.48156276
     H         -0.51236000      0.88743354     -0.12780248
     H         -0.51236000     -0.88743354     -0.12780248
     H          1.02471999      0.00000000     -0.12780248
     CL         0.00000000      0.00000000      2.75490646
 }
 basis=cc-pVQZ
 
 charge=-1
 
 hf; ccsd(t)
 
 
 
 {put,xml;noorbitals,nobasis}
 Commands initialized (841), CPU time= 0.02 sec, 708 directives.
 Default parameters read. Elapsed time= 1.23 sec

 Checking input...
 Passed
1


                                         ***  PROGRAM SYSTEM MOLPRO  ***
                                       Copyright, TTI GmbH Stuttgart, 2015
                                    Version 2023.1 linked Sat Jun 10 08:01:27 2023


 **********************************************************************************************************************************
 LABEL *                                                                                                                                                                 
  (16 PROC) 64 bit serial version                                                        DATE: 11-Jun-23          TIME: 20:55:50  
 **********************************************************************************************************************************

 SHA1:             8376d659ba1296ca7ee514c57770fe2c96af278c
 **********************************************************************************************************************************

 Memory per process:      1074 MW
 Total memory per node:   1074 MW

 GA preallocation disabled
 GA check disabled

 Variable memory set to 1073.7 MW

 ZSYMEL=NOSYM


 Geometry recognized as XYZ

 SETTING BASIS          =    CC-PVQZ
 SETTING CHARGE         =        -1.00000000                                  


 Recomputing integrals since basis changed


 Using spherical harmonics

 Library entry F      S cc-pVQZ              selected for orbital group  1
 Library entry F      P cc-pVQZ              selected for orbital group  1
 Library entry F      D cc-pVQZ              selected for orbital group  1
 Library entry F      F cc-pVQZ              selected for orbital group  1
 Library entry F      G cc-pVQZ              selected for orbital group  1
 Library entry C      S cc-pVQZ              selected for orbital group  2
 Library entry C      P cc-pVQZ              selected for orbital group  2
 Library entry C      D cc-pVQZ              selected for orbital group  2
 Library entry C      F cc-pVQZ              selected for orbital group  2
 Library entry C      G cc-pVQZ              selected for orbital group  2
 Library entry H      S cc-pVQZ              selected for orbital group  3
 Library entry H      P cc-pVQZ              selected for orbital group  3
 Library entry H      D cc-pVQZ              selected for orbital group  3
 Library entry H      F cc-pVQZ              selected for orbital group  3
 Library entry CL     S cc-pVQZ              selected for orbital group  4
 Library entry CL     P cc-pVQZ              selected for orbital group  4
 Library entry CL     D cc-pVQZ              selected for orbital group  4
 Library entry CL     F cc-pVQZ              selected for orbital group  4
 Library entry CL     G cc-pVQZ              selected for orbital group  4


 PROGRAM * SEWARD (Integral evaluation for generally contracted gaussian basis sets)     Author: Roland Lindh, 1990

 Geometry written to block  1 of record 700


 Point group  C1  



 ATOMIC COORDINATES

 NR  ATOM    CHARGE       X              Y              Z

   1  F       9.00    0.000000000    0.000000000   -3.571461924
   2  C       6.00    0.000000000    0.000000000   -0.910021728
   3  H       1.00   -0.968220077    1.677006344   -0.241511685
   4  H       1.00   -0.968220077   -1.677006344   -0.241511685
   5  H       1.00    1.936440136    0.000000000   -0.241511685
   6  CL     17.00    0.000000000    0.000000000    5.206018708

 Bond lengths in Bohr (Angstrom)

 1-2  2.661440196  2-3  2.048586360  2-4  2.048586360  2-5  2.048586360
     ( 1.408373500)     ( 1.084065216)     ( 1.084065216)     ( 1.084065216)

 Bond angles

  1-2-3  109.04601992   1-2-4  109.04601992   1-2-5  109.04601992   3-2-4  109.89305339

  3-2-5  109.89305420   4-2-5  109.89305420

 NUCLEAR CHARGE:                   35
 NUMBER OF PRIMITIVE AOS:         379
 NUMBER OF SYMMETRY AOS:          319
 NUMBER OF CONTRACTIONS:          259   (  259A   )
 NUMBER OF INNER CORE ORBITALS:     1   (    1A   )
 NUMBER OF OUTER CORE ORBITALS:     6   (    6A   )
 NUMBER OF VALENCE ORBITALS:       15   (   15A   )


 NUCLEAR REPULSION ENERGY   79.90971378


 Eigenvalues of metric

         1 0.129E-03 0.232E-03 0.280E-03 0.280E-03 0.398E-03 0.416E-03 0.416E-03 0.432E-03


 Contracted 2-electron integrals neglected if value below      1.0D-11
 AO integral compression algorithm  1   Integral accuracy      1.0D-11

     1435.501 MB (compressed) written to integral file ( 28.4%)


 NUMBER OF SORTED TWO-ELECTRON INTEGRALS:  566851285.     BUFFER LENGTH:  32768
 NUMBER OF SEGMENTS:  36  SEGMENT LENGTH:   15999762      RECORD LENGTH: 262144

 Memory used in sort:      16.29 MW

 SORT1 READ   632171288. AND WROTE   352582843. INTEGRALS IN   2037 RECORDS. CPU TIME:     4.24 SEC, REAL TIME:     7.10 SEC
 SORT2 READ   352582843. AND WROTE   566851285. INTEGRALS IN   5476 RECORDS. CPU TIME:     3.97 SEC, REAL TIME:     5.30 SEC

 FILE SIZES:   FILE 1:  1468.1 MBYTE,  FILE 4:  4272.0 MBYTE,   TOTAL:   5740.0 MBYTE

 OPERATOR DM      FOR CENTER  0  COORDINATES:    0.000000    0.000000    0.000000


 **********************************************************************************************************************************
 DATASETS  * FILE   NREC   LENGTH (MB)   RECORD NAMES
              1      19     1217.84       500      610      700      900      950      970     1000      129      960     1100   
                                          VAR    BASINP    GEOM    SYMINP    ZMAT    AOBASIS   BASIS     P2S    ABASIS      S 
                                         1400     1410     1200     1210     1080     1600     1650     1300     1700   
                                           T        V       H0       H01     AOSYM     SMH    MOLCAS    ERIS     OPER   

 PROGRAMS   *        TOTAL       INT
 CPU TIMES  *        24.49     24.24
 REAL TIME  *        32.88 SEC
 DISK USED  *         5.35 GB
 **********************************************************************************************************************************


 Program * Restricted Hartree-Fock

 Orbital guess generated from atomic densities. Full valence occupancy:   22

 Initial occupancy:  18

 NELEC=   36   SYM=1   MS2= 0   THRE=1.0D-08   THRD=3.2D-06   THRG=3.2D-06  HFMA2=F  DIIS_START=2   DIIS_MAX=10   DIIS_INCORE=F

 Level shifts:    0.00 (CLOSED)    0.00 (OPEN)    0.30 (GAP_MIN)

 ITER           ETOT              DE          GRAD        DDIFF     DIIS  NEXP   TIME(IT)  TIME(TOT)  DIAG
   1     -598.62598318    -598.62598318     0.00D+00     0.46D-01     0     0       3.18      6.13    start
   2     -598.68159189      -0.05560871     0.36D-02     0.68D-02     1     0       3.15      9.28    diag
   3     -598.69095257      -0.00936069     0.19D-02     0.23D-02     2     0       3.05     12.33    diag
   4     -598.69132804      -0.00037546     0.29D-03     0.35D-03     3     0       3.10     15.43    diag
   5     -598.69138148      -0.00005344     0.12D-03     0.15D-03     4     0       3.10     18.53    diag
   6     -598.69138502      -0.00000354     0.23D-04     0.35D-04     5     0       3.08     21.61    diag
   7     -598.69138515      -0.00000013     0.38D-05     0.86D-05     6     0       3.12     24.73    diag
   8     -598.69138515      -0.00000000     0.66D-06     0.12D-05     7     0       3.20     27.93    fixocc
   9     -598.69138515      -0.00000000     0.23D-06     0.29D-06     0     0       3.15     31.08    diag

 Final occupancy:  18

 !RHF STATE 1.1 Energy               -598.691385149807
  RHF One-electron energy            -995.286902905162
  RHF Two-electron energy             316.685803980302
  RHF Kinetic energy                  598.672401684721
  RHF Nuclear energy                   79.909713775053
  RHF Virial quotient                  -1.000031709270

 !RHF STATE 1.1 Dipole moment          -0.00000000     0.00000000    -3.91424998
 Dipole moment /Debye                  -0.00000000     0.00000000    -9.94903109

 Orbital energies:

           1.1          2.1          3.1          4.1          5.1          6.1          7.1          8.1          9.1         10.1
   -104.509225   -26.129866   -11.144655   -10.234264    -7.700670    -7.700647    -7.700647    -1.436556    -0.799653    -0.743006

          11.1         12.1         13.1         14.1         15.1         16.1         17.1         18.1         19.1         20.1
     -0.544969    -0.544969    -0.521760    -0.381295    -0.381295    -0.162504    -0.160844    -0.160844     0.262240     0.340323


 HOMO     18.1    -0.160844 =      -4.3768eV
 LUMO     19.1     0.262240 =       7.1359eV
 LUMO-HOMO         0.423084 =      11.5127eV

 Orbitals saved in record  2100.2


 **********************************************************************************************************************************
 DATASETS  * FILE   NREC   LENGTH (MB)   RECORD NAMES
              1      19     1217.84       500      610      700      900      950      970     1000      129      960     1100   
                                          VAR    BASINP    GEOM    SYMINP    ZMAT    AOBASIS   BASIS     P2S    ABASIS      S 
                                         1400     1410     1200     1210     1080     1600     1650     1300     1700   
                                           T        V       H0       H01     AOSYM     SMH    MOLCAS    ERIS     OPER   

              2       4        1.53       700     1000      520     2100   
                                         GEOM     BASIS   MCVARS     RHF  

 PROGRAMS   *        TOTAL    HF-SCF       INT
 CPU TIMES  *        55.57     31.08     24.24
 REAL TIME  *        65.84 SEC
 DISK USED  *         5.35 GB
 **********************************************************************************************************************************


 PROGRAM * CCSD (Closed-shell coupled cluster)     Authors: C. Hampel, H.-J. Werner, 1991, M. Deegan, P.J. Knowles, 1992


 Convergence thresholds:  THRVAR = 1.00D-08  THRDEN = 1.00D-06

 CCSD(T)     terms to be evaluated (factor= 1.000)


 Number of core orbitals:           7 (   7 )
 Number of closed-shell orbitals:  11 (  11 )
 Number of external orbitals:     241 ( 241 )

 Molecular orbitals read from record     2100.2  Type=RHF/CANONICAL  

 Number of N-1 electron functions:              11
 Number of N-2 electron functions:              66
 Number of singly external CSFs:              2651
 Number of doubly external CSFs:           3515226
 Total number of CSFs:                     3517878

 Length of J-op  integral file:               0.00 MB
 Length of K-op  integral file:               4.67 MB
 Length of 3-ext integral record:             0.00 MB

 Memory could be reduced to 198.35 Mwords without degradation in triples

 Integral transformation finished. Total CPU:  15.70 sec, npass=  1  Memory used: 113.49 MW

 Reference energy:                   -598.69138515

 MP2 singlet pair energy:              -0.45290202
 MP2 triplet pair energy:              -0.24173748
 MP2 correlation energy:               -0.69463950
 MP2 total energy:                   -599.38602465

 SCS-MP2 correlation energy:           -0.69389686   (PS=  1.200000  PT=  0.333333)
 SCS-MP2 total energy:               -599.38528201

 ITER.      SQ.NORM     CORR.ENERGY   TOTAL ENERGY   ENERGY CHANGE        DEN1      VAR(S)    VAR(P)  DIIS     TIME  TIME/IT
   1      1.19485037    -0.72041633  -599.41180148    -0.02577683    -0.01058599  0.19D-02  0.25D-02  1  1    92.75    21.27
   2      1.20546799    -0.72152378  -599.41290893    -0.00110745    -0.01337633  0.23D-04  0.30D-03  2  2   112.34    22.35
   3      1.20882177    -0.72156440  -599.41294955    -0.00004062    -0.00236116  0.19D-04  0.13D-04  3  3   132.66    22.76
   4      1.20964611    -0.72149741  -599.41288256     0.00006698    -0.00046093  0.89D-06  0.16D-05  4  4   153.01    22.38
   5      1.20986302    -0.72150329  -599.41288844    -0.00000588    -0.00006312  0.21D-06  0.10D-06  5  5   173.38    22.34
   6      1.20990732    -0.72150096  -599.41288611     0.00000233    -0.00000921  0.32D-07  0.13D-07  6  6   193.68    22.53
   7      1.20991898    -0.72149940  -599.41288455     0.00000156    -0.00000285  0.63D-08  0.20D-08  6  2   213.64    22.24
   8      1.20992216    -0.72149935  -599.41288450     0.00000004    -0.00000013  0.10D-08  0.30D-09  6  4   233.88    22.04
   9      1.20992301    -0.72149921  -599.41288436     0.00000014    -0.00000002  0.12D-09  0.45D-10  6  1   254.58    21.94

 Norm of t1 vector:      0.05412265      S-energy:     0.00000009      T1 diagnostic:  0.00815930
                                                                       D1 diagnostic:  0.02296921
                                                                       D2 diagnostic:  0.14413088 (internal)


 Total CPU time for triples:    392.25 sec


 RESULTS
 =======

  Reference energy                   -598.691385149806
  CCSD singlet pair energy             -0.498149736334
  CCSD triplet pair energy             -0.223349565687
  CCSD correlation energy              -0.721499212430

  Triples (T) contribution             -0.025761645585
  Total correlation energy             -0.747260858015

  CCSD total energy                  -599.412884362236
  CCSD[T] energy                     -599.439390589465
  CCSD-T energy                      -599.438324322520
 !CCSD(T) total energy               -599.438646007822

 Timing summary (sec):

 STEP                 CPU(USER)    SYS     CPU(TOT)    WALL
 Transformation         15.92      1.36     17.28     17.35
 CCSD iterations       238.91      4.18    243.09    197.87
 Triples               392.25      8.38    400.63    400.82

 Program statistics:

 Available memory in ccsd:              1073741322
 Min. memory needed in ccsd:               9362003
 Max. memory used in ccsd:                12460109
 Max. memory used in cckext:               9428648 ( 9 integral passes)



 **********************************************************************************************************************************
 DATASETS  * FILE   NREC   LENGTH (MB)   RECORD NAMES
              1      20     1859.40       500      610      700      900      950      970     1000      129      960     1100   
                                          VAR    BASINP    GEOM    SYMINP    ZMAT    AOBASIS   BASIS     P2S    ABASIS      S 
                                         1400     1410     1200     1210     1080     1600     1650     1300     1700     1380   
                                           T        V       H0       H01     AOSYM     SMH    MOLCAS    ERIS     OPER     JKOP   

              2       4        1.53       700     1000      520     2100   
                                         GEOM     BASIS   MCVARS     RHF  

 PROGRAMS   *        TOTAL   CCSD(T)    HF-SCF       INT
 CPU TIMES  *       646.71    591.14     31.08     24.24
 REAL TIME  *       681.99 SEC
 DISK USED  *         5.35 GB
 **********************************************************************************************************************************

 Dump information in style XML to xml output                                                                      

 Orbitals will not be exported.

 **********************************************************************************************************************************

 CCSD(T)/cc-pVQZ energy=   -599.438646007822

         CCSD(T)          HF-SCF
   -599.43864601   -598.69138515
 **********************************************************************************************************************************
 Molpro calculation terminated
