
 Working directory              : /var/folders/2v/xbgp75_9785319ghcgb4zr4r0000gp/T//molpro.kw7DrMYGmZ/
 Global scratch directory       : /var/folders/2v/xbgp75_9785319ghcgb4zr4r0000gp/T//molpro.kw7DrMYGmZ/
 Wavefunction directory         : /Users/sacpjk/wfu/
 Main file repository           : /var/folders/2v/xbgp75_9785319ghcgb4zr4r0000gp/T//molpro.kw7DrMYGmZ/

 id        : peterk

 Nodes                        nprocs
 Cardiff-University-G34YLXT77Y    1
 GA implementation: MPI file
 GA implementation (serial work in mppx): MPI file

 Using customized tuning parameters: mindgm=1; mindgv=20; mindgc=4; mindgr=1; noblas=0; minvec=7
 default implementation of scratch files=df  


 Variables initialized (1032), CPU time= 0.00 sec
 
 symmetry,nosym
 
 
 geometry={
            3
     H          0.00000000      0.00000000      1.13721778
     F          0.00000000      0.00000000      0.00000000
     H          0.00000000      0.00000000     -1.13721778
 }
 basis=cc-pVDZ
 
 
 spin=1
 uhf
 
 
 
 {put,xml;noorbitals,nobasis}
 Commands initialized (841), CPU time= 0.00 sec, 704 directives.
 Default parameters read. Elapsed time= 0.18 sec

 Checking input...
 Passed
1


                                         ***  PROGRAM SYSTEM MOLPRO  ***
                                       Copyright, TTI GmbH Stuttgart, 2015
                                    Version 2023.1 linked Tue Jun  6 09:54:11 2023


 **********************************************************************************************************************************
 LABEL *                                                                                                                                                                 
  64 bit serial version                                                                  DATE: 09-Jun-23          TIME: 09:26:42  
 **********************************************************************************************************************************

 SHA1:             8ebb0dd001088a5c915591db1a321413035db0b1
 **********************************************************************************************************************************

 Memory per process:       805 MW
 Total memory per node:   1074 MW
 Total GA space:           268 MW

 GA preallocation disabled
 GA check enabled

 Variable memory set to 805.3 MW

 ZSYMEL=NOSYM


 Geometry recognized as XYZ

 SETTING BASIS          =    CC-PVDZ
 SETTING SPIN           =         1.00000000                                  


 Recomputing integrals since basis changed


 Using spherical harmonics

 Library entry H      S cc-pVDZ              selected for orbital group  1
 Library entry H      P cc-pVDZ              selected for orbital group  1
 Library entry F      S cc-pVDZ              selected for orbital group  2
 Library entry F      P cc-pVDZ              selected for orbital group  2
 Library entry F      D cc-pVDZ              selected for orbital group  2


 PROGRAM * SEWARD (Integral evaluation for generally contracted gaussian basis sets)     Author: Roland Lindh, 1990

 Geometry written to block  1 of record 700


 Point group  C1  



 ATOMIC COORDINATES

 NR  ATOM    CHARGE       X              Y              Z

   1  H       1.00    0.000000000    0.000000000    2.149030148
   2  F       9.00    0.000000000    0.000000000    0.000000000
   3  H       1.00    0.000000000    0.000000000   -2.149030148

 Bond lengths in Bohr (Angstrom)

 1-2  2.149030148  2-3  2.149030148
     ( 1.137217780)     ( 1.137217780)

 Bond angles

  1-2-3  179.99999879

 NUCLEAR CHARGE:                   11
 NUMBER OF PRIMITIVE AOS:          41
 NUMBER OF SYMMETRY AOS:           40
 NUMBER OF CONTRACTIONS:           24   (   24A   )
 NUMBER OF INNER CORE ORBITALS:     0   (    0A   )
 NUMBER OF OUTER CORE ORBITALS:     1   (    1A   )
 NUMBER OF VALENCE ORBITALS:        6   (    6A   )


 NUCLEAR REPULSION ENERGY    8.60853442

 EXTRA SYMMETRY OF AOS IN SYMMETRY 1:   1 1 2 3 1 1 1 1 2 3   1 2 3 1 1 4 2 5 3 1   1 2 3 1

 Eigenvalues of metric

         1 0.289E-01 0.364E-01 0.959E-01 0.122E+00 0.188E+00 0.188E+00 0.312E+00 0.358E+00


 Contracted 2-electron integrals neglected if value below      1.0D-11
 AO integral compression algorithm  1   Integral accuracy      1.0D-11

     0.262 MB (compressed) written to integral file ( 47.0%)


 NUMBER OF SORTED TWO-ELECTRON INTEGRALS:      45150.     BUFFER LENGTH:  32768
 NUMBER OF SEGMENTS:   1  SEGMENT LENGTH:      45150      RECORD LENGTH: 524288

 Memory used in sort:       0.60 MW

 SORT1 READ       62044. AND WROTE       11438. INTEGRALS IN      1 RECORDS. CPU TIME:     0.00 SEC, REAL TIME:     0.01 SEC
 SORT2 READ       11438. AND WROTE       45150. INTEGRALS IN      1 RECORDS. CPU TIME:     0.00 SEC, REAL TIME:     0.01 SEC

 FILE SIZES:   FILE 1:    30.3 MBYTE,  FILE 4:     4.3 MBYTE,   TOTAL:     34.5 MBYTE

 OPERATOR DM      FOR CENTER  0  COORDINATES:    0.000000    0.000000    0.000000


 **********************************************************************************************************************************
 DATASETS  * FILE   NREC   LENGTH (MB)   RECORD NAMES
              1      19       28.72       500      610      700      900      950      970     1000      129      960     1100   
                                          VAR    BASINP    GEOM    SYMINP    ZMAT    AOBASIS   BASIS     P2S    ABASIS      S 
                                         1400     1410     1200     1210     1080     1600     1650     1300     1700   
                                           T        V       H0       H01     AOSYM     SMH    MOLCAS    ERIS     OPER   

 PROGRAMS   *        TOTAL       INT
 CPU TIMES  *         0.17      0.09
 REAL TIME  *         0.79 SEC
 DISK USED  *        33.30 MB
 **********************************************************************************************************************************


 Program * Unrestricted Hartree-Fock

 Orbital guess generated from atomic densities. Full valence occupancy:    7

 Initial alpha occupancy:   6
 Initial beta  occupancy:   5

 Elapsed time for starting guess:      0.00 sec

 NELEC=   11   SYM=1   MS2=1   THRE=1.0D-08   THRD=3.2D-06   THRG=3.2D-06  HFMA2=F  DIIS_START=2   DIIS_MAX=10   DIIS_INCORE=F

 Initial level shifts:    0.20 (ALPHA)    0.20 (BETA)

 ITER         ETOT            DE          GRAD         DDIFF    DIIS  NEXP   TIME(IT)  TIME(TOT)  DIAG
   1   -100.39642338  -100.39642338     0.00D+00     0.00D+00     0     0       0.00      0.00    start
   2   -100.41290216    -0.01647877     0.13D-01     0.25D+00     1     0       0.00      0.00    diag
   3   -100.41737856    -0.00447640     0.64D-02     0.20D-01     2     0       0.00      0.00    diag
   4   -100.42031605    -0.00293750     0.37D-02     0.83D-02     3     0       0.01      0.01    diag
   5   -100.42164707    -0.00133102     0.19D-02     0.66D-02     4     0       0.00      0.01    diag
   6   -100.42179884    -0.00015177     0.60D-03     0.51D-02     5     0       0.00      0.01    diag
   7   -100.42181281    -0.00001397     0.19D-03     0.16D-02     6     0       0.00      0.01    diag
   8   -100.42181338    -0.00000057     0.44D-04     0.54D-03     7     0       0.00      0.01    diag
   9   -100.42181342    -0.00000003     0.11D-04     0.12D-03     6     0       0.00      0.01    diag
  10   -100.42181342    -0.00000000     0.30D-05     0.33D-04     5     0       0.00      0.01    diag/ort
  11   -100.42181342    -0.00000000     0.73D-06     0.80D-05     5     0       0.00      0.01    diag

 Final alpha occupancy:   6
 Final beta  occupancy:   5

 !UHF STATE 1.1 Energy               -100.421813419641
  UHF One-electron energy            -157.537347573086
  UHF Two-electron energy              48.506999733851
  UHF Kinetic energy                  100.533385845240
  UHF Nuclear energy                    8.608534419595
  UHF Virial quotient                  -0.998890195285

 !UHF STATE 1.1 Dipole moment           0.00000000     0.00000000    -0.00000000
 Dipole moment /Debye                   0.00000000     0.00000000    -0.00000000

 EXPECTATION VALUE OF S**2:             0.80022227

 Orbital energies for positive spin:

           1.1          2.1          3.1          4.1          5.1          6.1          7.1          8.1
    -26.342393    -1.615233    -0.795724    -0.682176    -0.682176    -0.288160     0.136175     0.514110

 Orbital energies for negative spin:

           1.1          2.1          3.1          4.1          5.1          6.1          7.1
    -26.343096    -1.614216    -0.805047    -0.677553    -0.677553     0.119898     0.210583


 HOMO      6.1    -0.288160 =      -7.8412eV
 LUMO     -6.1     0.119898 =       3.2626eV
 LUMO-HOMO         0.408059 =      11.1038eV

 Orbitals saved in record  2200.2

 Occupation number threshold for pseudo-canonical orbitals: 1.9990 (occupied), 0.0010 (virtual)

 Number of pseudo-canonical occupied orbitals per symmetry:    4
 Number of active natural orbitals per symmetry:               3

 Natural orbitals saved to record    2200.2 (Orbital set 3)

 Orbital spaces for UNO-CAS (Min. occupation: 0.020  Max. occupation: 1.980):

 Closed:        4
 Active:        3


 **********************************************************************************************************************************
 DATASETS  * FILE   NREC   LENGTH (MB)   RECORD NAMES
              1      19       28.72       500      610      700      900      950      970     1000      129      960     1100   
                                          VAR    BASINP    GEOM    SYMINP    ZMAT    AOBASIS   BASIS     P2S    ABASIS      S 
                                         1400     1410     1200     1210     1080     1600     1650     1300     1700   
                                           T        V       H0       H01     AOSYM     SMH    MOLCAS    ERIS     OPER   

              2       4        0.44       700     1000      520     2200   
                                         GEOM     BASIS   MCVARS     UHF  

              4       3        0.16      2900     3000     3100   

 PROGRAMS   *        TOTAL   UHF-SCF       INT
 CPU TIMES  *         0.18      0.01      0.09
 REAL TIME  *         0.88 SEC
 DISK USED  *        33.30 MB
 **********************************************************************************************************************************

 Dump information in style XML to xml output                                                                      

 Orbitals will not be exported.

 **********************************************************************************************************************************

 UHF/cc-pVDZ energy=   -100.421813419641

         UHF-SCF
   -100.42181342
 **********************************************************************************************************************************
 Molpro calculation terminated
