
 Working directory              : /var/folders/2v/xbgp75_9785319ghcgb4zr4r0000gp/T//molpro.RLZP9tT818/
 Global scratch directory       : /var/folders/2v/xbgp75_9785319ghcgb4zr4r0000gp/T//molpro.RLZP9tT818/
 Wavefunction directory         : /Users/sacpjk/wfu/
 Main file repository           : /var/folders/2v/xbgp75_9785319ghcgb4zr4r0000gp/T//molpro.RLZP9tT818/

 id        : peterk

 Nodes                        nprocs
 Cardiff-University-G34YLXT77Y    1
 GA implementation: MPI file
 GA implementation (serial work in mppx): MPI file

 Using customized tuning parameters: mindgm=1; mindgv=20; mindgc=4; mindgr=1; noblas=0; minvec=7
 default implementation of scratch files=df  


 Variables initialized (1032), CPU time= 0.01 sec
 
 symmetry,nosym
 
 
 geometry={
           17
     SI         0.00000000     -2.06141387     -0.87292226
     SI         0.00000000      0.00000000     -2.02977282
     SI         0.00000000      2.06141387     -0.87292226
     SI         0.00000000      2.04066436      1.47296712
     SI         0.00000000     -2.04066436      1.47296712
     H          1.19799593     -2.82548452     -1.31822012
     H         -1.19799593     -2.82548452     -1.31822012
     H         -1.19676843      0.00000000     -2.91518357
     H          1.19676843      0.00000000     -2.91518357
     H          1.19799593      2.82548452     -1.31822012
     H         -1.19799593      2.82548452     -1.31822012
     H          0.00000000      3.44041450      1.97229570
     H         -1.20608553      1.35278084      1.99746897
     H          1.20608553      1.35278084      1.99746897
     H          0.00000000     -3.44041450      1.97229570
     H          1.20608553     -1.35278084      1.99746897
     H         -1.20608553     -1.35278084      1.99746897
 }
 basis=cc-pVTZ
 
 
 
 hf; hf; papt; mp3
 
 
 
 {put,xml;noorbitals,nobasis}
 Commands initialized (841), CPU time= 0.00 sec, 704 directives.
 Default parameters read. Elapsed time= 0.12 sec

 Checking input...
 Passed
1


                                         ***  PROGRAM SYSTEM MOLPRO  ***
                                       Copyright, TTI GmbH Stuttgart, 2015
                                    Version 2023.1 linked Tue Jun  6 09:54:11 2023


 **********************************************************************************************************************************
 LABEL *                                                                                                                                                                 
  64 bit serial version                                                                  DATE: 13-Jun-23          TIME: 06:56:23  
 **********************************************************************************************************************************

 SHA1:             8ebb0dd001088a5c915591db1a321413035db0b1
 **********************************************************************************************************************************

 Memory per process:       393 MW
 Total memory per node:    524 MW
 Total GA space:           131 MW

 GA preallocation disabled
 GA check enabled

 Variable memory set to 393.2 MW

 ZSYMEL=NOSYM


 Geometry recognized as XYZ

 SETTING BASIS          =    CC-PVTZ


 Recomputing integrals since basis changed


 Using spherical harmonics

 Library entry SI     S cc-pVTZ              selected for orbital group  1
 Library entry SI     P cc-pVTZ              selected for orbital group  1
 Library entry SI     D cc-pVTZ              selected for orbital group  1
 Library entry SI     F cc-pVTZ              selected for orbital group  1
 Library entry H      S cc-pVTZ              selected for orbital group  2
 Library entry H      P cc-pVTZ              selected for orbital group  2
 Library entry H      D cc-pVTZ              selected for orbital group  2


 PROGRAM * SEWARD (Integral evaluation for generally contracted gaussian basis sets)     Author: Roland Lindh, 1990

 Geometry written to block  1 of record 700


 Point group  C1  



 ATOMIC COORDINATES

 NR  ATOM    CHARGE       X              Y              Z

   1  SI     14.00    0.000000000   -3.895507644   -1.649583999
   2  SI     14.00    0.000000000    0.000000000   -3.835714725
   3  SI     14.00    0.000000000    3.895507644   -1.649583999
   4  SI     14.00    0.000000000    3.856296753    2.783504447
   5  SI     14.00    0.000000000   -3.856296753    2.783504447
   6  H       1.00    2.263884206   -5.339391912   -2.491074999
   7  H       1.00   -2.263884206   -5.339391912   -2.491074999
   8  H       1.00   -2.261564567    0.000000000   -5.508898550
   9  H       1.00    2.261564567    0.000000000   -5.508898550
  10  H       1.00    2.263884206    5.339391912   -2.491074999
  11  H       1.00   -2.263884206    5.339391912   -2.491074999
  12  H       1.00    0.000000000    6.501441160    3.727098710
  13  H       1.00   -2.279171335    2.556385294    3.774669296
  14  H       1.00    2.279171335    2.556385294    3.774669296
  15  H       1.00    0.000000000   -6.501441160    3.727098710
  16  H       1.00    2.279171335   -2.556385294    3.774669296
  17  H       1.00   -2.279171335   -2.556385294    3.774669296

 Bond lengths in Bohr (Angstrom)

 1-2  4.467006531  1-5  4.433261855  1-6  2.813908417  1-7  2.813908417  2-3  4.467006531
     ( 2.363838057)     ( 2.345981143)     ( 1.489056208)     ( 1.489056208)     ( 2.363838057)

  2- 8  2.813222068   2- 9  2.813222068   3- 4  4.433261855   3-10  2.813908417   3-11  2.813908417
       ( 1.488693008)       ( 1.488693008)       ( 2.345981143)       ( 1.489056208)       ( 1.489056208)

  4-12  2.808408636   4-13  2.804781547   4-14  2.804781547   5-15  2.808408636   5-16  2.804781547
       ( 1.486145849)       ( 1.484226476)       ( 1.484226476)       ( 1.486145849)       ( 1.484226476)

  5-17  2.804781547
       ( 1.484226476)

 Bond angles

  1- 2- 3  121.39834924   1- 2- 8  106.92209593   1- 2- 9  106.92209593   1- 5-15  109.12591571

  1- 5-16  110.94486070   1- 5-17  110.94486070   2- 1- 5  118.79405453   2- 1- 6  107.52512709

  2- 1- 7  107.52512709   2- 3- 4  118.79405453   2- 3-10  107.52512709   2- 3-11  107.52512709

  3- 2- 8  106.92209593   3- 2- 9  106.92209593   3- 4-12  109.12591571   3- 4-13  110.94486070

  3- 4-14  110.94486070   4- 3-10  107.67237964   4- 3-11  107.67237964   5- 1- 6  107.67237964

  5- 1- 7  107.67237964   6- 1- 7  107.13049617   8- 2- 9  107.00936217  10- 3-11  107.13049617

 12- 4-13  108.52911808  12- 4-14  108.52911808  13- 4-14  108.70189379  15- 5-16  108.52911808

 15- 5-17  108.52911808  16- 5-17  108.70189379

 NUCLEAR CHARGE:                   82
 NUMBER OF PRIMITIVE AOS:         524
 NUMBER OF SYMMETRY AOS:          487
 NUMBER OF CONTRACTIONS:          338   (  338A   )
 NUMBER OF INNER CORE ORBITALS:     5   (    5A   )
 NUMBER OF OUTER CORE ORBITALS:    20   (   20A   )
 NUMBER OF VALENCE ORBITALS:       32   (   32A   )


 NUCLEAR REPULSION ENERGY  478.56234912


 Eigenvalues of metric

         1 0.694E-03 0.911E-03 0.114E-02 0.119E-02 0.147E-02 0.161E-02 0.172E-02 0.195E-02


 Contracted 2-electron integrals neglected if value below      1.0D-11
 AO integral compression algorithm  1   Integral accuracy      1.0D-11

     3279.421 MB (compressed) written to integral file ( 27.1%)


 NUMBER OF SORTED TWO-ELECTRON INTEGRALS: 1641157986.     BUFFER LENGTH:  32768
 NUMBER OF SEGMENTS:  52  SEGMENT LENGTH:   31998710      RECORD LENGTH: 524288

 Memory used in sort:      32.56 MW

 SORT1 READ  1514912525. AND WROTE   936063989. INTEGRALS IN   2702 RECORDS. CPU TIME:    11.18 SEC, REAL TIME:    14.48 SEC
 SORT2 READ   936063989. AND WROTE  1641157986. INTEGRALS IN  12510 RECORDS. CPU TIME:     8.97 SEC, REAL TIME:    12.90 SEC

 FILE SIZES:   FILE 1:  3313.9 MBYTE,  FILE 4: 11333.1 MBYTE,   TOTAL:  14647.0 MBYTE

 OPERATOR DM      FOR CENTER  0  COORDINATES:    0.000000    0.000000    0.000000


 **********************************************************************************************************************************
 DATASETS  * FILE   NREC   LENGTH (MB)   RECORD NAMES
              1      19     2818.83       500      610      700      900      950      970     1000      129      960     1100   
                                          VAR    BASINP    GEOM    SYMINP    ZMAT    AOBASIS   BASIS     P2S    ABASIS      S 
                                         1400     1410     1200     1210     1080     1600     1650     1300     1700   
                                           T        V       H0       H01     AOSYM     SMH    MOLCAS    ERIS     OPER   

 PROGRAMS   *        TOTAL       INT
 CPU TIMES  *        52.78     52.69
 REAL TIME  *        65.19 SEC
 DISK USED  *        13.64 GB
 **********************************************************************************************************************************


 Program * Restricted Hartree-Fock

 Orbital guess generated from atomic densities. Full valence occupancy:   57

 Initial occupancy:  41

 NELEC=   82   SYM=1   MS2= 0   THRE=1.0D-08   THRD=3.2D-06   THRG=3.2D-06  HFMA2=F  DIIS_START=2   DIIS_MAX=10   DIIS_INCORE=F

 Level shifts:    0.00 (CLOSED)    0.00 (OPEN)    0.30 (GAP_MIN)

 ITER           ETOT              DE          GRAD        DDIFF     DIIS  NEXP   TIME(IT)  TIME(TOT)  DIAG
   1    -1451.62715110   -1451.62715110     0.00D+00     0.51D-01     0     0       7.01     13.69    start
   2    -1451.68854689      -0.06139579     0.13D-02     0.24D-02     1     0       7.26     20.95    diag
   3    -1451.69709402      -0.00854713     0.45D-03     0.86D-03     2     0       7.20     28.15    diag
   4    -1451.69743737      -0.00034335     0.10D-03     0.20D-03     3     0       7.07     35.22    diag
   5    -1451.69746360      -0.00002623     0.26D-04     0.77D-04     4     0       7.26     42.48    diag
   6    -1451.69746468      -0.00000108     0.47D-05     0.22D-04     5     0       7.43     49.91    diag
   7    -1451.69746471      -0.00000004     0.92D-06     0.40D-05     6     0       7.33     57.24    diag
   8    -1451.69746471      -0.00000000     0.22D-06     0.80D-06     7     0       7.30     64.54    fixocc
   9    -1451.69746471      -0.00000000     0.58D-07     0.15D-06     0     0       7.27     71.81    diag

 Final occupancy:  41

 !RHF STATE 1.1 Energy              -1451.697464714303
  RHF One-electron energy           -2967.385842924473
  RHF Two-electron energy            1037.126029086996
  RHF Kinetic energy                 1451.793793917888
  RHF Nuclear energy                  478.562349123174
  RHF Virial quotient                  -0.999933648150

 !RHF STATE 1.1 Dipole moment           0.00000000    -0.00000000     0.06534345
 Dipole moment /Debye                   0.00000000    -0.00000000     0.16608648

 Orbital energies:

           1.1          2.1          3.1          4.1          5.1          6.1          7.1          8.1          9.1         10.1
    -68.776238   -68.776063   -68.776063   -68.774428   -68.774428    -6.125914    -6.125872    -6.125871    -6.124484    -6.124476

          11.1         12.1         13.1         14.1         15.1         16.1         17.1         18.1         19.1         20.1
     -4.231839    -4.231823    -4.231736    -4.231732    -4.231714    -4.231714    -4.231712    -4.231697    -4.231671    -4.230278

          21.1         22.1         23.1         24.1         25.1         26.1         27.1         28.1         29.1         30.1
     -4.230276    -4.230182    -4.230179    -4.230131    -4.230066    -0.780091    -0.750950    -0.719269    -0.669208    -0.632707

          31.1         32.1         33.1         34.1         35.1         36.1         37.1         38.1         39.1         40.1
     -0.515863    -0.501203    -0.496861    -0.494686    -0.480460    -0.467744    -0.459776    -0.450053    -0.408531    -0.385741

          41.1         42.1         43.1
     -0.383144     0.089563     0.096133


 HOMO     41.1    -0.383144 =     -10.4259eV
 LUMO     42.1     0.089563 =       2.4371eV
 LUMO-HOMO         0.472708 =      12.8630eV

 Orbitals saved in record  2100.2


 **********************************************************************************************************************************
 DATASETS  * FILE   NREC   LENGTH (MB)   RECORD NAMES
              1      19     2818.83       500      610      700      900      950      970     1000      129      960     1100   
                                          VAR    BASINP    GEOM    SYMINP    ZMAT    AOBASIS   BASIS     P2S    ABASIS      S 
                                         1400     1410     1200     1210     1080     1600     1650     1300     1700   
                                           T        V       H0       H01     AOSYM     SMH    MOLCAS    ERIS     OPER   

              2       4        2.44       700     1000      520     2100   
                                         GEOM     BASIS   MCVARS     RHF  

 PROGRAMS   *        TOTAL    HF-SCF       INT
 CPU TIMES  *       124.60     71.82     52.69
 REAL TIME  *       147.45 SEC
 DISK USED  *        13.64 GB
 **********************************************************************************************************************************


 Program * Restricted Hartree-Fock

 Molecular orbitals read from record     2100.2  Type=RHF/CANONICAL  

 Initial occupancy:  41

 NELEC=   82   SYM=1   MS2= 0   THRE=1.0D-08   THRD=3.2D-06   THRG=3.2D-06  HFMA2=F  DIIS_START=2   DIIS_MAX=10   DIIS_INCORE=F

 Level shifts:    0.00 (CLOSED)    0.00 (OPEN)    0.30 (GAP_MIN)

 ITER           ETOT              DE          GRAD        DDIFF     DIIS  NEXP   TIME(IT)  TIME(TOT)  DIAG
   1    -1451.69746471   -1451.69746471     0.00D+00     0.52D-01     0     0       7.52      7.52    start
   2    -1451.69746471      -0.00000000     0.24D-07     0.60D-07     1     0       7.77     15.29    diag

 Final occupancy:  41

 !RHF STATE 1.1 Energy              -1451.697464714323
  RHF One-electron energy           -2967.385855195496
  RHF Two-electron energy            1037.126041357999
  RHF Kinetic energy                 1451.793796089575
  RHF Nuclear energy                  478.562349123174
  RHF Virial quotient                  -0.999933646655

 !RHF STATE 1.1 Dipole moment          -0.00000000    -0.00000000     0.06533640
 Dipole moment /Debye                  -0.00000000    -0.00000000     0.16606857

 Orbital energies:

           1.1          2.1          3.1          4.1          5.1          6.1          7.1          8.1          9.1         10.1
    -68.776240   -68.776063   -68.776063   -68.774429   -68.774429    -6.125916    -6.125872    -6.125871    -6.124484    -6.124476

          11.1         12.1         13.1         14.1         15.1         16.1         17.1         18.1         19.1         20.1
     -4.231839    -4.231823    -4.231735    -4.231732    -4.231716    -4.231714    -4.231712    -4.231698    -4.231673    -4.230279

          21.1         22.1         23.1         24.1         25.1         26.1         27.1         28.1         29.1         30.1
     -4.230276    -4.230183    -4.230179    -4.230131    -4.230066    -0.780091    -0.750950    -0.719269    -0.669208    -0.632708

          31.1         32.1         33.1         34.1         35.1         36.1         37.1         38.1         39.1         40.1
     -0.515863    -0.501203    -0.496862    -0.494686    -0.480460    -0.467744    -0.459777    -0.450054    -0.408531    -0.385742

          41.1         42.1         43.1
     -0.383145     0.089563     0.096132


 HOMO     41.1    -0.383145 =     -10.4259eV
 LUMO     42.1     0.089563 =       2.4371eV
 LUMO-HOMO         0.472708 =      12.8630eV

 Orbitals saved in record  2101.2


 **********************************************************************************************************************************
 DATASETS  * FILE   NREC   LENGTH (MB)   RECORD NAMES
              1      19     2818.83       500      610      700      900      950      970     1000      129      960     1100   
                                          VAR    BASINP    GEOM    SYMINP    ZMAT    AOBASIS   BASIS     P2S    ABASIS      S 
                                         1400     1410     1200     1210     1080     1600     1650     1300     1700   
                                           T        V       H0       H01     AOSYM     SMH    MOLCAS    ERIS     OPER   

              2       5        5.60       700     1000      520     2100     2101   
                                         GEOM     BASIS   MCVARS     RHF      RHF  

 PROGRAMS   *        TOTAL    HF-SCF    HF-SCF       INT
 CPU TIMES  *       139.90     15.30     71.82     52.69
 REAL TIME  *       165.16 SEC
 DISK USED  *        13.64 GB
 **********************************************************************************************************************************


 PROGRAM * PAPT (Closed-shell)     Authors: C. Hampel, H.-J. Werner, 1991, P.J. Knowles, 2021


 Convergence thresholds:  THRVAR = 1.00D-08  THRDEN = 1.00D-06

 Number of core orbitals:          25 (  25 )
 Number of closed-shell orbitals:  16 (  16 )
 Number of external orbitals:     297 ( 297 )

 Molecular orbitals read from record     2101.2  Type=RHF/CANONICAL  

 Number of N-1 electron functions:              16
 Number of N-2 electron functions:             136
 Number of singly external CSFs:              4752
 Number of doubly external CSFs:          11293128
 Total number of CSFs:                    11297881

 Length of J-op  integral file:               0.00 MB
 Length of K-op  integral file:               7.91 MB

 Integral transformation finished. Total CPU:  16.55 sec, npass=  1  Memory used:  27.90 MW

 Reference energy:                  -1451.69746471

                        CORR.ENERGY   TOTAL ENERGY   ENERGY CHANGE
 MP2:                   -0.63689940 -1452.33436412    -0.63689940

 SCS-MP2 correlation energy:           -0.68006289   (PS=  1.200000  PT=  0.333333)
 SCS-MP2 total energy:              -1452.37752761
 Iteration:   1     0.2230D+00
 Iteration:   2     0.2660D+00
 Iteration:   3     0.8030D-01
 Iteration:   4     0.5905D-01
 Iteration:   5     0.7539D-01
 Iteration:   6     0.2950D-01
 Iteration:   7     0.9822D-01
 Iteration:   8     0.1241D-01
 Iteration:   9     0.9295D-02
 Iteration:  10     0.7820D-02
 Iteration:  11     0.1603D-02
 Iteration:  12     0.1902D-02
 Iteration:  13     0.1139D-02
 Iteration:  14     0.4916D-03
 Iteration:  15     0.1346D-02
 Iteration:  16     0.9099D-04
 PAPT operator written to  7000.1
 PAPT orbitals and eigenvalues written to  7000.2

 MP3(D):                -0.73255867 -1452.43002338    -0.09565927



 RESULTS
 =======

  Reference energy                  -1451.697464714337
  MP3 singlet pair energy              -0.574979921528
  MP3 triplet pair energy              -0.157578747995
  MP3 correlation energy               -0.732558669523

 !MP3 total energy                  -1452.430023383860

 Timing summary (sec):

 STEP                 CPU(USER)    SYS     CPU(TOT)    WALL
 Transformation         17.40      2.03     19.43     19.77
 CCSD iterations       234.26      3.71    237.97    100.77

 Program statistics:

 Available memory in ccsd:               393214935
 Min. memory needed in ccsd:              27758494
 Max. memory used in ccsd:                37931766
 Max. memory used in cckext:              32146366 ( 1 integral passes)



 **********************************************************************************************************************************
 DATASETS  * FILE   NREC   LENGTH (MB)   RECORD NAMES
              1      21     2999.00       500      610      700      900      950      970     1000      129      960     1100   
                                          VAR    BASINP    GEOM    SYMINP    ZMAT    AOBASIS   BASIS     P2S    ABASIS      S 
                                         1400     1410     1200     1210     1080     1600     1650     1300     1700     1380   
                                           T        V       H0       H01     AOSYM     SMH    MOLCAS    ERIS     OPER     JKOP   
                                         7000   
                                        PAPT AO    

              2       6        8.33       700     1000      520     2100     2101     7000   
                                         GEOM     BASIS   MCVARS     RHF      RHF     PAPT   

 PROGRAMS   *        TOTAL      PAPT    HF-SCF    HF-SCF       INT
 CPU TIMES  *       251.56    111.66     15.30     71.82     52.69
 REAL TIME  *       285.87 SEC
 DISK USED  *        13.64 GB
 **********************************************************************************************************************************


 PROGRAM * MP3 (Closed-shell)     Authors: C. Hampel, H.-J. Werner, 1991, M. Deegan, P.J. Knowles, 1992


 Convergence thresholds:  THRVAR = 1.00D-08  THRDEN = 1.00D-06

 Number of core orbitals:          25 (  25 )
 Number of closed-shell orbitals:  16 (  16 )
 Number of external orbitals:     297 ( 297 )

 Molecular orbitals read from record     7000.2  Type=PAPT/CANONICAL (state 1.1)

 Number of N-1 electron functions:              16
 Number of N-2 electron functions:             136
 Number of singly external CSFs:              4752
 Number of doubly external CSFs:          11293128
 Total number of CSFs:                    11297881

 Length of J-op  integral file:               0.00 MB
 Length of K-op  integral file:               7.91 MB

 Integral transformation finished. Total CPU:  19.25 sec, npass=  1  Memory used:  27.90 MW
 Orbital energies read from record       7000.2  Type=PAPT/CANONICAL (state 1.1)

 Reference energy:                  -1451.69746471

                        CORR.ENERGY   TOTAL ENERGY   ENERGY CHANGE
 MP2:                   -0.75789432 -1452.45535903    -0.75789432

 SCS-MP2 correlation energy:           -0.81062588   (PS=  1.200000  PT=  0.333333)
 SCS-MP2 total energy:              -1452.50809059

 MP3(D):                -0.75861985 -1452.45608456    -0.00072553



 RESULTS
 =======

  Reference energy                  -1451.697464714334
  MP3 singlet pair energy              -0.601531779894
  MP3 triplet pair energy              -0.157088065529
  MP3 correlation energy               -0.758619845423

 !MP3 total energy                  -1452.456084559757

 Timing summary (sec):

 STEP                 CPU(USER)    SYS     CPU(TOT)    WALL
 Transformation         28.42      2.19     30.61     32.70
 CCSD iterations       310.48      3.28    313.76     64.87

 Program statistics:

 Available memory in ccsd:               393214935
 Min. memory needed in ccsd:              27758494
 Max. memory used in ccsd:                37931766
 Max. memory used in cckext:              32146366 ( 1 integral passes)



 **********************************************************************************************************************************
 DATASETS  * FILE   NREC   LENGTH (MB)   RECORD NAMES
              1      21     2999.00       500      610      700      900      950      970     1000      129      960     1100   
                                          VAR    BASINP    GEOM    SYMINP    ZMAT    AOBASIS   BASIS     P2S    ABASIS      S 
                                         1400     1410     1200     1210     1080     1600     1650     1300     1700     1380   
                                           T        V       H0       H01     AOSYM     SMH    MOLCAS    ERIS     OPER     JKOP   
                                         7000   
                                        PAPT AO    

              2       6        8.33       700     1000      520     2100     2101     7000   
                                         GEOM     BASIS   MCVARS     RHF      RHF     PAPT   

 PROGRAMS   *        TOTAL       MP3      PAPT    HF-SCF    HF-SCF       INT
 CPU TIMES  *       338.80     87.24    111.66     15.30     71.82     52.69
 REAL TIME  *       383.97 SEC
 DISK USED  *        13.64 GB
 **********************************************************************************************************************************

 Dump information in style XML to xml output                                                                      

 Orbitals will not be exported.

 **********************************************************************************************************************************

 MP3/cc-pVTZ energy=  -1452.456084559757

             MP3            PAPT          HF-SCF          HF-SCF
  -1452.45608456  -1452.43002338  -1451.69746471  -1451.69746471
 **********************************************************************************************************************************
 Molpro calculation terminated
