
 Working directory              : /tmp/peterk/molpro.hePnLOBdGJ/
 Global scratch directory       : /tmp/peterk/molpro.hePnLOBdGJ/
 Wavefunction directory         : /home/peterk/wfu/
 Main file repository           : /tmp/peterk/molpro.hePnLOBdGJ/

 id        : peterk

 Nodes     nprocs
 marat        1
 GA implementation: MPI file
 GA implementation (serial work in mppx): MPI file

 Using customized tuning parameters: mindgm=1; mindgv=20; mindgc=4; mindgr=1; noblas=0; minvec=7
 default implementation of scratch files=df  


 Variables initialized (1032), CPU time= 0.00 sec
 
 core,small
 angstrom
 
 geometry={
 H;N,H,1.05238269;O,N,1.20847128,H,108.08480747
 }
 basis=cc-pCVTZ
 
 
 
 hf; mp4
 
 
 
 {put,xml;noorbitals,nobasis}
 Commands initialized (841), CPU time= 0.01 sec, 708 directives.
 Default parameters read. Elapsed time= 0.05 sec

 Checking input...
 Passed
1


                                         ***  PROGRAM SYSTEM MOLPRO  ***
                                       Copyright, TTI GmbH Stuttgart, 2015
                                    Version 2023.1 linked Sat Jun 10 08:01:27 2023


 **********************************************************************************************************************************
 LABEL *                                                                                                                                                                 
  (16 PROC) 64 bit serial version                                                        DATE: 12-Jun-23          TIME: 10:25:30  
 **********************************************************************************************************************************

 SHA1:             8376d659ba1296ca7ee514c57770fe2c96af278c
 **********************************************************************************************************************************

 Memory per process:      1074 MW
 Total memory per node:   1074 MW

 GA preallocation disabled
 GA check disabled

 Variable memory set to 1073.7 MW

 ZUNIT=ANG

 SETTING BASIS          =    CC-PCVTZ


 Recomputing integrals since basis changed


 Using spherical harmonics

 Library entry H      S cc-pVTZ              selected for orbital group  1
 Library entry H      P cc-pVTZ              selected for orbital group  1
 Library entry H      D cc-pVTZ              selected for orbital group  1
 Library entry N      S cc-pCVTZ             selected for orbital group  2
 Library entry N      P cc-pCVTZ             selected for orbital group  2
 Library entry N      D cc-pCVTZ             selected for orbital group  2
 Library entry N      F cc-pCVTZ             selected for orbital group  2
 Library entry O      S cc-pCVTZ             selected for orbital group  3
 Library entry O      P cc-pCVTZ             selected for orbital group  3
 Library entry O      D cc-pCVTZ             selected for orbital group  3
 Library entry O      F cc-pCVTZ             selected for orbital group  3


 PROGRAM * SEWARD (Integral evaluation for generally contracted gaussian basis sets)     Author: Roland Lindh, 1990

 Geometry written to block  1 of record 700

 Orientation using atomic masses  
 Molecule type: Asymmetric top
 Symmetry elements: X
 Rotational constants:      39.4752865     42.4383239    565.3877201 GHz  (calculated with average atomic masses)

 Point group  Cs  



 ATOMIC COORDINATES

 NR  ATOM    CHARGE       X              Y              Z

   1  H       1.00    0.000000000    1.668937369   -1.926645665
   2  N       7.00    0.000000000   -0.161179941   -1.148405194
   3  O       8.00    0.000000000    0.035964495    1.126749145

 Bond lengths in Bohr (Angstrom)

 1-2  1.988715062  2-3  2.283679749
     ( 1.052382690)     ( 1.208471280)

 Bond angles

  1-2-3  108.08480747

 NUCLEAR CHARGE:                   16
 NUMBER OF PRIMITIVE AOS:         139
 NUMBER OF SYMMETRY AOS:          126
 NUMBER OF CONTRACTIONS:          100   (   68A'  +   32A"  )
 NUMBER OF INNER CORE ORBITALS:     0   (    0A'  +    0A"  )
 NUMBER OF OUTER CORE ORBITALS:     2   (    2A'  +    0A"  )
 NUMBER OF VALENCE ORBITALS:        9   (    7A'  +    2A"  )


 NUCLEAR REPULSION ENERGY   30.35206907


 Eigenvalues of metric

         1 0.158E-02 0.246E-02 0.344E-02 0.560E-02 0.105E-01 0.126E-01 0.143E-01 0.211E-01
         2 0.211E-01 0.274E-01 0.983E-01 0.110E+00 0.211E+00 0.323E+00 0.370E+00 0.399E+00


 Contracted 2-electron integrals neglected if value below      1.0D-11
 AO integral compression algorithm  1   Integral accuracy      1.0D-11

     32.244 MB (compressed) written to integral file ( 46.4%)


 NUMBER OF SORTED TWO-ELECTRON INTEGRALS:    6608751.     BUFFER LENGTH:  32768
 NUMBER OF SEGMENTS:   1  SEGMENT LENGTH:    6608751      RECORD LENGTH: 524288

 Memory used in sort:       7.17 MW

 SORT1 READ     8677815. AND WROTE     5770177. INTEGRALS IN     17 RECORDS. CPU TIME:     0.06 SEC, REAL TIME:     0.10 SEC
 SORT2 READ     5770177. AND WROTE     6608751. INTEGRALS IN    123 RECORDS. CPU TIME:     0.11 SEC, REAL TIME:     0.12 SEC

 FILE SIZES:   FILE 1:    62.5 MBYTE,  FILE 4:    71.4 MBYTE,   TOTAL:    133.9 MBYTE

 OPERATOR DM      FOR CENTER  0  COORDINATES:    0.000000    0.000000    0.000000


 **********************************************************************************************************************************
 DATASETS  * FILE   NREC   LENGTH (MB)   RECORD NAMES
              1      19       52.26       500      610      700      900      950      970     1000      129      960     1100   
                                          VAR    BASINP    GEOM    SYMINP    ZMAT    AOBASIS   BASIS     P2S    ABASIS      S 
                                         1400     1410     1200     1210     1080     1600     1650     1300     1700   
                                           T        V       H0       H01     AOSYM     SMH    MOLCAS    ERIS     OPER   

 PROGRAMS   *        TOTAL       INT
 CPU TIMES  *         1.03      0.92
 REAL TIME  *         1.76 SEC
 DISK USED  *       128.05 MB
 **********************************************************************************************************************************


 Program * Restricted Hartree-Fock

 Orbital guess generated from atomic densities. Full valence occupancy:    9   2

 Initial occupancy:   7   1

 NELEC=   16   SYM=1   MS2= 0   THRE=1.0D-08   THRD=3.2D-06   THRG=3.2D-06  HFMA2=F  DIIS_START=2   DIIS_MAX=10   DIIS_INCORE=F

 Level shifts:    0.00 (CLOSED)    0.00 (OPEN)    0.30 (GAP_MIN)

 ITER           ETOT              DE          GRAD        DDIFF     DIIS  NEXP   TIME(IT)  TIME(TOT)  DIAG
   1     -129.78700562    -129.78700562     0.00D+00     0.97D-01     0     0       0.02      0.05    start
   2     -129.81382672      -0.02682110     0.12D-01     0.14D-01     1     0       0.02      0.07    diag
   3     -129.83630317      -0.02247645     0.88D-02     0.67D-02     2     0       0.03      0.10    diag
   4     -129.83706453      -0.00076136     0.14D-02     0.12D-02     3     0       0.03      0.13    diag
   5     -129.83718065      -0.00011613     0.44D-03     0.54D-03     4     0       0.03      0.16    diag
   6     -129.83719955      -0.00001890     0.13D-03     0.21D-03     5     0       0.03      0.19    diag
   7     -129.83720514      -0.00000559     0.65D-04     0.15D-03     6     0       0.03      0.22    diag
   8     -129.83720573      -0.00000059     0.22D-04     0.53D-04     7     0       0.02      0.24    fixocc
   9     -129.83720576      -0.00000002     0.40D-05     0.10D-04     8     0       0.03      0.27    diag
  10     -129.83720576      -0.00000000     0.91D-06     0.24D-05     9     0       0.02      0.29    diag/orth
  11     -129.83720576      -0.00000000     0.18D-06     0.29D-06     0     0       0.03      0.32    diag

 Final occupancy:   7   1

 !RHF STATE 1.1 Energy               -129.837205756289
  RHF One-electron energy            -237.783496351958
  RHF Two-electron energy              77.594221523600
  RHF Kinetic energy                  129.635573840132
  RHF Nuclear energy                   30.352069072069
  RHF Virial quotient                  -1.001555374888

 !RHF STATE 1.1 Dipole moment           0.00000000     0.57861035    -0.53454840
 Dipole moment /Debye                   0.00000000     1.47068082    -1.35868651

 Orbital energies:

           1.1          2.1          3.1          4.1          5.1          6.1          7.1          8.1          9.1
    -20.648871   -15.707890    -1.525577    -0.991050    -0.743094    -0.661920    -0.427156     0.143741     0.368863

           1.2          2.2          3.2
     -0.591969     0.086121     0.610776


 HOMO      7.1    -0.427156 =     -11.6235eV
 LUMO      2.2     0.086121 =       2.3435eV
 LUMO-HOMO         0.513277 =      13.9670eV

 Orbitals saved in record  2100.2


 **********************************************************************************************************************************
 DATASETS  * FILE   NREC   LENGTH (MB)   RECORD NAMES
              1      19       52.26       500      610      700      900      950      970     1000      129      960     1100   
                                          VAR    BASINP    GEOM    SYMINP    ZMAT    AOBASIS   BASIS     P2S    ABASIS      S 
                                         1400     1410     1200     1210     1080     1600     1650     1300     1700   
                                           T        V       H0       H01     AOSYM     SMH    MOLCAS    ERIS     OPER   

              2       4        0.49       700     1000      520     2100   
                                         GEOM     BASIS   MCVARS     RHF  

 PROGRAMS   *        TOTAL    HF-SCF       INT
 CPU TIMES  *         1.35      0.32      0.92
 REAL TIME  *         2.12 SEC
 DISK USED  *       128.05 MB
 **********************************************************************************************************************************


 PROGRAM * MP4 (Closed-shell)     Authors: C. Hampel, H.-J. Werner, 1991, M. Deegan, P.J. Knowles, 1992


 CORETYPE=SMALL

 Convergence thresholds:  THRVAR = 1.00D-08  THRDEN = 1.00D-06

 MP4(T)     terms to be evaluated (factor= 0.000)


 Number of closed-shell orbitals:   8 (   7   1 )
 Number of external orbitals:      92 (  61  31 )

 Molecular orbitals read from record     2100.2  Type=RHF/CANONICAL  

 Number of N-1 electron functions:               8
 Number of N-2 electron functions:              36
 Number of singly external CSFs:               458
 Number of doubly external CSFs:            143892
 Total number of CSFs:                      144351

 Length of J-op  integral file:               0.00 MB
 Length of K-op  integral file:               0.45 MB

 Memory could be reduced to 4.57 Mwords without degradation in triples

 Integral transformation finished. Total CPU:   0.10 sec, npass=  1  Memory used:   1.64 MW

 Reference energy:                   -129.83720576

                        CORR.ENERGY   TOTAL ENERGY   ENERGY CHANGE
 MP2:                   -0.54369173  -130.38089749    -0.54369173

 SCS-MP2 correlation energy:           -0.54732283   (PS=  1.200000  PT=  0.333333)
 SCS-MP2 total energy:               -130.38452859

 MP3(D):                -0.54514865  -130.38235440    -0.00145692
 MP4(DQ):               -0.54634482  -130.38355058    -0.00119617
 MP4(SDQ):              -0.55325449  -130.39046025    -0.00690967

 Norm of t1 vector:      0.06239125      S-energy:    -0.00690967      T1 diagnostic:  0.01102932


 Total CPU time for triples:      0.99 sec


 RESULTS
 =======

  Reference energy                   -129.837205756289

  Correlated core orbitals:             1.1       2.1
  Orbital energies:                   -20.6489  -15.7079

  MP4(SDQ) core-core energy            -0.074620632485
  MP4(SDQ) core-valence energy         -0.031107176230
  MP4(SDQ) valence correlation ener    -0.447526680453

  MP4(SDQ) singlet pair energy         -0.381630715618
  MP4(SDQ) triplet pair energy         -0.164714106435
  MP4(SDQ) correlation energy          -0.553254489168

  Triples contribution                 -0.023469561136
  Total correlation energy             -0.576724050304

  MP4(SDQ) total energy              -130.390460245458
 !MP4(SDTQ) total energy             -130.413929806594

 Timing summary (sec):

 STEP                 CPU(USER)    SYS     CPU(TOT)    WALL
 Transformation          0.11      0.03      0.14      0.14
 CCSD iterations         1.87      0.03      1.90      0.23
 Triples                 0.99      0.06      1.05      1.06

 Program statistics:

 Available memory in ccsd:              1073741561
 Min. memory needed in ccsd:                451796
 Max. memory used in ccsd:                  570618
 Max. memory used in cckext:                605202 ( 1 integral passes)



 **********************************************************************************************************************************
 DATASETS  * FILE   NREC   LENGTH (MB)   RECORD NAMES
              1      20       66.93       500      610      700      900      950      970     1000      129      960     1100   
                                          VAR    BASINP    GEOM    SYMINP    ZMAT    AOBASIS   BASIS     P2S    ABASIS      S 
                                         1400     1410     1200     1210     1080     1600     1650     1300     1700     1380   
                                           T        V       H0       H01     AOSYM     SMH    MOLCAS    ERIS     OPER     JKOP   

              2       4        0.49       700     1000      520     2100   
                                         GEOM     BASIS   MCVARS     RHF  

 PROGRAMS   *        TOTAL       MP4    HF-SCF       INT
 CPU TIMES  *         2.68      1.33      0.32      0.92
 REAL TIME  *         3.57 SEC
 DISK USED  *       128.05 MB
 **********************************************************************************************************************************

 Dump information in style XML to xml output                                                                      

 Orbitals will not be exported.

 **********************************************************************************************************************************

 MP4/cc-pCVTZ energy=   -130.413929806594

             MP4          HF-SCF
   -130.41392981   -129.83720576
 **********************************************************************************************************************************
 Molpro calculation terminated
