
 Working directory              : /var/folders/2v/xbgp75_9785319ghcgb4zr4r0000gp/T//molpro.T25yIUTjBc/
 Global scratch directory       : /var/folders/2v/xbgp75_9785319ghcgb4zr4r0000gp/T//molpro.T25yIUTjBc/
 Wavefunction directory         : /Users/sacpjk/wfu/
 Main file repository           : /var/folders/2v/xbgp75_9785319ghcgb4zr4r0000gp/T//molpro.T25yIUTjBc/

 id        : peterk

 Nodes                        nprocs
 Cardiff-University-G34YLXT77Y    1
 GA implementation: MPI file
 GA implementation (serial work in mppx): MPI file

 Using customized tuning parameters: mindgm=1; mindgv=20; mindgc=4; mindgr=1; noblas=0; minvec=7
 default implementation of scratch files=df  


 Variables initialized (1032), CPU time= 0.01 sec
 
 symmetry,nosym
 
 
 geometry={
            8
     N         -0.17184112     -0.55707404      0.30027257
     N          1.20115329     -0.58382423     -0.10374620
     N         -0.75671527      0.76298616      0.15935504
     H         -1.28142531      0.84592998     -0.71555242
     H         -1.41634923      0.87959036      0.92732319
     H          1.34067837      0.03520591     -0.91080201
     H          1.72995729     -0.17035158      0.66351983
     H         -0.64545801     -1.21246256     -0.32036999
 }
 basis=cc-pVDZ
 
 
 
 hf; mp3
 
 
 
 {put,xml;noorbitals,nobasis}
 Commands initialized (841), CPU time= 0.00 sec, 704 directives.
 Default parameters read. Elapsed time= 0.24 sec

 Checking input...
 Passed
1


                                         ***  PROGRAM SYSTEM MOLPRO  ***
                                       Copyright, TTI GmbH Stuttgart, 2015
                                    Version 2023.1 linked Tue Jun  6 09:54:11 2023


 **********************************************************************************************************************************
 LABEL *                                                                                                                                                                 
  64 bit serial version                                                                  DATE: 12-Jun-23          TIME: 23:49:44  
 **********************************************************************************************************************************

 SHA1:             8ebb0dd001088a5c915591db1a321413035db0b1
 **********************************************************************************************************************************

 Memory per process:       393 MW
 Total memory per node:    524 MW
 Total GA space:           131 MW

 GA preallocation disabled
 GA check enabled

 Variable memory set to 393.2 MW

 ZSYMEL=NOSYM


 Geometry recognized as XYZ

 SETTING BASIS          =    CC-PVDZ


 Recomputing integrals since basis changed


 Using spherical harmonics

 Library entry N      S cc-pVDZ              selected for orbital group  1
 Library entry N      P cc-pVDZ              selected for orbital group  1
 Library entry N      D cc-pVDZ              selected for orbital group  1
 Library entry H      S cc-pVDZ              selected for orbital group  2
 Library entry H      P cc-pVDZ              selected for orbital group  2


 PROGRAM * SEWARD (Integral evaluation for generally contracted gaussian basis sets)     Author: Roland Lindh, 1990

 Geometry written to block  1 of record 700


 Point group  C1  



 ATOMIC COORDINATES

 NR  ATOM    CHARGE       X              Y              Z

   1  N       7.00   -0.324732654   -1.052717367    0.567432920
   2  N       7.00    2.269850752   -1.103267900   -0.196051904
   3  N       7.00   -1.429984615    1.441834879    0.301137382
   4  H       1.00   -2.421542885    1.598575983   -1.352198102
   5  H       1.00   -2.676512142    1.662184882    1.752386858
   6  H       1.00    2.533514941    0.066529528   -1.721166353
   7  H       1.00    3.269145485   -0.321917831    1.253870757
   8  H       1.00   -1.219738864   -2.291222175   -0.605411540

 Bond lengths in Bohr (Angstrom)

 1-2  2.705055911  1-3  2.741402218  1-8  1.926264365  2-6  1.940082190  2-7  1.926492569
     ( 1.431453942)     ( 1.450687579)     ( 1.019335204)     ( 1.026647282)     ( 1.019455964)

 3-4  1.934237265  3-5  1.925749215
     ( 1.023554281)     ( 1.019062599)

 Bond angles

  1-2-6  109.93535004   1-2-7  106.11259225   1-3-4  111.31216286   1-3-5  106.97090458

  2-1-3  112.10425868   2-1-8  105.17647685   3-1-8  109.79103677   4-3-5  107.64156507

  6-2-7  106.05724365

 NUCLEAR CHARGE:                   26
 NUMBER OF PRIMITIVE AOS:         116
 NUMBER OF SYMMETRY AOS:          113
 NUMBER OF CONTRACTIONS:           67   (   67A   )
 NUMBER OF INNER CORE ORBITALS:     0   (    0A   )
 NUMBER OF OUTER CORE ORBITALS:     3   (    3A   )
 NUMBER OF VALENCE ORBITALS:       17   (   17A   )


 NUCLEAR REPULSION ENERGY   83.49322499

 Eigenvalues of metric

         1 0.540E-02 0.956E-02 0.208E-01 0.318E-01 0.370E-01 0.386E-01 0.407E-01 0.440E-01


 Contracted 2-electron integrals neglected if value below      1.0D-11
 AO integral compression algorithm  1   Integral accuracy      1.0D-11

     13.369 MB (compressed) written to integral file ( 56.0%)


 NUMBER OF SORTED TWO-ELECTRON INTEGRALS:    2595781.     BUFFER LENGTH:  32768
 NUMBER OF SEGMENTS:   1  SEGMENT LENGTH:    2595781      RECORD LENGTH: 524288

 Memory used in sort:       3.15 MW

 SORT1 READ     2997588. AND WROTE     2579892. INTEGRALS IN      8 RECORDS. CPU TIME:     0.02 SEC, REAL TIME:     0.02 SEC
 SORT2 READ     2579892. AND WROTE     2595781. INTEGRALS IN     51 RECORDS. CPU TIME:     0.04 SEC, REAL TIME:     0.05 SEC

 FILE SIZES:   FILE 1:    43.6 MBYTE,  FILE 4:    33.6 MBYTE,   TOTAL:     77.3 MBYTE

 OPERATOR DM      FOR CENTER  0  COORDINATES:    0.000000    0.000000    0.000000


 **********************************************************************************************************************************
 DATASETS  * FILE   NREC   LENGTH (MB)   RECORD NAMES
              1      19       39.81       500      610      700      900      950      970     1000      129      960     1100   
                                          VAR    BASINP    GEOM    SYMINP    ZMAT    AOBASIS   BASIS     P2S    ABASIS      S 
                                         1400     1410     1200     1210     1080     1600     1650     1300     1700   
                                           T        V       H0       H01     AOSYM     SMH    MOLCAS    ERIS     OPER   

 PROGRAMS   *        TOTAL       INT
 CPU TIMES  *         0.35      0.26
 REAL TIME  *         1.69 SEC
 DISK USED  *        74.13 MB
 **********************************************************************************************************************************


 Program * Restricted Hartree-Fock

 Orbital guess generated from atomic densities. Full valence occupancy:   20

 Initial occupancy:  13

 NELEC=   26   SYM=1   MS2= 0   THRE=1.0D-08   THRD=3.2D-06   THRG=3.2D-06  HFMA2=F  DIIS_START=2   DIIS_MAX=10   DIIS_INCORE=F

 Level shifts:    0.00 (CLOSED)    0.00 (OPEN)    0.30 (GAP_MIN)

 ITER           ETOT              DE          GRAD        DDIFF     DIIS  NEXP   TIME(IT)  TIME(TOT)  DIAG
   1     -166.14941606    -166.14941606     0.00D+00     0.14D+00     0     0       0.01      0.02    start
   2     -166.18472926      -0.03531319     0.70D-02     0.14D-01     1     0       0.01      0.03    diag
   3     -166.18762105      -0.00289179     0.21D-02     0.39D-02     2     0       0.01      0.04    diag
   4     -166.18811515      -0.00049410     0.79D-03     0.14D-02     3     0       0.02      0.06    diag
   5     -166.18815376      -0.00003861     0.19D-03     0.39D-03     4     0       0.01      0.07    diag
   6     -166.18815708      -0.00000331     0.44D-04     0.11D-03     5     0       0.01      0.08    diag
   7     -166.18815758      -0.00000050     0.17D-04     0.44D-04     6     0       0.01      0.09    diag
   8     -166.18815763      -0.00000005     0.48D-05     0.16D-04     7     0       0.01      0.10    fixocc
   9     -166.18815763      -0.00000000     0.12D-05     0.35D-05     8     0       0.01      0.11    diag
  10     -166.18815763      -0.00000000     0.25D-06     0.72D-06     9     0       0.02      0.13    diag/orth
  11     -166.18815763      -0.00000000     0.95D-07     0.21D-06     0     0       0.01      0.14    diag

 Final occupancy:  13

 !RHF STATE 1.1 Energy               -166.188157632824
  RHF One-electron energy            -391.530318640586
  RHF Two-electron energy             141.848936018543
  RHF Kinetic energy                  165.880005851925
  RHF Nuclear energy                   83.493224989220
  RHF Virial quotient                  -1.001857678864

 !RHF STATE 1.1 Dipole moment          -0.57349843     0.34540157    -0.44366307
 Dipole moment /Debye                  -1.45768761     0.87792322    -1.12767904

 Orbital energies:

           1.1          2.1          3.1          4.1          5.1          6.1          7.1          8.1          9.1         10.1
    -15.598910   -15.572739   -15.564392    -1.296071    -1.129553    -0.944188    -0.696632    -0.650756    -0.630972    -0.602615

          11.1         12.1         13.1         14.1         15.1
     -0.425295    -0.408008    -0.396094     0.179868     0.220177


 HOMO     13.1    -0.396094 =     -10.7783eV
 LUMO     14.1     0.179868 =       4.8945eV
 LUMO-HOMO         0.575962 =      15.6727eV

 Orbitals saved in record  2100.2


 **********************************************************************************************************************************
 DATASETS  * FILE   NREC   LENGTH (MB)   RECORD NAMES
              1      19       39.81       500      610      700      900      950      970     1000      129      960     1100   
                                          VAR    BASINP    GEOM    SYMINP    ZMAT    AOBASIS   BASIS     P2S    ABASIS      S 
                                         1400     1410     1200     1210     1080     1600     1650     1300     1700   
                                           T        V       H0       H01     AOSYM     SMH    MOLCAS    ERIS     OPER   

              2       4        0.57       700     1000      520     2100   
                                         GEOM     BASIS   MCVARS     RHF  

 PROGRAMS   *        TOTAL    HF-SCF       INT
 CPU TIMES  *         0.49      0.14      0.26
 REAL TIME  *         2.11 SEC
 DISK USED  *        74.13 MB
 **********************************************************************************************************************************


 PROGRAM * MP3 (Closed-shell)     Authors: C. Hampel, H.-J. Werner, 1991, M. Deegan, P.J. Knowles, 1992


 Convergence thresholds:  THRVAR = 1.00D-08  THRDEN = 1.00D-06

 Number of core orbitals:           3 (   3 )
 Number of closed-shell orbitals:  10 (  10 )
 Number of external orbitals:      54 (  54 )

 Molecular orbitals read from record     2100.2  Type=RHF/CANONICAL  

 Number of N-1 electron functions:              10
 Number of N-2 electron functions:              55
 Number of singly external CSFs:               540
 Number of doubly external CSFs:            146070
 Total number of CSFs:                      146611

 Length of J-op  integral file:               0.00 MB
 Length of K-op  integral file:               0.37 MB

 Integral transformation finished. Total CPU:   0.03 sec, npass=  1  Memory used:   0.55 MW

 Reference energy:                   -166.18815763

                        CORR.ENERGY   TOTAL ENERGY   ENERGY CHANGE
 MP2:                   -0.51964071  -166.70779835    -0.51964071

 SCS-MP2 correlation energy:           -0.51235749   (PS=  1.200000  PT=  0.333333)
 SCS-MP2 total energy:               -166.70051512

 MP3(D):                -0.54558038  -166.73373801    -0.02593966



 RESULTS
 =======

  Reference energy                   -166.188157632824
  MP3 singlet pair energy              -0.366107392796
  MP3 triplet pair energy              -0.179472982467
  MP3 correlation energy               -0.545580375263

 !MP3 total energy                   -166.733738008087

 Timing summary (sec):

 STEP                 CPU(USER)    SYS     CPU(TOT)    WALL
 Transformation          0.04      0.01      0.05      0.13
 CCSD iterations         0.77      0.02      0.79      0.43

 Program statistics:

 Available memory in ccsd:               393215587
 Min. memory needed in ccsd:                450951
 Max. memory used in ccsd:                  566981
 Max. memory used in cckext:                565726 ( 1 integral passes)



 **********************************************************************************************************************************
 DATASETS  * FILE   NREC   LENGTH (MB)   RECORD NAMES
              1      20       42.72       500      610      700      900      950      970     1000      129      960     1100   
                                          VAR    BASINP    GEOM    SYMINP    ZMAT    AOBASIS   BASIS     P2S    ABASIS      S 
                                         1400     1410     1200     1210     1080     1600     1650     1300     1700     1380   
                                           T        V       H0       H01     AOSYM     SMH    MOLCAS    ERIS     OPER     JKOP   

              2       4        0.57       700     1000      520     2100   
                                         GEOM     BASIS   MCVARS     RHF  

 PROGRAMS   *        TOTAL       MP3    HF-SCF       INT
 CPU TIMES  *         0.74      0.25      0.14      0.26
 REAL TIME  *         2.78 SEC
 DISK USED  *        74.13 MB
 **********************************************************************************************************************************

 Dump information in style XML to xml output                                                                      

 Orbitals will not be exported.

 **********************************************************************************************************************************

 MP3/cc-pVDZ energy=   -166.733738008087

             MP3          HF-SCF
   -166.73373801   -166.18815763
 **********************************************************************************************************************************
 Molpro calculation terminated
