
 Working directory              : /var/folders/2v/xbgp75_9785319ghcgb4zr4r0000gp/T//molpro.ZJozDMt5R0/
 Global scratch directory       : /var/folders/2v/xbgp75_9785319ghcgb4zr4r0000gp/T//molpro.ZJozDMt5R0/
 Wavefunction directory         : /Users/sacpjk/wfu/
 Main file repository           : /var/folders/2v/xbgp75_9785319ghcgb4zr4r0000gp/T//molpro.ZJozDMt5R0/

 id        : peterk

 Nodes                        nprocs
 Cardiff-University-G34YLXT77Y    1
 GA implementation: MPI file
 GA implementation (serial work in mppx): MPI file

 Using customized tuning parameters: mindgm=1; mindgv=20; mindgc=4; mindgr=1; noblas=0; minvec=7
 default implementation of scratch files=df  


 Variables initialized (1032), CPU time= 0.00 sec
 
 symmetry,nosym
 
 
 geometry={
            3
     N          0.00000000      0.00000000     -1.14542900
     N          0.00000000      0.00000000     -0.01934100
     O          0.00000000      0.00000000      1.16477000
 }
 basis=cc-pVTZ
 
 
 
 hf; ccsd
 
 
 
 {put,xml;noorbitals,nobasis}
 Commands initialized (841), CPU time= 0.00 sec, 704 directives.
 Default parameters read. Elapsed time= 0.07 sec

 Checking input...
 Passed
1


                                         ***  PROGRAM SYSTEM MOLPRO  ***
                                       Copyright, TTI GmbH Stuttgart, 2015
                                    Version 2023.1 linked Tue Jun  6 09:54:11 2023


 **********************************************************************************************************************************
 LABEL *                                                                                                                                                                 
  64 bit serial version                                                                  DATE: 11-Jun-23          TIME: 07:35:24  
 **********************************************************************************************************************************

 SHA1:             8ebb0dd001088a5c915591db1a321413035db0b1
 **********************************************************************************************************************************

 Memory per process:       393 MW
 Total memory per node:    524 MW
 Total GA space:           131 MW

 GA preallocation disabled
 GA check enabled

 Variable memory set to 393.2 MW

 ZSYMEL=NOSYM


 Geometry recognized as XYZ

 SETTING BASIS          =    CC-PVTZ


 Recomputing integrals since basis changed


 Using spherical harmonics

 Library entry N      S cc-pVTZ              selected for orbital group  1
 Library entry N      P cc-pVTZ              selected for orbital group  1
 Library entry N      D cc-pVTZ              selected for orbital group  1
 Library entry N      F cc-pVTZ              selected for orbital group  1
 Library entry O      S cc-pVTZ              selected for orbital group  2
 Library entry O      P cc-pVTZ              selected for orbital group  2
 Library entry O      D cc-pVTZ              selected for orbital group  2
 Library entry O      F cc-pVTZ              selected for orbital group  2


 PROGRAM * SEWARD (Integral evaluation for generally contracted gaussian basis sets)     Author: Roland Lindh, 1990

 Geometry written to block  1 of record 700


 Point group  C1  



 ATOMIC COORDINATES

 NR  ATOM    CHARGE       X              Y              Z

   1  N       7.00    0.000000000    0.000000000   -2.164547105
   2  N       7.00    0.000000000    0.000000000   -0.036549193
   3  O       8.00    0.000000000    0.000000000    2.201096298

 Bond lengths in Bohr (Angstrom)

 1-2  2.127997912  2-3  2.237645491
     ( 1.126088000)     ( 1.184111000)

 Bond angles

  1-2-3  180.00000000

 NUCLEAR CHARGE:                   22
 NUMBER OF PRIMITIVE AOS:         141
 NUMBER OF SYMMETRY AOS:          126
 NUMBER OF CONTRACTIONS:           90   (   90A   )
 NUMBER OF INNER CORE ORBITALS:     0   (    0A   )
 NUMBER OF OUTER CORE ORBITALS:     3   (    3A   )
 NUMBER OF VALENCE ORBITALS:       12   (   12A   )


 NUCLEAR REPULSION ENERGY   60.88007743

 EXTRA SYMMETRY OF AOS IN SYMMETRY 1:   1 1 1 1 2 3 1 2 3 1   2 3 1 1 4 2 5 3 1 4   2 5 3 2 3 1 6 4 7 5   1 1 1 1 2 3 1 2 3 1
                                        2 3 1 1 4 2 5 3 1 4   2 5 3 2 3 1 6 4 7 5   1 1 1 1 2 3 1 2 3 1   2 3 1 1 4 2 5 3 1 4
                                        2 5 3 2 3 1 6 4 7 5

 Eigenvalues of metric

         1 0.710E-03 0.163E-02 0.247E-02 0.361E-02 0.107E-01 0.207E-01 0.207E-01 0.286E-01


 Contracted 2-electron integrals neglected if value below      1.0D-11
 AO integral compression algorithm  1   Integral accuracy      1.0D-11

     12.583 MB (compressed) written to integral file ( 14.5%)


 NUMBER OF SORTED TWO-ELECTRON INTEGRALS:    8386560.     BUFFER LENGTH:  32768
 NUMBER OF SEGMENTS:   1  SEGMENT LENGTH:    8386560      RECORD LENGTH: 524288

 Memory used in sort:       8.94 MW

 SORT1 READ    10601556. AND WROTE     1754098. INTEGRALS IN      6 RECORDS. CPU TIME:     0.04 SEC, REAL TIME:     0.09 SEC
 SORT2 READ     1754098. AND WROTE     8386560. INTEGRALS IN     48 RECORDS. CPU TIME:     0.09 SEC, REAL TIME:     0.11 SEC

 FILE SIZES:   FILE 1:    42.9 MBYTE,  FILE 4:    25.2 MBYTE,   TOTAL:     68.1 MBYTE

 OPERATOR DM      FOR CENTER  0  COORDINATES:    0.000000    0.000000    0.000000


 **********************************************************************************************************************************
 DATASETS  * FILE   NREC   LENGTH (MB)   RECORD NAMES
              1      19       37.60       500      610      700      900      950      970     1000      129      960     1100   
                                          VAR    BASINP    GEOM    SYMINP    ZMAT    AOBASIS   BASIS     P2S    ABASIS      S 
                                         1400     1410     1200     1210     1080     1600     1650     1300     1700   
                                           T        V       H0       H01     AOSYM     SMH    MOLCAS    ERIS     OPER   

 PROGRAMS   *        TOTAL       INT
 CPU TIMES  *         0.54      0.45
 REAL TIME  *         0.95 SEC
 DISK USED  *        65.35 MB
 **********************************************************************************************************************************


 Program * Restricted Hartree-Fock

 Orbital guess generated from atomic densities. Full valence occupancy:   15

 Initial occupancy:  11

 NELEC=   22   SYM=1   MS2= 0   THRE=1.0D-08   THRD=3.2D-06   THRG=3.2D-06  HFMA2=F  DIIS_START=2   DIIS_MAX=10   DIIS_INCORE=F

 Level shifts:    0.00 (CLOSED)    0.00 (OPEN)    0.30 (GAP_MIN)

 ITER           ETOT              DE          GRAD        DDIFF     DIIS  NEXP   TIME(IT)  TIME(TOT)  DIAG
   1     -183.65349266    -183.65349266     0.00D+00     0.93D-01     0     0       0.04      0.07    start
   2     -183.69771002      -0.04421736     0.12D-01     0.16D-01     1     0       0.04      0.11    diag
   3     -183.74875544      -0.05104542     0.95D-02     0.82D-02     2     0       0.03      0.14    diag
   4     -183.74948470      -0.00072926     0.93D-03     0.13D-02     3     0       0.04      0.18    diag
   5     -183.74970021      -0.00021551     0.53D-03     0.62D-03     4     0       0.03      0.21    diag
   6     -183.74975803      -0.00005782     0.20D-03     0.31D-03     5     0       0.04      0.25    diag
   7     -183.74976651      -0.00000849     0.75D-04     0.14D-03     6     0       0.04      0.29    diag
   8     -183.74976689      -0.00000037     0.17D-04     0.29D-04     7     0       0.03      0.32    fixocc
   9     -183.74976689      -0.00000001     0.27D-05     0.49D-05     8     0       0.04      0.36    diag
  10     -183.74976689      -0.00000000     0.16D-06     0.28D-06     9     0       0.04      0.40    diag/orth
  11     -183.74976689      -0.00000000     0.34D-07     0.53D-07     0     0       0.03      0.43    diag

 Final occupancy:  11

 !RHF STATE 1.1 Energy               -183.749766894202
  RHF One-electron energy            -370.741840474909
  RHF Two-electron energy             126.111996150463
  RHF Kinetic energy                  183.365706619623
  RHF Nuclear energy                   60.880077430243
  RHF Virial quotient                  -1.002094504374

 !RHF STATE 1.1 Dipole moment          -0.00000000    -0.00000000    -0.23785526
 Dipole moment /Debye                  -0.00000000    -0.00000000    -0.60456778

 Orbital energies:

           1.1          2.1          3.1          4.1          5.1          6.1          7.1          8.1          9.1         10.1
    -20.653722   -15.843451   -15.695786    -1.612382    -1.422907    -0.831141    -0.761768    -0.761768    -0.696766    -0.489616

          11.1         12.1         13.1
     -0.489616     0.155361     0.155361


 HOMO     11.1    -0.489616 =     -13.3231eV
 LUMO     12.1     0.155361 =       4.2276eV
 LUMO-HOMO         0.644978 =      17.5507eV

 Orbitals saved in record  2100.2


 **********************************************************************************************************************************
 DATASETS  * FILE   NREC   LENGTH (MB)   RECORD NAMES
              1      19       37.60       500      610      700      900      950      970     1000      129      960     1100   
                                          VAR    BASINP    GEOM    SYMINP    ZMAT    AOBASIS   BASIS     P2S    ABASIS      S 
                                         1400     1410     1200     1210     1080     1600     1650     1300     1700   
                                           T        V       H0       H01     AOSYM     SMH    MOLCAS    ERIS     OPER   

              2       4        0.54       700     1000      520     2100   
                                         GEOM     BASIS   MCVARS     RHF  

 PROGRAMS   *        TOTAL    HF-SCF       INT
 CPU TIMES  *         0.97      0.43      0.45
 REAL TIME  *         1.63 SEC
 DISK USED  *        65.35 MB
 **********************************************************************************************************************************


 PROGRAM * CCSD (Closed-shell coupled cluster)     Authors: C. Hampel, H.-J. Werner, 1991, M. Deegan, P.J. Knowles, 1992


 Convergence thresholds:  THRVAR = 1.00D-08  THRDEN = 1.00D-06

 Number of core orbitals:           3 (   3 )
 Number of closed-shell orbitals:   8 (   8 )
 Number of external orbitals:      79 (  79 )

 Molecular orbitals read from record     2100.2  Type=RHF/CANONICAL  

 Number of N-1 electron functions:               8
 Number of N-2 electron functions:              36
 Number of singly external CSFs:               632
 Number of doubly external CSFs:            200028
 Total number of CSFs:                      200661

 Length of J-op  integral file:               0.00 MB
 Length of K-op  integral file:               0.62 MB
 Length of 3-ext integral record:             0.00 MB

 Integral transformation finished. Total CPU:   0.23 sec, npass=  1  Memory used:   4.00 MW

 Reference energy:                   -183.74976689

 MP2 singlet pair energy:              -0.38115796
 MP2 triplet pair energy:              -0.26124910
 MP2 correlation energy:               -0.64240706
 MP2 total energy:                   -184.39217396

 SCS-MP2 correlation energy:           -0.61994455   (PS=  1.200000  PT=  0.333333)
 SCS-MP2 total energy:               -184.36971144

 ITER.      SQ.NORM     CORR.ENERGY   TOTAL ENERGY   ENERGY CHANGE        DEN1      VAR(S)    VAR(P)  DIIS     TIME  TIME/IT
   1      1.16455785    -0.62690130  -184.37666819     0.01550577     0.04706747  0.87D-02  0.83D-02  1  1     1.60     0.39
   2      1.17923649    -0.62198770  -184.37175460     0.00491359    -0.02156500  0.17D-03  0.69D-03  2  2     1.89     0.41
   3      1.18591573    -0.62232684  -184.37209373    -0.00033914    -0.00306181  0.25D-03  0.68D-04  3  3     2.20     0.46
   4      1.18913259    -0.62205322  -184.37182012     0.00027361    -0.00134576  0.21D-04  0.13D-04  4  4     2.45     0.44
   5      1.19118503    -0.62204152  -184.37180841     0.00001171    -0.00060124  0.34D-05  0.11D-05  5  5     2.73     0.43
   6      1.19161495    -0.62200551  -184.37177240     0.00003601    -0.00007624  0.29D-06  0.15D-06  6  6     3.01     0.43
   7      1.19171498    -0.62199691  -184.37176381     0.00000859     0.00000165  0.52D-07  0.24D-07  6  1     3.28     0.43
   8      1.19174475    -0.62199366  -184.37176056     0.00000325    -0.00001020  0.27D-08  0.35D-08  6  2     3.57     0.43
   9      1.19174198    -0.62199322  -184.37176012     0.00000044     0.00000613  0.25D-09  0.52D-09  6  4     3.86     0.44
  10      1.19174562    -0.62199278  -184.37175968     0.00000044    -0.00000179  0.22D-10  0.78D-10  6  3     4.12     0.44

 Norm of t1 vector:      0.11204816      S-energy:     0.00000021      T1 diagnostic:  0.01980750
                                                                       D1 diagnostic:  0.04732859
                                                                       D2 diagnostic:  0.17983940 (external, symmetry=1)


 RESULTS
 =======

  Reference energy                   -183.749766894202
  CCSD singlet pair energy             -0.404869334954
  CCSD triplet pair energy             -0.217123656947
  CCSD correlation energy              -0.621992783548

 !CCSD total energy                  -184.371759677751

 Timing summary (sec):

 STEP                 CPU(USER)    SYS     CPU(TOT)    WALL
 Transformation          0.24      0.04      0.28      0.42
 CCSD iterations         3.90      0.16      4.06      4.38

 Program statistics:

 Available memory in ccsd:               393215733
 Min. memory needed in ccsd:                631352
 Max. memory used in ccsd:                  791860
 Max. memory used in cckext:                667190 (10 integral passes)



 **********************************************************************************************************************************
 DATASETS  * FILE   NREC   LENGTH (MB)   RECORD NAMES
              1      20       56.31       500      610      700      900      950      970     1000      129      960     1100   
                                          VAR    BASINP    GEOM    SYMINP    ZMAT    AOBASIS   BASIS     P2S    ABASIS      S 
                                         1400     1410     1200     1210     1080     1600     1650     1300     1700     1380   
                                           T        V       H0       H01     AOSYM     SMH    MOLCAS    ERIS     OPER     JKOP   

              2       4        0.54       700     1000      520     2100   
                                         GEOM     BASIS   MCVARS     RHF  

 PROGRAMS   *        TOTAL      CCSD    HF-SCF       INT
 CPU TIMES  *         4.03      3.06      0.43      0.45
 REAL TIME  *         6.49 SEC
 DISK USED  *        91.65 MB
 **********************************************************************************************************************************

 Dump information in style XML to xml output                                                                      

 Orbitals will not be exported.

 **********************************************************************************************************************************

 CCSD/cc-pVTZ energy=   -184.371759677751

            CCSD          HF-SCF
   -184.37175968   -183.74976689
 **********************************************************************************************************************************
 Molpro calculation terminated
