
 Working directory              : /var/folders/2v/xbgp75_9785319ghcgb4zr4r0000gp/T//molpro.SB2HwFMB1I/
 Global scratch directory       : /var/folders/2v/xbgp75_9785319ghcgb4zr4r0000gp/T//molpro.SB2HwFMB1I/
 Wavefunction directory         : /Users/sacpjk/wfu/
 Main file repository           : /var/folders/2v/xbgp75_9785319ghcgb4zr4r0000gp/T//molpro.SB2HwFMB1I/

 id        : peterk

 Nodes                        nprocs
 Cardiff-University-G34YLXT77Y    1
 GA implementation: MPI file
 GA implementation (serial work in mppx): MPI file

 Using customized tuning parameters: mindgm=1; mindgv=20; mindgc=4; mindgr=1; noblas=0; minvec=7
 default implementation of scratch files=df  


 Variables initialized (1032), CPU time= 0.00 sec
 
 symmetry,nosym
 
 
 geometry={
 12
  o         -1.527646102080    0.457973387505   -0.213561759716
  h         -0.583413802253    0.434177050244   -0.417697389935
  c         -2.043576580853   -0.830031984284   -0.478901532009
  h         -3.101456196792   -0.815009593660   -0.230205217635
  h         -1.948121413855   -1.111415060290   -1.530351686713
  h         -1.566346919749   -1.605016966448    0.126350368364
  o          1.318908103188    0.359134027225   -0.506263782018
  h          1.787697413109    0.973518551157   -1.075929735942
  c          1.827742028774    0.516152965156    0.815453542362
  h          1.274172948765   -0.172043461456    1.445584422194
  h          2.886738130918    0.265714066399    0.872176682935
  h          1.675302390722    1.526847018505    1.193346087954
 }
 basis=aug-cc-pVDZ
 
 
 
 hf; hf; papt; mp4
 
 
 
 {put,xml;noorbitals,nobasis}
 Commands initialized (841), CPU time= 0.00 sec, 704 directives.
 Default parameters read. Elapsed time= 0.06 sec

 Checking input...
 Passed
1


                                         ***  PROGRAM SYSTEM MOLPRO  ***
                                       Copyright, TTI GmbH Stuttgart, 2015
                                    Version 2023.1 linked Tue Jun  6 09:54:11 2023


 **********************************************************************************************************************************
 LABEL *                                                                                                                                                                 
  64 bit serial version                                                                  DATE: 08-Jun-23          TIME: 21:55:39  
 **********************************************************************************************************************************

 SHA1:             8ebb0dd001088a5c915591db1a321413035db0b1
 **********************************************************************************************************************************

 Memory per process:       805 MW
 Total memory per node:   1074 MW
 Total GA space:           268 MW

 GA preallocation disabled
 GA check enabled

 Variable memory set to 805.3 MW

 ZSYMEL=NOSYM


 Geometry recognized as XYZ

 SETTING BASIS          =    AUG-CC-PVDZ


 Recomputing integrals since basis changed


 Using spherical harmonics

 Library entry O      S aug-cc-pVDZ          selected for orbital group  1
 Library entry O      P aug-cc-pVDZ          selected for orbital group  1
 Library entry O      D aug-cc-pVDZ          selected for orbital group  1
 Library entry H      S aug-cc-pVDZ          selected for orbital group  2
 Library entry H      P aug-cc-pVDZ          selected for orbital group  2
 Library entry C      S aug-cc-pVDZ          selected for orbital group  3
 Library entry C      P aug-cc-pVDZ          selected for orbital group  3
 Library entry C      D aug-cc-pVDZ          selected for orbital group  3


 PROGRAM * SEWARD (Integral evaluation for generally contracted gaussian basis sets)     Author: Roland Lindh, 1990

 Geometry written to block  1 of record 700


 Point group  C1  



 ATOMIC COORDINATES

 NR  ATOM    CHARGE       X              Y              Z

   1  O       8.00   -2.886832748    0.865444275   -0.403573237
   2  H       1.00   -1.102492304    0.820475715   -0.789333670
   3  C       6.00   -3.861800053   -1.568533125   -0.904992736
   4  H       1.00   -5.860902799   -1.540144921   -0.435024814
   5  H       1.00   -3.681415930   -2.100270075   -2.891945562
   6  H       1.00   -2.959966694   -3.033042492    0.238767592
   7  O       8.00    2.492375099    0.678664953   -0.956699895
   8  H       1.00    3.378258504    1.839683439   -2.033212530
   9  C       6.00    3.453931861    0.975387743    1.540983862
  10  H       1.00    2.407837909   -0.325115024    2.731758648
  11  H       1.00    5.455144461    0.502126813    1.648175063
  12  H       1.00    3.165862694    2.885322699    2.255097278

 Bond lengths in Bohr (Angstrom)

 1-2  1.826117221  1-3  2.669499717  3-4  2.053798318  3-5  2.064767335  3-6  2.065497223
     ( 0.966339618)     ( 1.412638415)     ( 1.086823266)     ( 1.092627820)     ( 1.093014060)

  7- 8  1.814285751   7- 9  2.692779228   9-10  2.050259640   9-11  2.059203179   9-12  2.059318662
       ( 0.960078674)       ( 1.424957402)       ( 1.084950678)       ( 1.089683395)       ( 1.089744506)

 Bond angles

  1-3-4  107.45243548   1-3-5  112.56023933   1-3-6  112.51984284   2-1-3  107.14181272

  4- 3- 5  107.98697641   4- 3- 6  107.94343214   5- 3- 6  108.18798931   7- 9-10  106.65583751

  7- 9-11  111.71494432   7- 9-12  111.95602746   8- 7- 9  107.78761844  10- 9-11  108.65333214

 10- 9-12  108.39236687  11- 9-12  109.33255661

 NUCLEAR CHARGE:                   36
 NUMBER OF PRIMITIVE AOS:         236
 NUMBER OF SYMMETRY AOS:          228
 NUMBER OF CONTRACTIONS:          164   (  164A   )
 NUMBER OF INNER CORE ORBITALS:     0   (    0A   )
 NUMBER OF OUTER CORE ORBITALS:     4   (    4A   )
 NUMBER OF VALENCE ORBITALS:       24   (   24A   )


 NUCLEAR REPULSION ENERGY  129.52156890


 Eigenvalues of metric

         1 0.445E-03 0.495E-03 0.558E-03 0.592E-03 0.690E-03 0.727E-03 0.759E-03 0.838E-03


 Contracted 2-electron integrals neglected if value below      1.0D-11
 AO integral compression algorithm  1   Integral accuracy      1.0D-11

     401.605 MB (compressed) written to integral file ( 48.6%)


 NUMBER OF SORTED TWO-ELECTRON INTEGRALS:   91537215.     BUFFER LENGTH:  32768
 NUMBER OF SEGMENTS:   6  SEGMENT LENGTH:   15999503      RECORD LENGTH: 524288

 Memory used in sort:      16.56 MW

 SORT1 READ   103329167. AND WROTE    88208056. INTEGRALS IN    254 RECORDS. CPU TIME:     0.73 SEC, REAL TIME:     0.99 SEC
 SORT2 READ    88208056. AND WROTE    91537215. INTEGRALS IN   1532 RECORDS. CPU TIME:     0.65 SEC, REAL TIME:     0.85 SEC

 FILE SIZES:   FILE 1:   432.8 MBYTE,  FILE 4:  1065.4 MBYTE,   TOTAL:   1498.2 MBYTE

 OPERATOR DM      FOR CENTER  0  COORDINATES:    0.000000    0.000000    0.000000


 **********************************************************************************************************************************
 DATASETS  * FILE   NREC   LENGTH (MB)   RECORD NAMES
              1      19      373.64       500      610      700      900      950      970     1000      129      960     1100   
                                          VAR    BASINP    GEOM    SYMINP    ZMAT    AOBASIS   BASIS     P2S    ABASIS      S 
                                         1400     1410     1200     1210     1080     1600     1650     1300     1700   
                                           T        V       H0       H01     AOSYM     SMH    MOLCAS    ERIS     OPER   

 PROGRAMS   *        TOTAL       INT
 CPU TIMES  *         3.67      3.58
 REAL TIME  *         4.67 SEC
 DISK USED  *         1.40 GB
 **********************************************************************************************************************************


 Program * Restricted Hartree-Fock

 Orbital guess generated from atomic densities. Full valence occupancy:   28

 Initial occupancy:  18

 NELEC=   36   SYM=1   MS2= 0   THRE=1.0D-08   THRD=3.2D-06   THRG=3.2D-06  HFMA2=F  DIIS_START=2   DIIS_MAX=10   DIIS_INCORE=F

 Level shifts:    0.00 (CLOSED)    0.00 (OPEN)    0.30 (GAP_MIN)

 ITER           ETOT              DE          GRAD        DDIFF     DIIS  NEXP   TIME(IT)  TIME(TOT)  DIAG
   1     -230.06550549    -230.06550549     0.00D+00     0.69D-01     0     0       0.43      0.83    start
   2     -230.11707641      -0.05157092     0.48D-02     0.80D-02     1     0       0.54      1.37    diag
   3     -230.12777461      -0.01069820     0.23D-02     0.25D-02     2     0       0.41      1.78    diag
   4     -230.12878976      -0.00101515     0.56D-03     0.85D-03     3     0       0.41      2.19    diag
   5     -230.12883693      -0.00004717     0.95D-04     0.19D-03     4     0       0.50      2.69    diag
   6     -230.12883914      -0.00000221     0.19D-04     0.44D-04     5     0       0.49      3.18    diag
   7     -230.12883926      -0.00000012     0.59D-05     0.96D-05     6     0       0.44      3.62    diag
   8     -230.12883928      -0.00000002     0.21D-05     0.37D-05     7     0       0.49      4.11    fixocc
   9     -230.12883928      -0.00000000     0.52D-06     0.98D-06     8     0       0.38      4.49    diag
  10     -230.12883928      -0.00000000     0.15D-06     0.25D-06     0     0       0.55      5.04    diag/orth

 Final occupancy:  18

 !RHF STATE 1.1 Energy               -230.128839283686
  RHF One-electron energy            -571.371211156041
  RHF Two-electron energy             211.720802971712
  RHF Kinetic energy                  229.817610799627
  RHF Nuclear energy                  129.521568900643
  RHF Virial quotient                  -1.001354241231

 !RHF STATE 1.1 Dipole moment           1.16111717    -0.03945763     0.01471564
 Dipole moment /Debye                   2.95126547    -0.10029129     0.03740343

 Orbital energies:

           1.1          2.1          3.1          4.1          5.1          6.1          7.1          8.1          9.1         10.1
    -20.592214   -20.538056   -11.291722   -11.259334    -1.385670    -1.335495    -0.944094    -0.906477    -0.717682    -0.674227

          11.1         12.1         13.1         14.1         15.1         16.1         17.1         18.1         19.1         20.1
     -0.635090    -0.610790    -0.598578    -0.572186    -0.526479    -0.485667    -0.466127    -0.424925     0.030535     0.047282


 HOMO     18.1    -0.424925 =     -11.5628eV
 LUMO     19.1     0.030535 =       0.8309eV
 LUMO-HOMO         0.455459 =      12.3937eV

 Orbitals saved in record  2100.2


 **********************************************************************************************************************************
 DATASETS  * FILE   NREC   LENGTH (MB)   RECORD NAMES
              1      19      373.64       500      610      700      900      950      970     1000      129      960     1100   
                                          VAR    BASINP    GEOM    SYMINP    ZMAT    AOBASIS   BASIS     P2S    ABASIS      S 
                                         1400     1410     1200     1210     1080     1600     1650     1300     1700   
                                           T        V       H0       H01     AOSYM     SMH    MOLCAS    ERIS     OPER   

              2       4        0.99       700     1000      520     2100   
                                         GEOM     BASIS   MCVARS     RHF  

 PROGRAMS   *        TOTAL    HF-SCF       INT
 CPU TIMES  *         8.71      5.04      3.58
 REAL TIME  *        10.84 SEC
 DISK USED  *         1.40 GB
 **********************************************************************************************************************************


 Program * Restricted Hartree-Fock

 Molecular orbitals read from record     2100.2  Type=RHF/CANONICAL  

 Initial occupancy:  18

 NELEC=   36   SYM=1   MS2= 0   THRE=1.0D-08   THRD=3.2D-06   THRG=3.2D-06  HFMA2=F  DIIS_START=2   DIIS_MAX=10   DIIS_INCORE=F

 Level shifts:    0.00 (CLOSED)    0.00 (OPEN)    0.30 (GAP_MIN)

 ITER           ETOT              DE          GRAD        DDIFF     DIIS  NEXP   TIME(IT)  TIME(TOT)  DIAG
   1     -230.12883928    -230.12883928     0.00D+00     0.71D-01     0     0       0.40      0.40    start
   2     -230.12883928      -0.00000000     0.68D-07     0.11D-06     1     0       0.49      0.89    diag

 Final occupancy:  18

 !RHF STATE 1.1 Energy               -230.128839283708
  RHF One-electron energy            -571.371208517511
  RHF Two-electron energy             211.720800333161
  RHF Kinetic energy                  229.817610596816
  RHF Nuclear energy                  129.521568900643
  RHF Virial quotient                  -1.001354242114

 !RHF STATE 1.1 Dipole moment           1.16111383    -0.03946241     0.01471572
 Dipole moment /Debye                   2.95125698    -0.10030343     0.03740362

 Orbital energies:

           1.1          2.1          3.1          4.1          5.1          6.1          7.1          8.1          9.1         10.1
    -20.592209   -20.538061   -11.291716   -11.259337    -1.385667    -1.335497    -0.944091    -0.906478    -0.717680    -0.674227

          11.1         12.1         13.1         14.1         15.1         16.1         17.1         18.1         19.1         20.1
     -0.635088    -0.610788    -0.598579    -0.572188    -0.526477    -0.485667    -0.466126    -0.424926     0.030535     0.047282


 HOMO     18.1    -0.424926 =     -11.5628eV
 LUMO     19.1     0.030535 =       0.8309eV
 LUMO-HOMO         0.455461 =      12.3937eV

 Orbitals saved in record  2101.2


 **********************************************************************************************************************************
 DATASETS  * FILE   NREC   LENGTH (MB)   RECORD NAMES
              1      19      373.64       500      610      700      900      950      970     1000      129      960     1100   
                                          VAR    BASINP    GEOM    SYMINP    ZMAT    AOBASIS   BASIS     P2S    ABASIS      S 
                                         1400     1410     1200     1210     1080     1600     1650     1300     1700   
                                           T        V       H0       H01     AOSYM     SMH    MOLCAS    ERIS     OPER   

              2       5        1.81       700     1000      520     2100     2101   
                                         GEOM     BASIS   MCVARS     RHF      RHF  

 PROGRAMS   *        TOTAL    HF-SCF    HF-SCF       INT
 CPU TIMES  *         9.62      0.90      5.04      3.58
 REAL TIME  *        11.95 SEC
 DISK USED  *         1.40 GB
 **********************************************************************************************************************************


 PROGRAM * PAPT (Closed-shell)     Authors: C. Hampel, H.-J. Werner, 1991, P.J. Knowles, 2021


 Convergence thresholds:  THRVAR = 1.00D-08  THRDEN = 1.00D-06

 Number of core orbitals:           4 (   4 )
 Number of closed-shell orbitals:  14 (  14 )
 Number of external orbitals:     146 ( 146 )

 Molecular orbitals read from record     2101.2  Type=RHF/CANONICAL  

 Number of N-1 electron functions:              14
 Number of N-2 electron functions:             105
 Number of singly external CSFs:              2044
 Number of doubly external CSFs:           2089990
 Total number of CSFs:                     2092035

 Length of J-op  integral file:               0.00 MB
 Length of K-op  integral file:               1.91 MB

 Integral transformation finished. Total CPU:   1.20 sec, npass=  1  Memory used:   5.24 MW

 Reference energy:                   -230.12883928

                        CORR.ENERGY   TOTAL ENERGY   ENERGY CHANGE
 MP2:                   -0.72411851  -230.85295780    -0.72411851

 SCS-MP2 correlation energy:           -0.71809468   (PS=  1.200000  PT=  0.333333)
 SCS-MP2 total energy:               -230.84693396
 Iteration:   1     0.2094D+00
 Iteration:   2     0.3521D+00
 Iteration:   3     0.7964D-01
 Iteration:   4     0.3732D-01
 Iteration:   5     0.2901D+00
 Iteration:   6     0.1473D-01
 Iteration:   7     0.2081D-01
 Iteration:   8     0.8507D-02
 Iteration:   9     0.3576D-02
 Iteration:  10     0.1640D-01
 Iteration:  11     0.2215D-02
 Iteration:  12     0.7435D-02
 Iteration:  13     0.1682D-02
 Iteration:  14     0.4488D-02
 Iteration:  15     0.1023D-02
 Iteration:  16     0.2362D-02
 Iteration:  17     0.4610D-03
 Iteration:  18     0.3500D-03
 Iteration:  19     0.6007D-03
 Iteration:  20     0.1302D-03
 Iteration:  21     0.4276D-03
 Iteration:  22     0.1013D-03
 Iteration:  23     0.5966D-04
 PAPT operator written to  7000.1
 PAPT orbitals and eigenvalues written to  7000.2

 MP3(D):                -0.75956971  -230.88840900    -0.03545120



 RESULTS
 =======

  Reference energy                   -230.128839283707
  MP3 singlet pair energy              -0.515157343368
  MP3 triplet pair energy              -0.244412368172
  MP3 correlation energy               -0.759569711540

 !MP3 total energy                   -230.888408995247

 Timing summary (sec):

 STEP                 CPU(USER)    SYS     CPU(TOT)    WALL
 Transformation          1.28      0.11      1.39      1.58
 CCSD iterations        21.95      0.27     22.22     13.20

 Program statistics:

 Available memory in ccsd:               805305566
 Min. memory needed in ccsd:               5396407
 Max. memory used in ccsd:                 7260087
 Max. memory used in cckext:               5937584 ( 1 integral passes)



 **********************************************************************************************************************************
 DATASETS  * FILE   NREC   LENGTH (MB)   RECORD NAMES
              1      21      406.55       500      610      700      900      950      970     1000      129      960     1100   
                                          VAR    BASINP    GEOM    SYMINP    ZMAT    AOBASIS   BASIS     P2S    ABASIS      S 
                                         1400     1410     1200     1210     1080     1600     1650     1300     1700     1380   
                                           T        V       H0       H01     AOSYM     SMH    MOLCAS    ERIS     OPER     JKOP   
                                         7000   
                                        PAPT AO    

              2       6        2.53       700     1000      520     2100     2101     7000   
                                         GEOM     BASIS   MCVARS     RHF      RHF     PAPT   

 PROGRAMS   *        TOTAL      PAPT    HF-SCF    HF-SCF       INT
 CPU TIMES  *        23.14     13.52      0.90      5.04      3.58
 REAL TIME  *        26.79 SEC
 DISK USED  *         1.40 GB
 **********************************************************************************************************************************


 PROGRAM * MP4 (Closed-shell)     Authors: C. Hampel, H.-J. Werner, 1991, M. Deegan, P.J. Knowles, 1992


 Convergence thresholds:  THRVAR = 1.00D-08  THRDEN = 1.00D-06

 MP4(T)     terms to be evaluated (factor= 0.000)


 Number of core orbitals:           4 (   4 )
 Number of closed-shell orbitals:  14 (  14 )
 Number of external orbitals:     146 ( 146 )

 Molecular orbitals read from record     7000.2  Type=PAPT/CANONICAL (state 1.1)

 Number of N-1 electron functions:              14
 Number of N-2 electron functions:             105
 Number of singly external CSFs:              2044
 Number of doubly external CSFs:           2089990
 Total number of CSFs:                     2092035

 Length of J-op  integral file:               0.00 MB
 Length of K-op  integral file:               1.91 MB

 Memory could be reduced to 56.77 Mwords without degradation in triples

 Integral transformation finished. Total CPU:   2.86 sec, npass=  1  Memory used:  38.53 MW
 Orbital energies read from record       7000.2  Type=PAPT/CANONICAL (state 1.1)

 Reference energy:                   -230.12883928

                        CORR.ENERGY   TOTAL ENERGY   ENERGY CHANGE
 MP2:                   -0.76824793  -230.89708722    -0.76824793

 SCS-MP2 correlation energy:           -0.76639967   (PS=  1.200000  PT=  0.333333)
 SCS-MP2 total energy:               -230.89523896

 MP3(D):                -0.76865879  -230.89749807    -0.00041086
 MP4(DQ):               -0.76438444  -230.89322372     0.00427435
 MP4(SDQ):              -0.77005720  -230.89889648    -0.00567276

 Norm of t1 vector:      0.06607011      S-energy:    -0.00567276      T1 diagnostic:  0.00882899

 Largest off-diagonal element in interal  block of Fock matrix:  0.10D+00
 Largest off-diagonal element in external block of Fock matrix:  0.16D+00


 Total CPU time for triples:     56.52 sec


 RESULTS
 =======

  Reference energy                   -230.128839283707
  MP4(SDQ) singlet pair energy         -0.519185617551
  MP4(SDQ) triplet pair energy         -0.245198821343
  MP4(SDQ) correlation energy          -0.770057196031

  Triples contribution                 -0.024603137462
  Total correlation energy             -0.794660333492

  MP4(SDQ) total energy              -230.898896479738
 !MP4(SDTQ) total energy             -230.923499617200

 Timing summary (sec):

 STEP                 CPU(USER)    SYS     CPU(TOT)    WALL
 Transformation          3.35      0.29      3.64      3.99
 CCSD iterations        29.29      0.13     29.42      7.01
 Triples                56.52      2.04     58.56     59.21

 Program statistics:

 Available memory in ccsd:               805305566
 Min. memory needed in ccsd:               5396407
 Max. memory used in ccsd:                 7260087
 Max. memory used in cckext:               5937584 ( 1 integral passes)



 **********************************************************************************************************************************
 DATASETS  * FILE   NREC   LENGTH (MB)   RECORD NAMES
              1      22      573.89       500      610      700      900      950      970     1000      129      960     1100   
                                          VAR    BASINP    GEOM    SYMINP    ZMAT    AOBASIS   BASIS     P2S    ABASIS      S 
                                         1400     1410     1200     1210     1080     1600     1650     1300     1700     1380   
                                           T        V       H0       H01     AOSYM     SMH    MOLCAS    ERIS     OPER     JKOP   
                                         7000     1380(1)
                                        PAPT AO   JKOP   

              2       6        2.53       700     1000      520     2100     2101     7000   
                                         GEOM     BASIS   MCVARS     RHF      RHF     PAPT   

 PROGRAMS   *        TOTAL       MP4      PAPT    HF-SCF    HF-SCF       INT
 CPU TIMES  *        89.10     65.95     13.52      0.90      5.04      3.58
 REAL TIME  *        97.10 SEC
 DISK USED  *         1.40 GB
 **********************************************************************************************************************************

 Dump information in style XML to xml output                                                                      

 Orbitals will not be exported.

 **********************************************************************************************************************************

 MP4/aug-cc-pVDZ energy=   -230.923499617200

             MP4            PAPT          HF-SCF          HF-SCF
   -230.92349962   -230.88840900   -230.12883928   -230.12883928
 **********************************************************************************************************************************
 Molpro calculation terminated
