
 Working directory              : /var/folders/2v/xbgp75_9785319ghcgb4zr4r0000gp/T//molpro.URxEKIUkte/
 Global scratch directory       : /var/folders/2v/xbgp75_9785319ghcgb4zr4r0000gp/T//molpro.URxEKIUkte/
 Wavefunction directory         : /Users/sacpjk/wfu/
 Main file repository           : /var/folders/2v/xbgp75_9785319ghcgb4zr4r0000gp/T//molpro.URxEKIUkte/

 id        : peterk

 Nodes                        nprocs
 Cardiff-University-G34YLXT77Y    1
 GA implementation: MPI file
 GA implementation (serial work in mppx): MPI file

 Using customized tuning parameters: mindgm=1; mindgv=20; mindgc=4; mindgr=1; noblas=0; minvec=7
 default implementation of scratch files=df  


 Variables initialized (1032), CPU time= 0.00 sec
 
 symmetry,nosym
 
 
 geometry={
           15
     C          0.82811623     -0.21159071      1.20475236
     S          1.44229845     -1.34965561      0.00000000
     C         -1.24908468     -0.55021654      0.70215925
     C          0.92063196      1.10965997      0.68648128
     C          0.82811623     -0.21159071     -1.20475236
     C         -1.24908468     -0.55021654     -0.70215925
     C          0.92063196      1.10965997     -0.68648128
     H          0.95673695     -0.45976415      2.25014901
     H         -1.31253032     -1.49358802      1.23028606
     H         -1.67759043      0.29044163      1.23347846
     H          0.81257107      1.98988563      1.30728665
     H          0.95673695     -0.45976415     -2.25014901
     H         -1.31253032     -1.49358802     -1.23028606
     H         -1.67759043      0.29044163     -1.23347846
     H          0.81257107      1.98988563     -1.30728665
 }
 basis=cc-pVDZ
 
 
 
 hf; mp4
 
 
 
 {put,xml;noorbitals,nobasis}
 Commands initialized (841), CPU time= 0.01 sec, 704 directives.
 Default parameters read. Elapsed time= 5.51 sec

 Checking input...
 Passed
1


                                         ***  PROGRAM SYSTEM MOLPRO  ***
                                       Copyright, TTI GmbH Stuttgart, 2015
                                    Version 2023.1 linked Tue Jun  6 09:54:11 2023


 **********************************************************************************************************************************
 LABEL *                                                                                                                                                                 
  64 bit serial version                                                                  DATE: 10-Jun-23          TIME: 18:47:51  
 **********************************************************************************************************************************

 SHA1:             8ebb0dd001088a5c915591db1a321413035db0b1
 **********************************************************************************************************************************

 Memory per process:       805 MW
 Total memory per node:   1074 MW
 Total GA space:           268 MW

 GA preallocation disabled
 GA check enabled

 Variable memory set to 805.3 MW

 ZSYMEL=NOSYM


 Geometry recognized as XYZ

 SETTING BASIS          =    CC-PVDZ


 Recomputing integrals since basis changed


 Using spherical harmonics

 Library entry C      S cc-pVDZ              selected for orbital group  1
 Library entry C      P cc-pVDZ              selected for orbital group  1
 Library entry C      D cc-pVDZ              selected for orbital group  1
 Library entry S      S cc-pVDZ              selected for orbital group  2
 Library entry S      P cc-pVDZ              selected for orbital group  2
 Library entry S      D cc-pVDZ              selected for orbital group  2
 Library entry H      S cc-pVDZ              selected for orbital group  4
 Library entry H      P cc-pVDZ              selected for orbital group  4


 PROGRAM * SEWARD (Integral evaluation for generally contracted gaussian basis sets)     Author: Roland Lindh, 1990

 Geometry written to block  1 of record 700


 Point group  C1  



 ATOMIC COORDINATES

 NR  ATOM    CHARGE       X              Y              Z

   1  C       6.00    1.564912874   -0.399848492    2.276652008
   2  S      16.00    2.725549060   -2.550479465    0.000000000
   3  C       6.00   -2.360427952   -1.039758570    1.326888678
   4  C       6.00    1.739742266    2.096953435    1.297261609
   5  C       6.00    1.564912874   -0.399848492   -2.276652008
   6  C       6.00   -2.360427952   -1.039758570   -1.326888678
   7  C       6.00    1.739742266    2.096953435   -1.297261609
   8  H       1.00    1.807970809   -0.868828325    4.252165368
   9  H       1.00   -2.480322835   -2.822472301    2.324903708
  10  H       1.00   -3.170186462    0.548855136    2.330936470
  11  H       1.00    1.535536779    3.760338860    2.470413735
  12  H       1.00    1.807970809   -0.868828325   -4.252165368
  13  H       1.00   -2.480322835   -2.822472301   -2.324903708
  14  H       1.00   -3.170186462    0.548855136   -2.330936470
  15  H       1.00    1.535536779    3.760338860   -2.470413735

 Bond lengths in Bohr (Angstrom)

 1-2  3.339975196  1-4  2.687711059  1-8  2.044913758  2-5  3.339975196  3-6  2.653777357
     ( 1.767438758)     ( 1.422275442)     ( 1.082121759)     ( 1.767438758)     ( 1.404318500)

  3- 9  2.046576905   3-10  2.046341692   4- 7  2.594523218   4-11  2.045687382   5- 7  2.687711059
       ( 1.083001859)       ( 1.082877389)       ( 1.372962560)       ( 1.082531143)       ( 1.422275442)

  5-12  2.044913758   6-13  2.046576905   6-14  2.046341692   7-15  2.045687382
       ( 1.082121759)       ( 1.083001859)       ( 1.082877389)       ( 1.082531143)

 Bond angles

  1- 2- 5   85.94345628   1- 4- 7  111.37039886   1- 4-11  122.67660565   2- 1- 4  109.09768055

  2- 1- 8  118.00360567   2- 5- 7  109.09768055   2- 5-12  118.00360567   3- 6-13  119.18629736

  3- 6-14  119.38364221   4- 1- 8  123.87251354   4- 7- 5  111.37039886   4- 7-15  124.99295847

  5- 7-15  122.67660565   6- 3- 9  119.18629736   6- 3-10  119.38364221   7- 4-11  124.99295847

  7- 5-12  123.87251354   9- 3-10  114.44241965  13- 6-14  114.44241965

 NUCLEAR CHARGE:                   60
 NUMBER OF PRIMITIVE AOS:         260
 NUMBER OF SYMMETRY AOS:          253
 NUMBER OF CONTRACTIONS:          142   (  142A   )
 NUMBER OF INNER CORE ORBITALS:     1   (    1A   )
 NUMBER OF OUTER CORE ORBITALS:    10   (   10A   )
 NUMBER OF VALENCE ORBITALS:       36   (   36A   )


 NUCLEAR REPULSION ENERGY  361.52107020


 Eigenvalues of metric

         1 0.978E-03 0.267E-02 0.351E-02 0.423E-02 0.614E-02 0.113E-01 0.120E-01 0.145E-01


 Contracted 2-electron integrals neglected if value below      1.0D-11
 AO integral compression algorithm  1   Integral accuracy      1.0D-11

     220.463 MB (compressed) written to integral file ( 49.7%)


 NUMBER OF SORTED TWO-ELECTRON INTEGRALS:   51546781.     BUFFER LENGTH:  32768
 NUMBER OF SEGMENTS:   4  SEGMENT LENGTH:   15999503      RECORD LENGTH: 524288

 Memory used in sort:      16.56 MW

 SORT1 READ    55393492. AND WROTE    50228248. INTEGRALS IN    146 RECORDS. CPU TIME:     0.43 SEC, REAL TIME:     0.59 SEC
 SORT2 READ    50228248. AND WROTE    51546781. INTEGRALS IN    841 RECORDS. CPU TIME:     0.41 SEC, REAL TIME:     0.50 SEC

 FILE SIZES:   FILE 1:   251.5 MBYTE,  FILE 4:   612.4 MBYTE,   TOTAL:    863.9 MBYTE

 OPERATOR DM      FOR CENTER  0  COORDINATES:    0.000000    0.000000    0.000000


 **********************************************************************************************************************************
 DATASETS  * FILE   NREC   LENGTH (MB)   RECORD NAMES
              1      19      222.88       500      610      700      900      950      970     1000      129      960     1100   
                                          VAR    BASINP    GEOM    SYMINP    ZMAT    AOBASIS   BASIS     P2S    ABASIS      S 
                                         1400     1410     1200     1210     1080     1600     1650     1300     1700   
                                           T        V       H0       H01     AOSYM     SMH    MOLCAS    ERIS     OPER   

 PROGRAMS   *        TOTAL       INT
 CPU TIMES  *         3.58      3.48
 REAL TIME  *        13.88 SEC
 DISK USED  *       824.47 MB
 **********************************************************************************************************************************


 Program * Restricted Hartree-Fock

 Orbital guess generated from atomic densities. Full valence occupancy:   47

 Initial occupancy:  30

 NELEC=   60   SYM=1   MS2= 0   THRE=1.0D-08   THRD=3.2D-06   THRG=3.2D-06  HFMA2=F  DIIS_START=2   DIIS_MAX=10   DIIS_INCORE=F

 Level shifts:    0.00 (CLOSED)    0.00 (OPEN)    0.30 (GAP_MIN)

 ITER           ETOT              DE          GRAD        DDIFF     DIIS  NEXP   TIME(IT)  TIME(TOT)  DIAG
   1     -629.19774555    -629.19774555     0.00D+00     0.99D-01     0     0       0.24      0.45    start
   2     -629.26223822      -0.06449267     0.37D-02     0.88D-02     1     0       0.26      0.71    diag
   3     -629.27261961      -0.01038139     0.17D-02     0.34D-02     2     0       0.23      0.94    diag
   4     -629.27433821      -0.00171860     0.51D-03     0.13D-02     3     0       0.25      1.19    diag
   5     -629.27442173      -0.00008352     0.91D-04     0.25D-03     4     0       0.28      1.47    diag
   6     -629.27444077      -0.00001904     0.41D-04     0.12D-03     5     0       0.28      1.75    diag
   7     -629.27444513      -0.00000436     0.17D-04     0.61D-04     6     0       0.24      1.99    diag
   8     -629.27444573      -0.00000060     0.59D-05     0.24D-04     7     0       0.26      2.25    fixocc
   9     -629.27444580      -0.00000007     0.19D-05     0.71D-05     8     0       0.24      2.49    diag
  10     -629.27444581      -0.00000001     0.80D-06     0.31D-05     9     0       0.24      2.73    diag/orth
  11     -629.27444581      -0.00000000     0.37D-06     0.12D-05     9     0       0.26      2.99    diag
  12     -629.27444581      -0.00000000     0.15D-06     0.36D-06     0     0       0.25      3.24    diag

 Final occupancy:  30

 !RHF STATE 1.1 Energy               -629.274445814075
  RHF One-electron energy           -1580.149391655654
  RHF Two-electron energy             589.353875641476
  RHF Kinetic energy                  628.990652555395
  RHF Nuclear energy                  361.521070200103
  RHF Virial quotient                  -1.000451188356

 !RHF STATE 1.1 Dipole moment          -0.26884759     0.37567102     0.00000000
 Dipole moment /Debye                  -0.68334241     0.95486050     0.00000000

 Orbital energies:

           1.1          2.1          3.1          4.1          5.1          6.1          7.1          8.1          9.1         10.1
    -91.957609   -11.280683   -11.280652   -11.236907   -11.235569   -11.234025   -11.232904    -8.960836    -6.642371    -6.641574

          11.1         12.1         13.1         14.1         15.1         16.1         17.1         18.1         19.1         20.1
     -6.639195    -1.165079    -1.012349    -0.976784    -0.970601    -0.792529    -0.769039    -0.733316    -0.691049    -0.623930

          21.1         22.1         23.1         24.1         25.1         26.1         27.1         28.1         29.1         30.1
     -0.567615    -0.552314    -0.547654    -0.539677    -0.510621    -0.487709    -0.466931    -0.340421    -0.329591    -0.301260

          31.1         32.1
      0.127058     0.141939


 HOMO     30.1    -0.301260 =      -8.1977eV
 LUMO     31.1     0.127058 =       3.4574eV
 LUMO-HOMO         0.428318 =      11.6551eV

 Orbitals saved in record  2100.2


 **********************************************************************************************************************************
 DATASETS  * FILE   NREC   LENGTH (MB)   RECORD NAMES
              1      19      222.88       500      610      700      900      950      970     1000      129      960     1100   
                                          VAR    BASINP    GEOM    SYMINP    ZMAT    AOBASIS   BASIS     P2S    ABASIS      S 
                                         1400     1410     1200     1210     1080     1600     1650     1300     1700   
                                           T        V       H0       H01     AOSYM     SMH    MOLCAS    ERIS     OPER   

              2       4        0.94       700     1000      520     2100   
                                         GEOM     BASIS   MCVARS     RHF  

 PROGRAMS   *        TOTAL    HF-SCF       INT
 CPU TIMES  *         6.83      3.25      3.48
 REAL TIME  *        19.96 SEC
 DISK USED  *       824.47 MB
 **********************************************************************************************************************************


 PROGRAM * MP4 (Closed-shell)     Authors: C. Hampel, H.-J. Werner, 1991, M. Deegan, P.J. Knowles, 1992


 Convergence thresholds:  THRVAR = 1.00D-08  THRDEN = 1.00D-06

 MP4(T)     terms to be evaluated (factor= 0.000)


 Number of core orbitals:          11 (  11 )
 Number of closed-shell orbitals:  19 (  19 )
 Number of external orbitals:     112 ( 112 )

 Molecular orbitals read from record     2100.2  Type=RHF/CANONICAL  

 Number of N-1 electron functions:              19
 Number of N-2 electron functions:             190
 Number of singly external CSFs:              2128
 Number of doubly external CSFs:           2265256
 Total number of CSFs:                     2267385

 Length of J-op  integral file:               0.00 MB
 Length of K-op  integral file:               1.45 MB

 Memory could be reduced to 35.96 Mwords without degradation in triples

 Integral transformation finished. Total CPU:   2.26 sec, npass=  1  Memory used:  35.49 MW

 Reference energy:                   -629.27444581

                        CORR.ENERGY   TOTAL ENERGY   ENERGY CHANGE
 MP2:                   -0.98564325  -630.26008907    -0.98564325

 SCS-MP2 correlation energy:           -0.95793699   (PS=  1.200000  PT=  0.333333)
 SCS-MP2 total energy:               -630.23238280

 MP3(D):                -1.02001165  -630.29445747    -0.03436840
 MP4(DQ):               -1.02115115  -630.29559697    -0.00113950
 MP4(SDQ):              -1.02926463  -630.30371044    -0.00811348

 Norm of t1 vector:      0.08076705      S-energy:    -0.00811348      T1 diagnostic:  0.00926462


 Total CPU time for triples:     72.30 sec


 RESULTS
 =======

  Reference energy                   -629.274445814076
  MP4(SDQ) singlet pair energy         -0.665891561713
  MP4(SDQ) triplet pair energy         -0.355259589429
  MP4(SDQ) correlation energy          -1.029264626675

  Triples contribution                 -0.052463491443
  Total correlation energy             -1.081728118118

  MP4(SDQ) total energy              -630.303710440751
 !MP4(SDTQ) total energy             -630.356173932194

 Timing summary (sec):

 STEP                 CPU(USER)    SYS     CPU(TOT)    WALL
 Transformation          2.39      0.25      2.64      3.38
 CCSD iterations        14.81      0.27     15.08      9.68
 Triples                72.30      4.14     76.44     86.05

 Program statistics:

 Available memory in ccsd:               805304894
 Min. memory needed in ccsd:               5840549
 Max. memory used in ccsd:                 7842921
 Max. memory used in cckext:               7962872 ( 1 integral passes)



 **********************************************************************************************************************************
 DATASETS  * FILE   NREC   LENGTH (MB)   RECORD NAMES
              1      20      369.87       500      610      700      900      950      970     1000      129      960     1100   
                                          VAR    BASINP    GEOM    SYMINP    ZMAT    AOBASIS   BASIS     P2S    ABASIS      S 
                                         1400     1410     1200     1210     1080     1600     1650     1300     1700     1380   
                                           T        V       H0       H01     AOSYM     SMH    MOLCAS    ERIS     OPER     JKOP   

              2       4        0.94       700     1000      520     2100   
                                         GEOM     BASIS   MCVARS     RHF  

 PROGRAMS   *        TOTAL       MP4    HF-SCF       INT
 CPU TIMES  *        89.40     82.57      3.25      3.48
 REAL TIME  *       119.86 SEC
 DISK USED  *       824.47 MB
 **********************************************************************************************************************************

 Dump information in style XML to xml output                                                                      

 Orbitals will not be exported.

 **********************************************************************************************************************************

 MP4/cc-pVDZ energy=   -630.356173932194

             MP4          HF-SCF
   -630.35617393   -629.27444581
 **********************************************************************************************************************************
 Molpro calculation terminated
