
 Working directory              : /var/folders/2v/xbgp75_9785319ghcgb4zr4r0000gp/T//molpro.fbFTpeWG41/
 Global scratch directory       : /var/folders/2v/xbgp75_9785319ghcgb4zr4r0000gp/T//molpro.fbFTpeWG41/
 Wavefunction directory         : /Users/sacpjk/wfu/
 Main file repository           : /var/folders/2v/xbgp75_9785319ghcgb4zr4r0000gp/T//molpro.fbFTpeWG41/

 id        : peterk

 Nodes                        nprocs
 Cardiff-University-G34YLXT77Y    1
 GA implementation: MPI file
 GA implementation (serial work in mppx): MPI file

 Using customized tuning parameters: mindgm=1; mindgv=20; mindgc=4; mindgr=1; noblas=0; minvec=7
 default implementation of scratch files=df  


 Variables initialized (1032), CPU time= 0.00 sec
 
 symmetry,nosym
 
 
 geometry={
           17
     SI         0.95111717     -2.34248323      0.00000000
     SI         2.89848985     -1.03325876      0.00000000
     SI        -0.99433708     -1.00453120      0.00000000
     SI        -0.50864801      1.29196677      0.00000000
     SI        -2.47062147      2.57854369      0.00000000
     H          0.94975038     -3.21957328     -1.20217863
     H          0.94975038     -3.21957328      1.20217863
     H         -1.81620882     -1.31657238      1.20081987
     H         -1.81620882     -1.31657238     -1.20081987
     H          0.30852143      1.61775107     -1.20050887
     H          0.30852143      1.61775107      1.20050887
     H         -2.17074349      4.03381275      0.00000000
     H         -3.27850228      2.26099322     -1.20543585
     H         -3.27850228      2.26099322      1.20543585
     H          4.11885639     -1.88075049      0.00000000
     H          2.92438262     -0.16424840     -1.20428156
     H          2.92438262     -0.16424840      1.20428156
 }
 basis=cc-pVDZ
 
 
 
 hf
 
 
 
 {put,xml;noorbitals,nobasis}
 Commands initialized (841), CPU time= 0.00 sec, 704 directives.
 Default parameters read. Elapsed time= 0.08 sec

 Checking input...
 Passed
1


                                         ***  PROGRAM SYSTEM MOLPRO  ***
                                       Copyright, TTI GmbH Stuttgart, 2015
                                    Version 2023.1 linked Tue Jun  6 09:54:11 2023


 **********************************************************************************************************************************
 LABEL *                                                                                                                                                                 
  64 bit serial version                                                                  DATE: 12-Jun-23          TIME: 23:28:59  
 **********************************************************************************************************************************

 SHA1:             8ebb0dd001088a5c915591db1a321413035db0b1
 **********************************************************************************************************************************

 Memory per process:       393 MW
 Total memory per node:    524 MW
 Total GA space:           131 MW

 GA preallocation disabled
 GA check enabled

 Variable memory set to 393.2 MW

 ZSYMEL=NOSYM


 Geometry recognized as XYZ

 SETTING BASIS          =    CC-PVDZ


 Recomputing integrals since basis changed


 Using spherical harmonics

 Library entry SI     S cc-pVDZ              selected for orbital group  1
 Library entry SI     P cc-pVDZ              selected for orbital group  1
 Library entry SI     D cc-pVDZ              selected for orbital group  1
 Library entry H      S cc-pVDZ              selected for orbital group  2
 Library entry H      P cc-pVDZ              selected for orbital group  2


 PROGRAM * SEWARD (Integral evaluation for generally contracted gaussian basis sets)     Author: Roland Lindh, 1990

 Geometry written to block  1 of record 700


 Point group  C1  



 ATOMIC COORDINATES

 NR  ATOM    CHARGE       X              Y              Z

   1  SI     14.00    1.797350964   -4.426651756    0.000000000
   2  SI     14.00    5.477351992   -1.952576072    0.000000000
   3  SI     14.00   -1.879024757   -1.898288852    0.000000000
   4  SI     14.00   -0.961205433    2.441463357    0.000000000
   5  SI     14.00   -4.668797936    4.872741374    0.000000000
   6  H       1.00    1.794768105   -6.084111737   -2.271788364
   7  H       1.00    1.794768105   -6.084111737    2.271788364
   8  H       1.00   -3.432137255   -2.487961221    2.269220679
   9  H       1.00   -3.432137255   -2.487961221   -2.269220679
  10  H       1.00    0.583021006    3.057106460   -2.268632974
  11  H       1.00    0.583021006    3.057106460    2.268632974
  12  H       1.00   -4.102110683    7.622801336    0.000000000
  13  H       1.00   -6.195471408    4.272657955   -2.277943617
  14  H       1.00   -6.195471408    4.272657955    2.277943617
  15  H       1.00    7.783510524   -3.554103335    0.000000000
  16  H       1.00    5.526282235   -0.310384492   -2.275762325
  17  H       1.00    5.526282235   -0.310384492    2.275762325

 Bond lengths in Bohr (Angstrom)

  1- 2  4.434349789   1- 3  4.461878239   1- 6  2.812152668   1- 7  2.812152668   2-15  2.807713794
       ( 2.346556854)       ( 2.361124282)       ( 1.488127106)       ( 1.488127106)       ( 1.485778154)

  2-16  2.806827660   2-17  2.806827660   3- 4  4.435745884   3- 8  2.812336116   3- 9  2.812336116
       ( 1.485309233)       ( 1.485309233)       ( 2.347295635)       ( 1.488224182)       ( 1.488224182)

  4- 5  4.433661575   4-10  2.812533964   4-11  2.812533964   5-12  2.807839780   5-13  2.807108677
       ( 2.346192667)       ( 1.488328879)       ( 1.488328879)       ( 1.485844824)       ( 1.485457940)

  5-14  2.807108677
       ( 1.485457940)

 Bond angles

  1- 2-15  111.30863625   1- 2-16  109.93158359   1- 2-17  109.93158359   1- 3- 4  112.57598178

  1-3-8  109.64640063   1-3-9  109.64640063   2-1-3  111.56937561   2-1-6  109.24475078

  2-1-7  109.24475078   3-1-6  109.46478162   3-1-7  109.46478162   3-4-5  111.31353681

  3- 4-10  109.13301168   3- 4-11  109.13301168   4- 3- 8  108.62690914   4- 3- 9  108.62690914

  4- 5-12  111.61152508   4- 5-13  109.72886965   4- 5-14  109.72886965   5- 4-10  109.82227336

  5- 4-11  109.82227336   6- 1- 7  107.77216476   8- 3- 9  107.58462000  10- 4-11  107.53308939

 12- 5-13  108.61075935  12- 5-14  108.61075935  13- 5-14  108.48373924  15- 2-16  108.62707412

 15- 2-17  108.62707412  16- 2-17  108.34739023

 NUCLEAR CHARGE:                   82
 NUMBER OF PRIMITIVE AOS:         294
 NUMBER OF SYMMETRY AOS:          289
 NUMBER OF CONTRACTIONS:          150   (  150A   )
 NUMBER OF INNER CORE ORBITALS:     5   (    5A   )
 NUMBER OF OUTER CORE ORBITALS:    20   (   20A   )
 NUMBER OF VALENCE ORBITALS:       32   (   32A   )


 NUCLEAR REPULSION ENERGY  469.02428364


 Eigenvalues of metric

         1 0.227E-02 0.381E-02 0.549E-02 0.688E-02 0.945E-02 0.124E-01 0.162E-01 0.208E-01


 Contracted 2-electron integrals neglected if value below      1.0D-11
 AO integral compression algorithm  1   Integral accuracy      1.0D-11

     176.161 MB (compressed) written to integral file ( 35.2%)


 NUMBER OF SORTED TWO-ELECTRON INTEGRALS:   64133475.     BUFFER LENGTH:  32768
 NUMBER OF SEGMENTS:   5  SEGMENT LENGTH:   15999503      RECORD LENGTH: 524288

 Memory used in sort:      16.56 MW

 SORT1 READ    62664794. AND WROTE    46168929. INTEGRALS IN    135 RECORDS. CPU TIME:     0.50 SEC, REAL TIME:     0.64 SEC
 SORT2 READ    46168929. AND WROTE    64133475. INTEGRALS IN    672 RECORDS. CPU TIME:     0.52 SEC, REAL TIME:     0.62 SEC

 FILE SIZES:   FILE 1:   207.3 MBYTE,  FILE 4:   566.3 MBYTE,   TOTAL:    773.6 MBYTE

 OPERATOR DM      FOR CENTER  0  COORDINATES:    0.000000    0.000000    0.000000


 **********************************************************************************************************************************
 DATASETS  * FILE   NREC   LENGTH (MB)   RECORD NAMES
              1      19      177.13       500      610      700      900      950      970     1000      129      960     1100   
                                          VAR    BASINP    GEOM    SYMINP    ZMAT    AOBASIS   BASIS     P2S    ABASIS      S 
                                         1400     1410     1200     1210     1080     1600     1650     1300     1700   
                                           T        V       H0       H01     AOSYM     SMH    MOLCAS    ERIS     OPER   

 PROGRAMS   *        TOTAL       INT
 CPU TIMES  *         3.70      3.62
 REAL TIME  *         4.73 SEC
 DISK USED  *       738.38 MB
 **********************************************************************************************************************************


 Program * Restricted Hartree-Fock

 Orbital guess generated from atomic densities. Full valence occupancy:   57

 Initial occupancy:  41

 NELEC=   82   SYM=1   MS2= 0   THRE=1.0D-08   THRD=3.2D-06   THRG=3.2D-06  HFMA2=F  DIIS_START=2   DIIS_MAX=10   DIIS_INCORE=F

 Level shifts:    0.00 (CLOSED)    0.00 (OPEN)    0.30 (GAP_MIN)

 ITER           ETOT              DE          GRAD        DDIFF     DIIS  NEXP   TIME(IT)  TIME(TOT)  DIAG
   1    -1451.56583250   -1451.56583250     0.00D+00     0.11D+00     0     0       0.31      0.61    start
   2    -1451.62150367      -0.05567118     0.21D-02     0.62D-02     1     0       0.31      0.92    diag
   3    -1451.62853668      -0.00703300     0.66D-03     0.23D-02     2     0       0.30      1.22    diag
   4    -1451.62875547      -0.00021879     0.13D-03     0.58D-03     3     0       0.31      1.53    diag
   5    -1451.62877213      -0.00001666     0.32D-04     0.18D-03     4     0       0.31      1.84    diag
   6    -1451.62877271      -0.00000058     0.61D-05     0.38D-04     5     0       0.30      2.14    diag
   7    -1451.62877274      -0.00000003     0.14D-05     0.86D-05     6     0       0.29      2.43    diag
   8    -1451.62877274      -0.00000000     0.27D-06     0.15D-05     7     0       0.30      2.73    fixocc
   9    -1451.62877274      -0.00000000     0.80D-07     0.29D-06     0     0       0.29      3.02    diag

 Final occupancy:  41

 !RHF STATE 1.1 Energy              -1451.628772739778
  RHF One-electron energy           -2947.978851245105
  RHF Two-electron energy            1027.325794864926
  RHF Kinetic energy                 1451.802243161946
  RHF Nuclear energy                  469.024283640402
  RHF Virial quotient                  -0.999880513739

 !RHF STATE 1.1 Dipole moment           0.00587828    -0.02563738     0.00000000
 Dipole moment /Debye                   0.01494111    -0.06516372     0.00000000

 Orbital energies:

           1.1          2.1          3.1          4.1          5.1          6.1          7.1          8.1          9.1         10.1
    -68.779947   -68.779318   -68.777382   -68.776352   -68.775550    -6.131094    -6.130494    -6.129390    -6.128549    -6.127914

          11.1         12.1         13.1         14.1         15.1         16.1         17.1         18.1         19.1         20.1
     -4.236868    -4.236847    -4.236798    -4.236277    -4.236257    -4.236209    -4.234986    -4.234960    -4.234923    -4.234157

          21.1         22.1         23.1         24.1         25.1         26.1         27.1         28.1         29.1         30.1
     -4.233995    -4.233913    -4.233516    -4.233364    -4.233314    -0.784743    -0.754356    -0.714041    -0.674312    -0.636801

          31.1         32.1         33.1         34.1         35.1         36.1         37.1         38.1         39.1         40.1
     -0.515367    -0.497854    -0.491569    -0.488456    -0.483998    -0.474184    -0.460467    -0.442872    -0.423085    -0.390239

          41.1         42.1         43.1
     -0.368920     0.102846     0.113126


 HOMO     41.1    -0.368920 =     -10.0388eV
 LUMO     42.1     0.102846 =       2.7986eV
 LUMO-HOMO         0.471765 =      12.8374eV

 Orbitals saved in record  2100.2


 **********************************************************************************************************************************
 DATASETS  * FILE   NREC   LENGTH (MB)   RECORD NAMES
              1      19      177.13       500      610      700      900      950      970     1000      129      960     1100   
                                          VAR    BASINP    GEOM    SYMINP    ZMAT    AOBASIS   BASIS     P2S    ABASIS      S 
                                         1400     1410     1200     1210     1080     1600     1650     1300     1700   
                                           T        V       H0       H01     AOSYM     SMH    MOLCAS    ERIS     OPER   

              2       4        1.01       700     1000      520     2100   
                                         GEOM     BASIS   MCVARS     RHF  

 PROGRAMS   *        TOTAL    HF-SCF       INT
 CPU TIMES  *         6.72      3.02      3.62
 REAL TIME  *         8.21 SEC
 DISK USED  *       738.38 MB
 **********************************************************************************************************************************

 Dump information in style XML to xml output                                                                      

 Orbitals will not be exported.

 **********************************************************************************************************************************

 HF/cc-pVDZ energy=  -1451.628772739778

          HF-SCF
  -1451.62877274
 **********************************************************************************************************************************
 Molpro calculation terminated
