
 Working directory              : /var/folders/2v/xbgp75_9785319ghcgb4zr4r0000gp/T//molpro.39zjmcyNwl/
 Global scratch directory       : /var/folders/2v/xbgp75_9785319ghcgb4zr4r0000gp/T//molpro.39zjmcyNwl/
 Wavefunction directory         : /Users/sacpjk/wfu/
 Main file repository           : /var/folders/2v/xbgp75_9785319ghcgb4zr4r0000gp/T//molpro.39zjmcyNwl/

 id        : peterk

 Nodes                        nprocs
 Cardiff-University-G34YLXT77Y    1
 GA implementation: MPI file
 GA implementation (serial work in mppx): MPI file

 Using customized tuning parameters: mindgm=1; mindgv=20; mindgc=4; mindgr=1; noblas=0; minvec=7
 default implementation of scratch files=df  


 Variables initialized (1032), CPU time= 0.00 sec
 
 symmetry,nosym
 
 
 geometry={
            6
     F          0.00000000      0.00000000     -1.88993626
     C          0.00000000      0.00000000     -0.48156276
     H         -0.51236000      0.88743354     -0.12780248
     H         -0.51236000     -0.88743354     -0.12780248
     H          1.02471999      0.00000000     -0.12780248
     CL         0.00000000      0.00000000      2.75490646
 }
 basis=cc-pVTZ
 
 charge=-1
 
 hf; hf; papt; mp4
 
 
 
 {put,xml;noorbitals,nobasis}
 Commands initialized (841), CPU time= 0.01 sec, 704 directives.
 Default parameters read. Elapsed time= 0.29 sec

 Checking input...
 Passed
1


                                         ***  PROGRAM SYSTEM MOLPRO  ***
                                       Copyright, TTI GmbH Stuttgart, 2015
                                    Version 2023.1 linked Tue Jun  6 09:54:11 2023


 **********************************************************************************************************************************
 LABEL *                                                                                                                                                                 
  64 bit serial version                                                                  DATE: 09-Jun-23          TIME: 16:06:13  
 **********************************************************************************************************************************

 SHA1:             8ebb0dd001088a5c915591db1a321413035db0b1
 **********************************************************************************************************************************

 Memory per process:       805 MW
 Total memory per node:   1074 MW
 Total GA space:           268 MW

 GA preallocation disabled
 GA check enabled

 Variable memory set to 805.3 MW

 ZSYMEL=NOSYM


 Geometry recognized as XYZ

 SETTING BASIS          =    CC-PVTZ
 SETTING CHARGE         =        -1.00000000                                  


 Recomputing integrals since basis changed


 Using spherical harmonics

 Library entry F      S cc-pVTZ              selected for orbital group  1
 Library entry F      P cc-pVTZ              selected for orbital group  1
 Library entry F      D cc-pVTZ              selected for orbital group  1
 Library entry F      F cc-pVTZ              selected for orbital group  1
 Library entry C      S cc-pVTZ              selected for orbital group  2
 Library entry C      P cc-pVTZ              selected for orbital group  2
 Library entry C      D cc-pVTZ              selected for orbital group  2
 Library entry C      F cc-pVTZ              selected for orbital group  2
 Library entry H      S cc-pVTZ              selected for orbital group  3
 Library entry H      P cc-pVTZ              selected for orbital group  3
 Library entry H      D cc-pVTZ              selected for orbital group  3
 Library entry CL     S cc-pVTZ              selected for orbital group  4
 Library entry CL     P cc-pVTZ              selected for orbital group  4
 Library entry CL     D cc-pVTZ              selected for orbital group  4
 Library entry CL     F cc-pVTZ              selected for orbital group  4


 PROGRAM * SEWARD (Integral evaluation for generally contracted gaussian basis sets)     Author: Roland Lindh, 1990

 Geometry written to block  1 of record 700


 Point group  C1  



 ATOMIC COORDINATES

 NR  ATOM    CHARGE       X              Y              Z

   1  F       9.00    0.000000000    0.000000000   -3.571461924
   2  C       6.00    0.000000000    0.000000000   -0.910021728
   3  H       1.00   -0.968220077    1.677006344   -0.241511685
   4  H       1.00   -0.968220077   -1.677006344   -0.241511685
   5  H       1.00    1.936440136    0.000000000   -0.241511685
   6  CL     17.00    0.000000000    0.000000000    5.206018708

 Bond lengths in Bohr (Angstrom)

 1-2  2.661440196  2-3  2.048586360  2-4  2.048586360  2-5  2.048586360
     ( 1.408373500)     ( 1.084065216)     ( 1.084065216)     ( 1.084065216)

 Bond angles

  1-2-3  109.04601992   1-2-4  109.04601992   1-2-5  109.04601992   3-2-4  109.89305339

  3-2-5  109.89305420   4-2-5  109.89305420

 NUCLEAR CHARGE:                   35
 NUMBER OF PRIMITIVE AOS:         209
 NUMBER OF SYMMETRY AOS:          191
 NUMBER OF CONTRACTIONS:          136   (  136A   )
 NUMBER OF INNER CORE ORBITALS:     1   (    1A   )
 NUMBER OF OUTER CORE ORBITALS:     6   (    6A   )
 NUMBER OF VALENCE ORBITALS:       15   (   15A   )


 NUCLEAR REPULSION ENERGY   79.90971378


 Eigenvalues of metric

         1 0.124E-02 0.189E-02 0.189E-02 0.365E-02 0.502E-02 0.861E-02 0.105E-01 0.105E-01


 Contracted 2-electron integrals neglected if value below      1.0D-11
 AO integral compression algorithm  1   Integral accuracy      1.0D-11

     120.324 MB (compressed) written to integral file ( 30.2%)


 NUMBER OF SORTED TWO-ELECTRON INTEGRALS:   43398586.     BUFFER LENGTH:  32768
 NUMBER OF SEGMENTS:   3  SEGMENT LENGTH:   15998004      RECORD LENGTH: 524288

 Memory used in sort:      16.56 MW

 SORT1 READ    49901996. AND WROTE    27476076. INTEGRALS IN     80 RECORDS. CPU TIME:     0.32 SEC, REAL TIME:     0.41 SEC
 SORT2 READ    27476076. AND WROTE    43398586. INTEGRALS IN    459 RECORDS. CPU TIME:     0.34 SEC, REAL TIME:     0.42 SEC

 FILE SIZES:   FILE 1:   151.1 MBYTE,  FILE 4:   335.6 MBYTE,   TOTAL:    486.7 MBYTE

 OPERATOR DM      FOR CENTER  0  COORDINATES:    0.000000    0.000000    0.000000


 **********************************************************************************************************************************
 DATASETS  * FILE   NREC   LENGTH (MB)   RECORD NAMES
              1      19      127.04       500      610      700      900      950      970     1000      129      960     1100   
                                          VAR    BASINP    GEOM    SYMINP    ZMAT    AOBASIS   BASIS     P2S    ABASIS      S 
                                         1400     1410     1200     1210     1080     1600     1650     1300     1700   
                                           T        V       H0       H01     AOSYM     SMH    MOLCAS    ERIS     OPER   

 PROGRAMS   *        TOTAL       INT
 CPU TIMES  *         1.95      1.84
 REAL TIME  *         3.17 SEC
 DISK USED  *       464.60 MB
 **********************************************************************************************************************************


 Program * Restricted Hartree-Fock

 Orbital guess generated from atomic densities. Full valence occupancy:   22

 Initial occupancy:  18

 NELEC=   36   SYM=1   MS2= 0   THRE=1.0D-08   THRD=3.2D-06   THRG=3.2D-06  HFMA2=F  DIIS_START=2   DIIS_MAX=10   DIIS_INCORE=F

 Level shifts:    0.00 (CLOSED)    0.00 (OPEN)    0.30 (GAP_MIN)

 ITER           ETOT              DE          GRAD        DDIFF     DIIS  NEXP   TIME(IT)  TIME(TOT)  DIAG
   1     -598.61065527    -598.61065527     0.00D+00     0.86D-01     0     0       0.19      0.38    start
   2     -598.66400835      -0.05335307     0.51D-02     0.12D-01     1     0       0.20      0.58    diag
   3     -598.67247683      -0.00846848     0.25D-02     0.22D-02     2     0       0.21      0.79    diag
   4     -598.67283094      -0.00035411     0.41D-03     0.54D-03     3     0       0.20      0.99    diag
   5     -598.67288052      -0.00004958     0.16D-03     0.18D-03     4     0       0.20      1.19    diag
   6     -598.67288333      -0.00000281     0.28D-04     0.54D-04     5     0       0.21      1.40    diag
   7     -598.67288341      -0.00000008     0.46D-05     0.12D-04     6     0       0.20      1.60    diag
   8     -598.67288342      -0.00000000     0.96D-06     0.19D-05     7     0       0.19      1.79    fixocc
   9     -598.67288342      -0.00000000     0.34D-06     0.56D-06     0     0       0.21      2.00    diag

 Final occupancy:  18

 !RHF STATE 1.1 Energy               -598.672883415672
  RHF One-electron energy            -995.497065580540
  RHF Two-electron energy             316.914468389814
  RHF Kinetic energy                  598.684425517926
  RHF Nuclear energy                   79.909713775053
  RHF Virial quotient                  -0.999980720891

 !RHF STATE 1.1 Dipole moment           0.00000000    -0.00000000    -3.89776225
 Dipole moment /Debye                   0.00000000    -0.00000000    -9.90712345

 Orbital energies:

           1.1          2.1          3.1          4.1          5.1          6.1          7.1          8.1          9.1         10.1
   -104.495428   -26.126520   -11.142616   -10.222053    -7.688066    -7.688066    -7.688065    -1.433193    -0.796904    -0.734773

          11.1         12.1         13.1         14.1         15.1         16.1         17.1         18.1         19.1         20.1
     -0.541311    -0.541311    -0.517952    -0.377969    -0.377969    -0.154845    -0.153535    -0.153535     0.299385     0.373917


 HOMO     18.1    -0.153535 =      -4.1779eV
 LUMO     19.1     0.299385 =       8.1467eV
 LUMO-HOMO         0.452920 =      12.3246eV

 Orbitals saved in record  2100.2


 **********************************************************************************************************************************
 DATASETS  * FILE   NREC   LENGTH (MB)   RECORD NAMES
              1      19      127.04       500      610      700      900      950      970     1000      129      960     1100   
                                          VAR    BASINP    GEOM    SYMINP    ZMAT    AOBASIS   BASIS     P2S    ABASIS      S 
                                         1400     1410     1200     1210     1080     1600     1650     1300     1700   
                                           T        V       H0       H01     AOSYM     SMH    MOLCAS    ERIS     OPER   

              2       4        0.76       700     1000      520     2100   
                                         GEOM     BASIS   MCVARS     RHF  

 PROGRAMS   *        TOTAL    HF-SCF       INT
 CPU TIMES  *         3.95      2.01      1.84
 REAL TIME  *         5.73 SEC
 DISK USED  *       464.60 MB
 **********************************************************************************************************************************


 Program * Restricted Hartree-Fock

 Molecular orbitals read from record     2100.2  Type=RHF/CANONICAL  

 Initial occupancy:  18

 NELEC=   36   SYM=1   MS2= 0   THRE=1.0D-08   THRD=3.2D-06   THRG=3.2D-06  HFMA2=F  DIIS_START=2   DIIS_MAX=10   DIIS_INCORE=F

 Level shifts:    0.00 (CLOSED)    0.00 (OPEN)    0.30 (GAP_MIN)

 ITER           ETOT              DE          GRAD        DDIFF     DIIS  NEXP   TIME(IT)  TIME(TOT)  DIAG
   1     -598.67288342    -598.67288342     0.00D+00     0.84D-01     0     0       0.19      0.19    start
   2     -598.67288342      -0.00000000     0.15D-06     0.22D-06     1     0       0.19      0.38    diag

 Final occupancy:  18

 !RHF STATE 1.1 Energy               -598.672883415758
  RHF One-electron energy            -995.497037919219
  RHF Two-electron energy             316.914440728407
  RHF Kinetic energy                  598.684406312148
  RHF Nuclear energy                   79.909713775053
  RHF Virial quotient                  -0.999980752971

 !RHF STATE 1.1 Dipole moment           0.00000000    -0.00000000    -3.89774865
 Dipole moment /Debye                   0.00000000    -0.00000000    -9.90708889

 Orbital energies:

           1.1          2.1          3.1          4.1          5.1          6.1          7.1          8.1          9.1         10.1
   -104.495424   -26.126519   -11.142606   -10.222050    -7.688063    -7.688063    -7.688062    -1.433190    -0.796901    -0.734772

          11.1         12.1         13.1         14.1         15.1         16.1         17.1         18.1         19.1         20.1
     -0.541309    -0.541309    -0.517951    -0.377966    -0.377966    -0.154844    -0.153535    -0.153535     0.299386     0.373918


 HOMO     18.1    -0.153535 =      -4.1779eV
 LUMO     19.1     0.299386 =       8.1467eV
 LUMO-HOMO         0.452921 =      12.3246eV

 Orbitals saved in record  2101.2


 **********************************************************************************************************************************
 DATASETS  * FILE   NREC   LENGTH (MB)   RECORD NAMES
              1      19      127.04       500      610      700      900      950      970     1000      129      960     1100   
                                          VAR    BASINP    GEOM    SYMINP    ZMAT    AOBASIS   BASIS     P2S    ABASIS      S 
                                         1400     1410     1200     1210     1080     1600     1650     1300     1700   
                                           T        V       H0       H01     AOSYM     SMH    MOLCAS    ERIS     OPER   

              2       5        1.36       700     1000      520     2100     2101   
                                         GEOM     BASIS   MCVARS     RHF      RHF  

 PROGRAMS   *        TOTAL    HF-SCF    HF-SCF       INT
 CPU TIMES  *         4.34      0.39      2.01      1.84
 REAL TIME  *         6.37 SEC
 DISK USED  *       464.60 MB
 **********************************************************************************************************************************


 PROGRAM * PAPT (Closed-shell)     Authors: C. Hampel, H.-J. Werner, 1991, P.J. Knowles, 2021


 Convergence thresholds:  THRVAR = 1.00D-08  THRDEN = 1.00D-06

 Number of core orbitals:           7 (   7 )
 Number of closed-shell orbitals:  11 (  11 )
 Number of external orbitals:     118 ( 118 )

 Molecular orbitals read from record     2101.2  Type=RHF/CANONICAL  

 Number of N-1 electron functions:              11
 Number of N-2 electron functions:              66
 Number of singly external CSFs:              1298
 Number of doubly external CSFs:            843051
 Total number of CSFs:                      844350

 Length of J-op  integral file:               0.00 MB
 Length of K-op  integral file:               1.33 MB

 Integral transformation finished. Total CPU:   0.34 sec, npass=  1  Memory used:   2.44 MW

 Reference energy:                   -598.67288342

                        CORR.ENERGY   TOTAL ENERGY   ENERGY CHANGE
 MP2:                   -0.63434948  -599.30723289    -0.63434948

 SCS-MP2 correlation energy:           -0.62900356   (PS=  1.200000  PT=  0.333333)
 SCS-MP2 total energy:               -599.30188698
 Iteration:   1     0.2851D+00
 Iteration:   2     0.3279D+00
 Iteration:   3     0.2322D+00
 Iteration:   4     0.1940D+00
 Iteration:   5     0.1237D+02
 Iteration:   6     0.2527D+00
 Iteration:   7     0.3316D+00
 Iteration:   8     0.3080D+00
 Iteration:   9     0.2142D+00
 Iteration:  10     0.4746D+00
 Iteration:  11     0.1030D+00
 Iteration:  12     0.2129D+00
 Iteration:  13     0.3380D-01
 Iteration:  14     0.2496D-01
 Iteration:  15     0.2640D-01
 Iteration:  16     0.5383D-02
 Iteration:  17     0.5954D-02
 Iteration:  18     0.4393D-02
 Iteration:  19     0.1871D-02
 Iteration:  20     0.3736D-02
 Iteration:  21     0.3404D-03
 Iteration:  22     0.3416D-03
 Iteration:  23     0.2145D-03
 Iteration:  24     0.5326D-04
 PAPT operator written to  7000.1
 PAPT orbitals and eigenvalues written to  7000.2

 MP3(D):                -0.66349899  -599.33638241    -0.02914951



 RESULTS
 =======

  Reference energy                   -598.672883415758
  MP3 singlet pair energy              -0.445410455763
  MP3 triplet pair energy              -0.218088533836
  MP3 correlation energy               -0.663498989600

 !MP3 total energy                   -599.336382405358

 Timing summary (sec):

 STEP                 CPU(USER)    SYS     CPU(TOT)    WALL
 Transformation          0.36      0.04      0.40      0.48
 CCSD iterations         7.66      0.18      7.84      4.03

 Program statistics:

 Available memory in ccsd:               805305866
 Min. memory needed in ccsd:               2341778
 Max. memory used in ccsd:                 3058604
 Max. memory used in cckext:               2623567 ( 1 integral passes)



 **********************************************************************************************************************************
 DATASETS  * FILE   NREC   LENGTH (MB)   RECORD NAMES
              1      21      141.40       500      610      700      900      950      970     1000      129      960     1100   
                                          VAR    BASINP    GEOM    SYMINP    ZMAT    AOBASIS   BASIS     P2S    ABASIS      S 
                                         1400     1410     1200     1210     1080     1600     1650     1300     1700     1380   
                                           T        V       H0       H01     AOSYM     SMH    MOLCAS    ERIS     OPER     JKOP   
                                         7000   
                                        PAPT AO    

              2       6        1.88       700     1000      520     2100     2101     7000   
                                         GEOM     BASIS   MCVARS     RHF      RHF     PAPT   

 PROGRAMS   *        TOTAL      PAPT    HF-SCF    HF-SCF       INT
 CPU TIMES  *         7.94      3.59      0.39      2.01      1.84
 REAL TIME  *        11.00 SEC
 DISK USED  *       464.60 MB
 **********************************************************************************************************************************


 PROGRAM * MP4 (Closed-shell)     Authors: C. Hampel, H.-J. Werner, 1991, M. Deegan, P.J. Knowles, 1992


 Convergence thresholds:  THRVAR = 1.00D-08  THRDEN = 1.00D-06

 MP4(T)     terms to be evaluated (factor= 0.000)


 Number of core orbitals:           7 (   7 )
 Number of closed-shell orbitals:  11 (  11 )
 Number of external orbitals:     118 ( 118 )

 Molecular orbitals read from record     7000.2  Type=PAPT/CANONICAL (state 1.1)

 Number of N-1 electron functions:              11
 Number of N-2 electron functions:              66
 Number of singly external CSFs:              1298
 Number of doubly external CSFs:            843051
 Total number of CSFs:                      844350

 Length of J-op  integral file:               0.00 MB
 Length of K-op  integral file:               1.33 MB

 Memory could be reduced to 24.50 Mwords without degradation in triples

 Integral transformation finished. Total CPU:   0.95 sec, npass=  1  Memory used:  17.64 MW
 Orbital energies read from record       7000.2  Type=PAPT/CANONICAL (state 1.1)

 Reference energy:                   -598.67288342

                        CORR.ENERGY   TOTAL ENERGY   ENERGY CHANGE
 MP2:                   -0.67031502  -599.34319844    -0.67031502

 SCS-MP2 correlation energy:           -0.66719748   (PS=  1.200000  PT=  0.333333)
 SCS-MP2 total energy:               -599.34008089

 MP3(D):                -0.67016460  -599.34304801     0.00015043
 MP4(DQ):               -0.66282117  -599.33570459     0.00734343
 MP4(SDQ):              -0.66640196  -599.33928537    -0.00358079

 Norm of t1 vector:      0.04613994      S-energy:    -0.00358079      T1 diagnostic:  0.00695586

 Largest off-diagonal element in interal  block of Fock matrix:  0.13D+00
 Largest off-diagonal element in external block of Fock matrix:  0.57D+00


 Total CPU time for triples:     12.91 sec


 RESULTS
 =======

  Reference energy                   -598.672883415758
  MP4(SDQ) singlet pair energy         -0.446482476483
  MP4(SDQ) triplet pair energy         -0.216338695039
  MP4(SDQ) correlation energy          -0.666401956830

  Triples contribution                 -0.023825671726
  Total correlation energy             -0.690227628557

  MP4(SDQ) total energy              -599.339285372589
 !MP4(SDTQ) total energy             -599.363111044315

 Timing summary (sec):

 STEP                 CPU(USER)    SYS     CPU(TOT)    WALL
 Transformation          1.18      0.15      1.33      1.50
 CCSD iterations         9.75      0.07      9.82      2.01
 Triples                12.91      0.94     13.85     14.82

 Program statistics:

 Available memory in ccsd:               805305866
 Min. memory needed in ccsd:               2341778
 Max. memory used in ccsd:                 3058604
 Max. memory used in cckext:               2623567 ( 1 integral passes)



 **********************************************************************************************************************************
 DATASETS  * FILE   NREC   LENGTH (MB)   RECORD NAMES
              1      22      210.93       500      610      700      900      950      970     1000      129      960     1100   
                                          VAR    BASINP    GEOM    SYMINP    ZMAT    AOBASIS   BASIS     P2S    ABASIS      S 
                                         1400     1410     1200     1210     1080     1600     1650     1300     1700     1380   
                                           T        V       H0       H01     AOSYM     SMH    MOLCAS    ERIS     OPER     JKOP   
                                         7000     1380(1)
                                        PAPT AO   JKOP   

              2       6        1.88       700     1000      520     2100     2101     7000   
                                         GEOM     BASIS   MCVARS     RHF      RHF     PAPT   

 PROGRAMS   *        TOTAL       MP4      PAPT    HF-SCF    HF-SCF       INT
 CPU TIMES  *        23.76     15.83      3.59      0.39      2.01      1.84
 REAL TIME  *        29.45 SEC
 DISK USED  *       464.60 MB
 **********************************************************************************************************************************

 Dump information in style XML to xml output                                                                      

 Orbitals will not be exported.

 **********************************************************************************************************************************

 MP4/cc-pVTZ energy=   -599.363111044315

             MP4            PAPT          HF-SCF          HF-SCF
   -599.36311104   -599.33638241   -598.67288342   -598.67288342
 **********************************************************************************************************************************
 Molpro calculation terminated
