
 Working directory              : /var/folders/2v/xbgp75_9785319ghcgb4zr4r0000gp/T//molpro.LmIiKsQSnk/
 Global scratch directory       : /var/folders/2v/xbgp75_9785319ghcgb4zr4r0000gp/T//molpro.LmIiKsQSnk/
 Wavefunction directory         : /Users/sacpjk/wfu/
 Main file repository           : /var/folders/2v/xbgp75_9785319ghcgb4zr4r0000gp/T//molpro.LmIiKsQSnk/

 id        : peterk

 Nodes                        nprocs
 Cardiff-University-G34YLXT77Y    1
 GA implementation: MPI file
 GA implementation (serial work in mppx): MPI file

 Using customized tuning parameters: mindgm=1; mindgv=20; mindgc=4; mindgr=1; noblas=0; minvec=7
 default implementation of scratch files=df  


 Variables initialized (1032), CPU time= 0.00 sec
 
 symmetry,nosym
 
 
 geometry={
           11
     C         -1.03666222      1.00226747      0.00000000
     C         -0.99802842     -0.37323986      0.00000000
     C          1.15125899     -0.89785440      0.00000000
     N          1.59581209      0.37970345      0.00000000
     N          1.23898727      1.47513174      0.00000000
     H         -1.16993317      1.56007075     -0.91825218
     H         -1.16993317      1.56007075      0.91825218
     H         -1.19957230     -0.92033561     -0.91402853
     H         -1.19957230     -0.92033561      0.91402853
     H          1.39382161     -1.43273935      0.91491930
     H          1.39382161     -1.43273935     -0.91491930
 }
 basis=cc-pVTZ
 
 
 
 hf; hf; papt; mp4
 
 
 
 {put,xml;noorbitals,nobasis}
 Commands initialized (841), CPU time= 0.01 sec, 704 directives.
 Default parameters read. Elapsed time= 1.15 sec

 Checking input...
 Passed
1


                                         ***  PROGRAM SYSTEM MOLPRO  ***
                                       Copyright, TTI GmbH Stuttgart, 2015
                                    Version 2023.1 linked Tue Jun  6 09:54:11 2023


 **********************************************************************************************************************************
 LABEL *                                                                                                                                                                 
  64 bit serial version                                                                  DATE: 11-Jun-23          TIME: 18:01:45  
 **********************************************************************************************************************************

 SHA1:             8ebb0dd001088a5c915591db1a321413035db0b1
 **********************************************************************************************************************************

 Memory per process:       393 MW
 Total memory per node:    524 MW
 Total GA space:           131 MW

 GA preallocation disabled
 GA check enabled

 Variable memory set to 393.2 MW

 ZSYMEL=NOSYM


 Geometry recognized as XYZ

 SETTING BASIS          =    CC-PVTZ


 Recomputing integrals since basis changed


 Using spherical harmonics

 Library entry C      S cc-pVTZ              selected for orbital group  1
 Library entry C      P cc-pVTZ              selected for orbital group  1
 Library entry C      D cc-pVTZ              selected for orbital group  1
 Library entry C      F cc-pVTZ              selected for orbital group  1
 Library entry N      S cc-pVTZ              selected for orbital group  2
 Library entry N      P cc-pVTZ              selected for orbital group  2
 Library entry N      D cc-pVTZ              selected for orbital group  2
 Library entry N      F cc-pVTZ              selected for orbital group  2
 Library entry H      S cc-pVTZ              selected for orbital group  3
 Library entry H      P cc-pVTZ              selected for orbital group  3
 Library entry H      D cc-pVTZ              selected for orbital group  3


 PROGRAM * SEWARD (Integral evaluation for generally contracted gaussian basis sets)     Author: Roland Lindh, 1990

 Geometry written to block  1 of record 700


 Point group  C1  



 ATOMIC COORDINATES

 NR  ATOM    CHARGE       X              Y              Z

   1  C       6.00   -1.959007680    1.894011022    0.000000000
   2  C       6.00   -1.886000378   -0.705321114    0.000000000
   3  C       6.00    2.175564190   -1.696698916    0.000000000
   4  N       7.00    3.015647796    0.717535529    0.000000000
   5  N       7.00    2.341346612    2.787594986    0.000000000
   6  H       1.00   -2.210853275    2.948106453   -1.735245134
   7  H       1.00   -2.210853275    2.948106453    1.735245134
   8  H       1.00   -2.266863114   -1.739182246   -1.727263592
   9  H       1.00   -2.266863114   -1.739182246    1.727263592
  10  H       1.00    2.633941109   -2.707484979    1.728946903
  11  H       1.00    2.633941109   -2.707484979   -1.728946903

 Bond lengths in Bohr (Angstrom)

 1-2  2.600357210  1-6  2.045878553  1-7  2.045878553  2-8  2.048747124  2-9  2.048747124
     ( 1.376049776)     ( 1.082632307)     ( 1.082632307)     ( 1.084150289)     ( 1.084150289)

  3- 4  2.556221513   3-10  2.054520689   3-11  2.054520689   4- 5  2.177114660
       ( 1.352694170)       ( 1.087205528)       ( 1.087205528)       ( 1.152079464)

 Bond angles

  1-2-8  119.94792439   1-2-9  119.94792439   2-1-6  121.23046507   2-1-7  121.23046507

  3- 4- 5  142.77108279   4- 3-10  113.03738549   4- 3-11  113.03738549   6- 1- 7  116.02555382

  8- 2- 9  114.93421732  10- 3-11  114.60470712

 NUCLEAR CHARGE:                   38
 NUMBER OF PRIMITIVE AOS:         337
 NUMBER OF SYMMETRY AOS:          306
 NUMBER OF CONTRACTIONS:          234   (  234A   )
 NUMBER OF INNER CORE ORBITALS:     0   (    0A   )
 NUMBER OF OUTER CORE ORBITALS:     5   (    5A   )
 NUMBER OF VALENCE ORBITALS:       26   (   26A   )


 NUCLEAR REPULSION ENERGY  161.45551786


 Eigenvalues of metric

         1 0.394E-03 0.824E-03 0.865E-03 0.122E-02 0.136E-02 0.144E-02 0.145E-02 0.162E-02


 Contracted 2-electron integrals neglected if value below      1.0D-11
 AO integral compression algorithm  1   Integral accuracy      1.0D-11

     1250.165 MB (compressed) written to integral file ( 38.4%)


 NUMBER OF SORTED TWO-ELECTRON INTEGRALS:  378001260.     BUFFER LENGTH:  32768
 NUMBER OF SEGMENTS:  24  SEGMENT LENGTH:   15999762      RECORD LENGTH: 524288

 Memory used in sort:      16.56 MW

 SORT1 READ   407383270. AND WROTE   313973796. INTEGRALS IN    911 RECORDS. CPU TIME:     3.16 SEC, REAL TIME:     4.39 SEC
 SORT2 READ   313973796. AND WROTE   378001260. INTEGRALS IN   4769 RECORDS. CPU TIME:     2.39 SEC, REAL TIME:     3.26 SEC

 FILE SIZES:   FILE 1:  1282.4 MBYTE,  FILE 4:  3821.1 MBYTE,   TOTAL:   5103.4 MBYTE

 OPERATOR DM      FOR CENTER  0  COORDINATES:    0.000000    0.000000    0.000000


 **********************************************************************************************************************************
 DATASETS  * FILE   NREC   LENGTH (MB)   RECORD NAMES
              1      19     1125.75       500      610      700      900      950      970     1000      129      960     1100   
                                          VAR    BASINP    GEOM    SYMINP    ZMAT    AOBASIS   BASIS     P2S    ABASIS      S 
                                         1400     1410     1200     1210     1080     1600     1650     1300     1700   
                                           T        V       H0       H01     AOSYM     SMH    MOLCAS    ERIS     OPER   

 PROGRAMS   *        TOTAL       INT
 CPU TIMES  *        14.74     14.64
 REAL TIME  *        25.28 SEC
 DISK USED  *         4.75 GB
 **********************************************************************************************************************************


 Program * Restricted Hartree-Fock

 Orbital guess generated from atomic densities. Full valence occupancy:   31

 Initial occupancy:  19

 NELEC=   38   SYM=1   MS2= 0   THRE=1.0D-08   THRD=3.2D-06   THRG=3.2D-06  HFMA2=F  DIIS_START=2   DIIS_MAX=10   DIIS_INCORE=F

 Level shifts:    0.00 (CLOSED)    0.00 (OPEN)    0.30 (GAP_MIN)

 ITER           ETOT              DE          GRAD        DDIFF     DIIS  NEXP   TIME(IT)  TIME(TOT)  DIAG
   1     -225.80269570    -225.80269570     0.00D+00     0.49D-01     0     0       2.03      3.87    start
   2     -225.86416384      -0.06146814     0.43D-02     0.64D-02     1     0       2.01      5.88    diag
   3     -225.90277081      -0.03860697     0.32D-02     0.28D-02     2     0       1.97      7.85    diag
   4     -225.90472214      -0.00195133     0.52D-03     0.76D-03     3     0       1.90      9.75    diag
   5     -225.90521441      -0.00049227     0.31D-03     0.32D-03     4     0       1.94     11.69    diag
   6     -225.90535627      -0.00014187     0.11D-03     0.17D-03     5     0       1.93     13.62    diag
   7     -225.90541517      -0.00005889     0.52D-04     0.12D-03     6     0       1.91     15.53    diag
   8     -225.90544669      -0.00003152     0.34D-04     0.12D-03     7     0       1.96     17.49    fixocc
   9     -225.90545100      -0.00000431     0.12D-04     0.57D-04     8     0       1.95     19.44    diag
  10     -225.90545114      -0.00000014     0.33D-05     0.69D-05     9     0       1.98     21.42    diag/orth
  11     -225.90545117      -0.00000003     0.14D-05     0.37D-05     9     0       1.90     23.32    diag
  12     -225.90545118      -0.00000000     0.52D-06     0.14D-05     9     0       1.96     25.28    diag
  13     -225.90545118      -0.00000000     0.17D-06     0.29D-06     0     0       1.93     27.21    diag

 Final occupancy:  19

 !RHF STATE 1.1 Energy               -225.905451178206
  RHF One-electron energy            -624.769287403232
  RHF Two-electron energy             237.408318362656
  RHF Kinetic energy                  225.489863054454
  RHF Nuclear energy                  161.455517862370
  RHF Virial quotient                  -1.001843045706

 !RHF STATE 1.1 Dipole moment           0.15588399    -0.81598968     0.00000000
 Dipole moment /Debye                   0.39621757    -2.07403890     0.00000000

 Orbital energies:

           1.1          2.1          3.1          4.1          5.1          6.1          7.1          8.1          9.1         10.1
    -15.683772   -15.655611   -11.286823   -11.227691   -11.216630    -1.427526    -1.079070    -1.014210    -0.791812    -0.760490

          11.1         12.1         13.1         14.1         15.1         16.1         17.1         18.1         19.1         20.1
     -0.671664    -0.660108    -0.626309    -0.619210    -0.566836    -0.529365    -0.490547    -0.370731    -0.297887     0.120860

          21.1
      0.134394


 HOMO     19.1    -0.297887 =      -8.1059eV
 LUMO     20.1     0.120860 =       3.2888eV
 LUMO-HOMO         0.418747 =      11.3947eV

 Orbitals saved in record  2100.2


 **********************************************************************************************************************************
 DATASETS  * FILE   NREC   LENGTH (MB)   RECORD NAMES
              1      19     1125.75       500      610      700      900      950      970     1000      129      960     1100   
                                          VAR    BASINP    GEOM    SYMINP    ZMAT    AOBASIS   BASIS     P2S    ABASIS      S 
                                         1400     1410     1200     1210     1080     1600     1650     1300     1700   
                                           T        V       H0       H01     AOSYM     SMH    MOLCAS    ERIS     OPER   

              2       4        1.41       700     1000      520     2100   
                                         GEOM     BASIS   MCVARS     RHF  

 PROGRAMS   *        TOTAL    HF-SCF       INT
 CPU TIMES  *        41.96     27.22     14.64
 REAL TIME  *        56.39 SEC
 DISK USED  *         4.75 GB
 **********************************************************************************************************************************


 Program * Restricted Hartree-Fock

 Molecular orbitals read from record     2100.2  Type=RHF/CANONICAL  

 Initial occupancy:  19

 NELEC=   38   SYM=1   MS2= 0   THRE=1.0D-08   THRD=3.2D-06   THRG=3.2D-06  HFMA2=F  DIIS_START=2   DIIS_MAX=10   DIIS_INCORE=F

 Level shifts:    0.00 (CLOSED)    0.00 (OPEN)    0.30 (GAP_MIN)

 ITER           ETOT              DE          GRAD        DDIFF     DIIS  NEXP   TIME(IT)  TIME(TOT)  DIAG
   1     -225.90545118    -225.90545118     0.00D+00     0.51D-01     0     0       1.91      1.92    start
   2     -225.90545118      -0.00000000     0.91D-07     0.17D-06     1     0       1.96      3.88    diag

 Final occupancy:  19

 !RHF STATE 1.1 Energy               -225.905451178328
  RHF One-electron energy            -624.769325282701
  RHF Two-electron energy             237.408356242003
  RHF Kinetic energy                  225.489881409031
  RHF Nuclear energy                  161.455517862370
  RHF Virial quotient                  -1.001842964157

 !RHF STATE 1.1 Dipole moment           0.15587247    -0.81599387     0.00000000
 Dipole moment /Debye                   0.39618830    -2.07404955     0.00000000

 Orbital energies:

           1.1          2.1          3.1          4.1          5.1          6.1          7.1          8.1          9.1         10.1
    -15.683775   -15.655613   -11.286824   -11.227699   -11.216633    -1.427527    -1.079071    -1.014213    -0.791814    -0.760491

          11.1         12.1         13.1         14.1         15.1         16.1         17.1         18.1         19.1         20.1
     -0.671664    -0.660109    -0.626309    -0.619212    -0.566839    -0.529365    -0.490548    -0.370732    -0.297888     0.120859

          21.1
      0.134394


 HOMO     19.1    -0.297888 =      -8.1060eV
 LUMO     20.1     0.120859 =       3.2887eV
 LUMO-HOMO         0.418747 =      11.3947eV

 Orbitals saved in record  2101.2


 **********************************************************************************************************************************
 DATASETS  * FILE   NREC   LENGTH (MB)   RECORD NAMES
              1      19     1125.75       500      610      700      900      950      970     1000      129      960     1100   
                                          VAR    BASINP    GEOM    SYMINP    ZMAT    AOBASIS   BASIS     P2S    ABASIS      S 
                                         1400     1410     1200     1210     1080     1600     1650     1300     1700   
                                           T        V       H0       H01     AOSYM     SMH    MOLCAS    ERIS     OPER   

              2       5        2.98       700     1000      520     2100     2101   
                                         GEOM     BASIS   MCVARS     RHF      RHF  

 PROGRAMS   *        TOTAL    HF-SCF    HF-SCF       INT
 CPU TIMES  *        45.84      3.88     27.22     14.64
 REAL TIME  *        61.28 SEC
 DISK USED  *         4.75 GB
 **********************************************************************************************************************************


 PROGRAM * PAPT (Closed-shell)     Authors: C. Hampel, H.-J. Werner, 1991, P.J. Knowles, 2021


 Convergence thresholds:  THRVAR = 1.00D-08  THRDEN = 1.00D-06

 Number of core orbitals:           5 (   5 )
 Number of closed-shell orbitals:  14 (  14 )
 Number of external orbitals:     215 ( 215 )

 Molecular orbitals read from record     2101.2  Type=RHF/CANONICAL  

 Number of N-1 electron functions:              14
 Number of N-2 electron functions:             105
 Number of singly external CSFs:              3010
 Number of doubly external CSFs:           4531555
 Total number of CSFs:                     4534566

 Length of J-op  integral file:               0.00 MB
 Length of K-op  integral file:               3.82 MB

 Integral transformation finished. Total CPU:   4.54 sec, npass=  1  Memory used:  10.67 MW

 Reference energy:                   -225.90545118

                        CORR.ENERGY   TOTAL ENERGY   ENERGY CHANGE
 MP2:                   -0.94883592  -226.85428710    -0.94883592

 SCS-MP2 correlation energy:           -0.93424633   (PS=  1.200000  PT=  0.333333)
 SCS-MP2 total energy:               -226.83969751
 Iteration:   1     0.3072D+00
 Iteration:   2     0.5884D+00
 Iteration:   3     0.8039D-01
 Iteration:   4     0.9531D-01
 Iteration:   5     0.3445D-01
 Iteration:   6     0.2766D-01
 Iteration:   7     0.2089D-01
 Iteration:   8     0.7247D-02
 Iteration:   9     0.1299D+00
 Iteration:  10     0.3199D-02
 Iteration:  11     0.1147D-01
 Iteration:  12     0.1685D-02
 Iteration:  13     0.2083D-02
 Iteration:  14     0.1992D-02
 Iteration:  15     0.7634D-03
 Iteration:  16     0.5059D-02
 Iteration:  17     0.4255D-03
 Iteration:  18     0.3186D-03
 Iteration:  19     0.2501D-03
 Iteration:  20     0.8440D-04
 PAPT operator written to  7000.1
 PAPT orbitals and eigenvalues written to  7000.2

 MP3(D):                -0.95175164  -226.85720282    -0.00291573



 RESULTS
 =======

  Reference energy                   -225.905451178329
  MP3 singlet pair energy              -0.638897923566
  MP3 triplet pair energy              -0.312853721288
  MP3 correlation energy               -0.951751644855

 !MP3 total energy                   -226.857202823184

 Timing summary (sec):

 STEP                 CPU(USER)    SYS     CPU(TOT)    WALL
 Transformation          4.77      0.48      5.25      5.47
 CCSD iterations        75.31      0.75     76.06     33.01

 Program statistics:

 Available memory in ccsd:               393215197
 Min. memory needed in ccsd:              11443386
 Max. memory used in ccsd:                15533437
 Max. memory used in cckext:              12026809 ( 1 integral passes)



 **********************************************************************************************************************************
 DATASETS  * FILE   NREC   LENGTH (MB)   RECORD NAMES
              1      21     1192.69       500      610      700      900      950      970     1000      129      960     1100   
                                          VAR    BASINP    GEOM    SYMINP    ZMAT    AOBASIS   BASIS     P2S    ABASIS      S 
                                         1400     1410     1200     1210     1080     1600     1650     1300     1700     1380   
                                           T        V       H0       H01     AOSYM     SMH    MOLCAS    ERIS     OPER     JKOP   
                                         7000   
                                        PAPT AO    

              2       6        4.34       700     1000      520     2100     2101     7000   
                                         GEOM     BASIS   MCVARS     RHF      RHF     PAPT   

 PROGRAMS   *        TOTAL      PAPT    HF-SCF    HF-SCF       INT
 CPU TIMES  *        79.97     34.12      3.88     27.22     14.64
 REAL TIME  *        99.99 SEC
 DISK USED  *         4.75 GB
 **********************************************************************************************************************************


 PROGRAM * MP4 (Closed-shell)     Authors: C. Hampel, H.-J. Werner, 1991, M. Deegan, P.J. Knowles, 1992


 Convergence thresholds:  THRVAR = 1.00D-08  THRDEN = 1.00D-06

 MP4(T)     terms to be evaluated (factor= 0.000)


 Number of core orbitals:           5 (   5 )
 Number of closed-shell orbitals:  14 (  14 )
 Number of external orbitals:     215 ( 215 )

 Molecular orbitals read from record     7000.2  Type=PAPT/CANONICAL (state 1.1)

 Number of N-1 electron functions:              14
 Number of N-2 electron functions:             105
 Number of singly external CSFs:              3010
 Number of doubly external CSFs:           4531555
 Total number of CSFs:                     4534566

 Length of J-op  integral file:               0.00 MB
 Length of K-op  integral file:               3.82 MB

 Memory could be reduced to 175.54 Mwords without degradation in triples

 Integral transformation finished. Total CPU:  11.18 sec, npass=  1  Memory used: 107.18 MW
 Orbital energies read from record       7000.2  Type=PAPT/CANONICAL (state 1.1)

 Reference energy:                   -225.90545118

                        CORR.ENERGY   TOTAL ENERGY   ENERGY CHANGE
 MP2:                   -0.96391882  -226.86937000    -0.96391882

 SCS-MP2 correlation energy:           -0.95548036   (PS=  1.200000  PT=  0.333333)
 SCS-MP2 total energy:               -226.86093154

 MP3(D):                -0.96408043  -226.86953161    -0.00016161
 MP4(DQ):               -0.94780256  -226.85325374     0.01627787
 MP4(SDQ):              -0.95638304  -226.86183422    -0.00858048

 Norm of t1 vector:      0.07652396      S-energy:    -0.00858048      T1 diagnostic:  0.01022594

 Largest off-diagonal element in interal  block of Fock matrix:  0.19D+00
 Largest off-diagonal element in external block of Fock matrix:  0.30D+00


 Total CPU time for triples:    346.45 sec


 RESULTS
 =======

  Reference energy                   -225.905451178329
  MP4(SDQ) singlet pair energy         -0.634830141979
  MP4(SDQ) triplet pair energy         -0.312972422433
  MP4(SDQ) correlation energy          -0.956383041529

  Triples contribution                 -0.059356684338
  Total correlation energy             -1.015739725867

  MP4(SDQ) total energy              -226.861834219858
 !MP4(SDTQ) total energy             -226.921190904196

 Timing summary (sec):

 STEP                 CPU(USER)    SYS     CPU(TOT)    WALL
 Transformation         13.32      1.46     14.78     15.24
 CCSD iterations        98.27      0.51     98.78     20.04
 Triples               346.45     11.55    358.00    375.85

 Program statistics:

 Available memory in ccsd:               393215197
 Min. memory needed in ccsd:              11443386
 Max. memory used in ccsd:                15533437
 Max. memory used in cckext:              12026809 ( 1 integral passes)



 **********************************************************************************************************************************
 DATASETS  * FILE   NREC   LENGTH (MB)   RECORD NAMES
              1      22     1725.92       500      610      700      900      950      970     1000      129      960     1100   
                                          VAR    BASINP    GEOM    SYMINP    ZMAT    AOBASIS   BASIS     P2S    ABASIS      S 
                                         1400     1410     1200     1210     1080     1600     1650     1300     1700     1380   
                                           T        V       H0       H01     AOSYM     SMH    MOLCAS    ERIS     OPER     JKOP   
                                         7000     1380(1)
                                        PAPT AO   JKOP   

              2       6        4.34       700     1000      520     2100     2101     7000   
                                         GEOM     BASIS   MCVARS     RHF      RHF     PAPT   

 PROGRAMS   *        TOTAL       MP4      PAPT    HF-SCF    HF-SCF       INT
 CPU TIMES  *       457.93    377.97     34.12      3.88     27.22     14.64
 REAL TIME  *       511.45 SEC
 DISK USED  *         4.75 GB
 **********************************************************************************************************************************

 Dump information in style XML to xml output                                                                      

 Orbitals will not be exported.

 **********************************************************************************************************************************

 MP4/cc-pVTZ energy=   -226.921190904196

             MP4            PAPT          HF-SCF          HF-SCF
   -226.92119090   -226.85720282   -225.90545118   -225.90545118
 **********************************************************************************************************************************
 Molpro calculation terminated
