
 Working directory              : /var/folders/2v/xbgp75_9785319ghcgb4zr4r0000gp/T//molpro.Lcjmk2v562/
 Global scratch directory       : /var/folders/2v/xbgp75_9785319ghcgb4zr4r0000gp/T//molpro.Lcjmk2v562/
 Wavefunction directory         : /Users/sacpjk/wfu/
 Main file repository           : /var/folders/2v/xbgp75_9785319ghcgb4zr4r0000gp/T//molpro.Lcjmk2v562/

 id        : peterk

 Nodes                        nprocs
 Cardiff-University-G34YLXT77Y    1
 GA implementation: MPI file
 GA implementation (serial work in mppx): MPI file

 Using customized tuning parameters: mindgm=1; mindgv=20; mindgc=4; mindgr=1; noblas=0; minvec=7
 default implementation of scratch files=df  


 Variables initialized (1032), CPU time= 0.00 sec
 
 core,small
 angstrom
 
 geometry={
 H;C,H,1.06553056;N,C,1.15383982,H,180
 }
 basis=cc-pCVDZ
 
 
 
 hf; ccsd(t)
 
 
 
 {put,xml;noorbitals,nobasis}
 Commands initialized (841), CPU time= 0.01 sec, 704 directives.
 Default parameters read. Elapsed time= 0.51 sec

 Checking input...
 Passed
1


                                         ***  PROGRAM SYSTEM MOLPRO  ***
                                       Copyright, TTI GmbH Stuttgart, 2015
                                    Version 2023.1 linked Tue Jun  6 09:54:11 2023


 **********************************************************************************************************************************
 LABEL *                                                                                                                                                                 
  64 bit serial version                                                                  DATE: 12-Jun-23          TIME: 09:41:49  
 **********************************************************************************************************************************

 SHA1:             8ebb0dd001088a5c915591db1a321413035db0b1
 **********************************************************************************************************************************

 Memory per process:       393 MW
 Total memory per node:    524 MW
 Total GA space:           131 MW

 GA preallocation disabled
 GA check enabled

 Variable memory set to 393.2 MW

 ZUNIT=ANG

 SETTING BASIS          =    CC-PCVDZ


 Recomputing integrals since basis changed


 Using spherical harmonics

 Library entry H      S cc-pVDZ              selected for orbital group  1
 Library entry H      P cc-pVDZ              selected for orbital group  1
 Library entry C      S cc-pCVDZ             selected for orbital group  2
 Library entry C      P cc-pCVDZ             selected for orbital group  2
 Library entry C      D cc-pCVDZ             selected for orbital group  2
 Library entry N      S cc-pCVDZ             selected for orbital group  3
 Library entry N      P cc-pCVDZ             selected for orbital group  3
 Library entry N      D cc-pCVDZ             selected for orbital group  3


 PROGRAM * SEWARD (Integral evaluation for generally contracted gaussian basis sets)     Author: Roland Lindh, 1990

 Geometry written to block  1 of record 700

 Orientation using atomic masses  
 Molecule type: Linear
 Symmetry elements: X,Y
 Rotational constants:      44.4511927     44.4511927      0.0000000 GHz  (calculated with average atomic masses)

 Point group  C2v 



 ATOMIC COORDINATES

 NR  ATOM    CHARGE       X              Y              Z

   1  H       1.00    0.000000000    0.000000000   -3.068530878
   2  C       6.00    0.000000000    0.000000000   -1.054969942
   3  N       7.00    0.000000000    0.000000000    1.125471309

 Bond lengths in Bohr (Angstrom)

 1-2  2.013560936  2-3  2.180441251
     ( 1.065530560)     ( 1.153839820)

 Bond angles

  1-2-3  179.99999879

 NUCLEAR CHARGE:                   14
 NUMBER OF PRIMITIVE AOS:          69
 NUMBER OF SYMMETRY AOS:           67
 NUMBER OF CONTRACTIONS:           41   (   21A1  +    9B1  +    9B2  +    2A2  )
 NUMBER OF INNER CORE ORBITALS:     0   (    0A1  +    0B1  +    0B2  +    0A2  )
 NUMBER OF OUTER CORE ORBITALS:     2   (    2A1  +    0B1  +    0B2  +    0A2  )
 NUMBER OF VALENCE ORBITALS:        9   (    5A1  +    2B1  +    2B2  +    0A2  )


 NUCLEAR REPULSION ENERGY   23.91100196

 EXTRA SYMMETRY OF AOS IN SYMMETRY 1:   1 1 1 1 1 1 1 1 1 1   1 2 1 1 1 1 1 1 1 1   2

 Eigenvalues of metric

         1 0.561E-02 0.170E-01 0.221E-01 0.432E-01 0.563E-01 0.729E-01 0.925E-01 0.117E+00
         2 0.118E+00 0.174E+00 0.235E+00 0.580E+00 0.989E+00 0.101E+01 0.121E+01 0.175E+01
         3 0.118E+00 0.174E+00 0.235E+00 0.580E+00 0.989E+00 0.101E+01 0.121E+01 0.175E+01
         4 0.804E+00 0.120E+01


 Contracted 2-electron integrals neglected if value below      1.0D-11
 AO integral compression algorithm  1   Integral accuracy      1.0D-11

     0.786 MB (compressed) written to integral file ( 69.2%)


 NUMBER OF SORTED TWO-ELECTRON INTEGRALS:     110412.     BUFFER LENGTH:  32768
 NUMBER OF SEGMENTS:   1  SEGMENT LENGTH:     110412      RECORD LENGTH: 524288

 Memory used in sort:       0.67 MW

 SORT1 READ      147013. AND WROTE       95558. INTEGRALS IN      1 RECORDS. CPU TIME:     0.00 SEC, REAL TIME:     0.00 SEC
 SORT2 READ       95558. AND WROTE      110412. INTEGRALS IN      3 RECORDS. CPU TIME:     0.01 SEC, REAL TIME:     0.01 SEC

 FILE SIZES:   FILE 1:    30.8 MBYTE,  FILE 4:     4.3 MBYTE,   TOTAL:     35.1 MBYTE

 OPERATOR DM      FOR CENTER  0  COORDINATES:    0.000000    0.000000    0.000000


 **********************************************************************************************************************************
 DATASETS  * FILE   NREC   LENGTH (MB)   RECORD NAMES
              1      19       29.10       500      610      700      900      950      970     1000      129      960     1100   
                                          VAR    BASINP    GEOM    SYMINP    ZMAT    AOBASIS   BASIS     P2S    ABASIS      S 
                                         1400     1410     1200     1210     1080     1600     1650     1300     1700   
                                           T        V       H0       H01     AOSYM     SMH    MOLCAS    ERIS     OPER   

 PROGRAMS   *        TOTAL       INT
 CPU TIMES  *         0.20      0.10
 REAL TIME  *         3.92 SEC
 DISK USED  *        33.79 MB
 **********************************************************************************************************************************


 Program * Restricted Hartree-Fock

 Orbital guess generated from atomic densities. Full valence occupancy:    7   2   2   0

 Initial occupancy:   5   1   1   0

 NELEC=   14   SYM=1   MS2= 0   THRE=1.0D-08   THRD=3.2D-06   THRG=3.2D-06  HFMA2=F  DIIS_START=2   DIIS_MAX=10   DIIS_INCORE=F

 Level shifts:    0.00 (CLOSED)    0.00 (OPEN)    0.30 (GAP_MIN)

 ITER           ETOT              DE          GRAD        DDIFF     DIIS  NEXP   TIME(IT)  TIME(TOT)  DIAG
   1      -92.86007520     -92.86007520     0.00D+00     0.26D+00     0     0       0.00      0.01    start
   2      -92.86915723      -0.00908204     0.15D-01     0.34D-01     1     0       0.00      0.01    diag
   3      -92.88398265      -0.01482541     0.14D-01     0.17D-01     2     0       0.00      0.01    diag
   4      -92.88419461      -0.00021197     0.11D-02     0.27D-02     3     0       0.00      0.01    diag
   5      -92.88420664      -0.00001203     0.25D-03     0.62D-03     4     0       0.00      0.01    diag
   6      -92.88420746      -0.00000082     0.69D-04     0.17D-03     5     0       0.00      0.01    diag
   7      -92.88420753      -0.00000007     0.24D-04     0.49D-04     6     0       0.00      0.01    diag
   8      -92.88420753      -0.00000000     0.44D-05     0.10D-04     7     0       0.00      0.01    fixocc
   9      -92.88420753      -0.00000000     0.46D-06     0.13D-05     8     0       0.00      0.01    diag
  10      -92.88420753      -0.00000000     0.35D-07     0.86D-07     0     0       0.00      0.01    diag/orth

 Final occupancy:   5   1   1   0

 !RHF STATE 1.1 Energy                -92.884207531696
  RHF One-electron energy            -172.571736360727
  RHF Two-electron energy              55.776526869341
  RHF Kinetic energy                   92.644154165437
  RHF Nuclear energy                   23.911001959690
  RHF Virial quotient                  -1.002591133444

 !RHF STATE 1.1 Dipole moment           0.00000000     0.00000000    -1.23771116
 Dipole moment /Debye                   0.00000000     0.00000000    -3.14594797

 Orbital energies:

           1.1          2.1          3.1          4.1          5.1          6.1          7.1
    -15.603713   -11.298808    -1.235924    -0.808368    -0.578063     0.180535     0.340745

           1.2          2.2          3.2
     -0.492232     0.188558     0.669675

           1.3          2.3          3.3
     -0.492232     0.188558     0.669675

           1.4          2.4
      1.330367     2.186949


 HOMO      1.3    -0.492232 =     -13.3943eV
 LUMO      6.1     0.180535 =       4.9126eV
 LUMO-HOMO         0.672768 =      18.3069eV

 Orbitals saved in record  2100.2


 **********************************************************************************************************************************
 DATASETS  * FILE   NREC   LENGTH (MB)   RECORD NAMES
              1      19       29.10       500      610      700      900      950      970     1000      129      960     1100   
                                          VAR    BASINP    GEOM    SYMINP    ZMAT    AOBASIS   BASIS     P2S    ABASIS      S 
                                         1400     1410     1200     1210     1080     1600     1650     1300     1700   
                                           T        V       H0       H01     AOSYM     SMH    MOLCAS    ERIS     OPER   

              2       4        0.40       700     1000      520     2100   
                                         GEOM     BASIS   MCVARS     RHF  

 PROGRAMS   *        TOTAL    HF-SCF       INT
 CPU TIMES  *         0.21      0.01      0.10
 REAL TIME  *         4.27 SEC
 DISK USED  *        33.79 MB
 **********************************************************************************************************************************


 PROGRAM * CCSD (Closed-shell coupled cluster)     Authors: C. Hampel, H.-J. Werner, 1991, M. Deegan, P.J. Knowles, 1992


 CORETYPE=SMALL

 Convergence thresholds:  THRVAR = 1.00D-08  THRDEN = 1.00D-06

 CCSD(T)     terms to be evaluated (factor= 1.000)


 Number of closed-shell orbitals:   7 (   5   1   1   0 )
 Number of external orbitals:      34 (  16   8   8   2 )

 Molecular orbitals read from record     2100.2  Type=RHF/CANONICAL  

 Number of N-1 electron functions:               7
 Number of N-2 electron functions:              28
 Number of singly external CSFs:                96
 Number of doubly external CSFs:              8429
 Total number of CSFs:                        8526

 Length of J-op  integral file:               0.00 MB
 Length of K-op  integral file:               0.10 MB
 Length of 3-ext integral record:             0.00 MB

 Memory could be reduced to 0.18 Mwords without degradation in triples

 Integral transformation finished. Total CPU:   0.01 sec, npass=  1  Memory used:   0.11 MW

 Reference energy:                    -92.88420753

 MP2 singlet pair energy:              -0.24096979
 MP2 triplet pair energy:              -0.11794050
 MP2 correlation energy:               -0.35891029
 MP2 total energy:                    -93.24311782

 SCS-MP2 correlation energy:           -0.36254895   (PS=  1.200000  PT=  0.333333)
 SCS-MP2 total energy:                -93.24675648

 ITER.      SQ.NORM     CORR.ENERGY   TOTAL ENERGY   ENERGY CHANGE        DEN1      VAR(S)    VAR(P)  DIIS     TIME  TIME/IT
   1      1.10900342    -0.36912272   -93.25333025    -0.01021243     0.00098249  0.22D-02  0.27D-02  1  1     0.34     0.02
   2      1.11895955    -0.37027843   -93.25448597    -0.00115571    -0.00941206  0.32D-04  0.42D-03  2  2     0.35     0.03
   3      1.12348080    -0.37064895   -93.25485648    -0.00037051    -0.00213820  0.19D-04  0.50D-04  3  3     0.35     0.04
   4      1.12592924    -0.37068289   -93.25489042    -0.00003394    -0.00110369  0.27D-06  0.60D-05  4  4     0.36     0.03
   5      1.12650284    -0.37070778   -93.25491532    -0.00002489    -0.00011574  0.13D-06  0.37D-06  5  5     0.36     0.03
   6      1.12657374    -0.37071256   -93.25492009    -0.00000477    -0.00000857  0.79D-08  0.36D-07  6  6     0.37     0.03
   7      1.12659205    -0.37071346   -93.25492099    -0.00000090    -0.00000721  0.51D-09  0.25D-08  6  1     0.37     0.03
   8      1.12659340    -0.37071347   -93.25492100    -0.00000001    -0.00000002  0.26D-10  0.12D-09  6  3     0.38     0.03

 Norm of t1 vector:      0.06194985      S-energy:    -0.00000005      T1 diagnostic:  0.01170742
                                                                       D1 diagnostic:  0.02738304
                                                                       D2 diagnostic:  0.17682818 (internal)

 Doubles amplitudes (print threshold =  0.500E-01):

         I         J         SYM. A    SYM. B    A         B      T(IJ, AB)

         6         6         2         2         1         1     -0.10129042
         7         7         3         3         1         1     -0.10129042
         7         6         3         2         1         1     -0.06272791


 Total CPU time for triples:      0.02 sec


 RESULTS
 =======

  Reference energy                    -92.884207531696

  Correlated core orbitals:             1.1       2.1
  Orbital energies:                   -15.6037  -11.2988

  CCSD core-core energy                -0.062546415401
  CCSD core-valence energy             -0.012542637428
  CCSD valence correlation energy      -0.295624414995

  CCSD singlet pair energy             -0.272501516244
  CCSD triplet pair energy             -0.098211903904
  CCSD correlation energy              -0.370713467825

  Triples (T) contribution             -0.012531483397
  Total correlation energy             -0.383244951222

  CCSD total energy                   -93.254920999521
  CCSD[T] energy                      -93.268169886338
  CCSD-T energy                       -93.267086089291
 !CCSD(T) total energy                -93.267452482918

 Timing summary (sec):

 STEP                 CPU(USER)    SYS     CPU(TOT)    WALL
 Transformation          0.01      0.00      0.01      0.14
 CCSD iterations         0.38      0.01      0.39      0.49
 Triples                 0.02      0.00      0.02      0.03

 Program statistics:

 Available memory in ccsd:               393215799
 Min. memory needed in ccsd:                 33418
 Max. memory used in ccsd:                   39319
 Max. memory used in cckext:                 70556 ( 8 integral passes)



 **********************************************************************************************************************************
 DATASETS  * FILE   NREC   LENGTH (MB)   RECORD NAMES
              1      20       29.59       500      610      700      900      950      970     1000      129      960     1100   
                                          VAR    BASINP    GEOM    SYMINP    ZMAT    AOBASIS   BASIS     P2S    ABASIS      S 
                                         1400     1410     1200     1210     1080     1600     1650     1300     1700     1380   
                                           T        V       H0       H01     AOSYM     SMH    MOLCAS    ERIS     OPER     JKOP   

              2       4        0.40       700     1000      520     2100   
                                         GEOM     BASIS   MCVARS     RHF  

 PROGRAMS   *        TOTAL   CCSD(T)    HF-SCF       INT
 CPU TIMES  *         0.31      0.10      0.01      0.10
 REAL TIME  *         5.08 SEC
 DISK USED  *        33.79 MB
 **********************************************************************************************************************************

 Dump information in style XML to xml output                                                                      

 Orbitals will not be exported.

 **********************************************************************************************************************************

 CCSD(T)/cc-pCVDZ energy=    -93.267452482918

         CCSD(T)          HF-SCF
    -93.26745248    -92.88420753
 **********************************************************************************************************************************
 Molpro calculation terminated
