
 Working directory              : /var/folders/2v/xbgp75_9785319ghcgb4zr4r0000gp/T//molpro.TW9kf8moIv/
 Global scratch directory       : /var/folders/2v/xbgp75_9785319ghcgb4zr4r0000gp/T//molpro.TW9kf8moIv/
 Wavefunction directory         : /Users/sacpjk/wfu/
 Main file repository           : /var/folders/2v/xbgp75_9785319ghcgb4zr4r0000gp/T//molpro.TW9kf8moIv/

 id        : peterk

 Nodes                        nprocs
 Cardiff-University-G34YLXT77Y    1
 GA implementation: MPI file
 GA implementation (serial work in mppx): MPI file

 Using customized tuning parameters: mindgm=1; mindgv=20; mindgc=4; mindgr=1; noblas=0; minvec=7
 default implementation of scratch files=df  


 Variables initialized (1032), CPU time= 0.01 sec
 
 symmetry,nosym
 
 
 geometry={
           12
     C         -1.11892819     -0.39300694      0.06045902
     C         -1.06961559      0.98569179     -0.03334154
     O          1.04351911      1.35627307     -0.21429353
     N          1.47852950      0.22573745      0.22941624
     C          0.95782302     -0.89868106     -0.27213199
     H         -1.24594514     -0.86133041      1.03067153
     H         -1.48801729     -0.97414862     -0.77721283
     H         -1.09461977      1.61014793      0.84916022
     H         -1.26644925      1.48844296     -0.97025939
     H          1.75317167      0.20428368      1.21443326
     H          0.82089701     -0.92013135     -1.34318470
     H          1.22963493     -1.82327849      0.22628373
 }
 basis=cc-pVDZ
 
 
 
 hf; ccsd(t)
 
 
 
 {put,xml;noorbitals,nobasis}
 Commands initialized (841), CPU time= 0.00 sec, 704 directives.
 Default parameters read. Elapsed time= 1.24 sec

 Checking input...
 Passed
1


                                         ***  PROGRAM SYSTEM MOLPRO  ***
                                       Copyright, TTI GmbH Stuttgart, 2015
                                    Version 2023.1 linked Tue Jun  6 09:54:11 2023


 **********************************************************************************************************************************
 LABEL *                                                                                                                                                                 
  64 bit serial version                                                                  DATE: 11-Jun-23          TIME: 23:23:18  
 **********************************************************************************************************************************

 SHA1:             8ebb0dd001088a5c915591db1a321413035db0b1
 **********************************************************************************************************************************

 Memory per process:       393 MW
 Total memory per node:    524 MW
 Total GA space:           131 MW

 GA preallocation disabled
 GA check enabled

 Variable memory set to 393.2 MW

 ZSYMEL=NOSYM


 Geometry recognized as XYZ

 SETTING BASIS          =    CC-PVDZ


 Recomputing integrals since basis changed


 Using spherical harmonics

 Library entry C      S cc-pVDZ              selected for orbital group  1
 Library entry C      P cc-pVDZ              selected for orbital group  1
 Library entry C      D cc-pVDZ              selected for orbital group  1
 Library entry O      S cc-pVDZ              selected for orbital group  2
 Library entry O      P cc-pVDZ              selected for orbital group  2
 Library entry O      D cc-pVDZ              selected for orbital group  2
 Library entry N      S cc-pVDZ              selected for orbital group  3
 Library entry N      P cc-pVDZ              selected for orbital group  3
 Library entry N      D cc-pVDZ              selected for orbital group  3
 Library entry H      S cc-pVDZ              selected for orbital group  5
 Library entry H      P cc-pVDZ              selected for orbital group  5


 PROGRAM * SEWARD (Integral evaluation for generally contracted gaussian basis sets)     Author: Roland Lindh, 1990

 Geometry written to block  1 of record 700


 Point group  C1  



 ATOMIC COORDINATES

 NR  ATOM    CHARGE       X              Y              Z

   1  C       6.00   -2.114467832   -0.742675482    0.114250990
   2  C       6.00   -2.021280524    1.862687526   -0.063006379
   3  O       8.00    1.971965324    2.562984653   -0.404956082
   4  N       7.00    2.794015822    0.426581957    0.433533862
   5  C       6.00    1.810023184   -1.698261077   -0.514254931
   6  H       1.00   -2.354495081   -1.627678578    1.947686916
   7  H       1.00   -2.811945147   -1.840874096   -1.468719389
   8  H       1.00   -2.068531576    3.042738608    1.604680252
   9  H       1.00   -2.393242233    2.812749547   -1.833524517
  10  H       1.00    3.313014306    0.386040207    2.294946258
  11  H       1.00    1.551270525   -1.738796250   -2.538251218
  12  H       1.00    2.323673251   -3.445496995    0.427614276

 Bond lengths in Bohr (Angstrom)

 1-2  2.613048115  1-6  2.049958745  1-7  2.048977799  2-8  2.043509705  2-9  2.043454876
     ( 1.382765514)     ( 1.084791451)     ( 1.084272357)     ( 1.081378766)     ( 1.081349752)

  3- 4  2.437836928   4- 5  2.526163697   4-10  1.932837077   5-11  2.040871629   5-12  2.050313963
       ( 1.290047746)       ( 1.336788260)       ( 1.022813334)       ( 1.079982757)       ( 1.084979425)

 Bond angles

  1-2-8  121.30409335   1-2-9  121.05397866   2-1-6  119.68913623   2-1-7  119.61238021

  3- 4- 5  118.47242249   3- 4-10  116.11441286   4- 5-11  115.98772127   4- 5-12  116.54242229

  5- 4-10  116.63301031   6- 1- 7  114.81681703   8- 2- 9  115.74705984  11- 5-12  118.06133276

 NUCLEAR CHARGE:                   40
 NUMBER OF PRIMITIVE AOS:         184
 NUMBER OF SYMMETRY AOS:          179
 NUMBER OF CONTRACTIONS:          105   (  105A   )
 NUMBER OF INNER CORE ORBITALS:     0   (    0A   )
 NUMBER OF OUTER CORE ORBITALS:     5   (    5A   )
 NUMBER OF VALENCE ORBITALS:       27   (   27A   )


 NUCLEAR REPULSION ENERGY  180.61848696


 Eigenvalues of metric

         1 0.314E-02 0.533E-02 0.883E-02 0.123E-01 0.157E-01 0.183E-01 0.237E-01 0.271E-01


 Contracted 2-electron integrals neglected if value below      1.0D-11
 AO integral compression algorithm  1   Integral accuracy      1.0D-11

     70.779 MB (compressed) written to integral file ( 51.9%)


 NUMBER OF SORTED TWO-ELECTRON INTEGRALS:   15487395.     BUFFER LENGTH:  32768
 NUMBER OF SEGMENTS:   1  SEGMENT LENGTH:   15487395      RECORD LENGTH: 524288

 Memory used in sort:      16.04 MW

 SORT1 READ    17058310. AND WROTE    15318839. INTEGRALS IN     44 RECORDS. CPU TIME:     0.11 SEC, REAL TIME:     0.16 SEC
 SORT2 READ    15318839. AND WROTE    15487395. INTEGRALS IN    270 RECORDS. CPU TIME:     0.15 SEC, REAL TIME:     0.19 SEC

 FILE SIZES:   FILE 1:   101.4 MBYTE,  FILE 4:   184.6 MBYTE,   TOTAL:    286.0 MBYTE

 OPERATOR DM      FOR CENTER  0  COORDINATES:    0.000000    0.000000    0.000000


 **********************************************************************************************************************************
 DATASETS  * FILE   NREC   LENGTH (MB)   RECORD NAMES
              1      19       89.76       500      610      700      900      950      970     1000      129      960     1100   
                                          VAR    BASINP    GEOM    SYMINP    ZMAT    AOBASIS   BASIS     P2S    ABASIS      S 
                                         1400     1410     1200     1210     1080     1600     1650     1300     1700   
                                           T        V       H0       H01     AOSYM     SMH    MOLCAS    ERIS     OPER   

 PROGRAMS   *        TOTAL       INT
 CPU TIMES  *         1.19      1.10
 REAL TIME  *         5.61 SEC
 DISK USED  *       273.27 MB
 **********************************************************************************************************************************


 Program * Restricted Hartree-Fock

 Orbital guess generated from atomic densities. Full valence occupancy:   32

 Initial occupancy:  20

 NELEC=   40   SYM=1   MS2= 0   THRE=1.0D-08   THRD=3.2D-06   THRG=3.2D-06  HFMA2=F  DIIS_START=2   DIIS_MAX=10   DIIS_INCORE=F

 Level shifts:    0.00 (CLOSED)    0.00 (OPEN)    0.30 (GAP_MIN)

 ITER           ETOT              DE          GRAD        DDIFF     DIIS  NEXP   TIME(IT)  TIME(TOT)  DIAG
   1     -246.71474404    -246.71474404     0.00D+00     0.11D+00     0     0       0.07      0.13    start
   2     -246.77538157      -0.06063753     0.73D-02     0.16D-01     1     0       0.07      0.20    diag
   3     -246.81630567      -0.04092410     0.55D-02     0.69D-02     2     0       0.06      0.26    diag
   4     -246.81812150      -0.00181583     0.81D-03     0.18D-02     3     0       0.07      0.33    diag
   5     -246.81841527      -0.00029377     0.30D-03     0.62D-03     4     0       0.06      0.39    diag
   6     -246.81851992      -0.00010465     0.18D-03     0.34D-03     5     0       0.07      0.46    diag
   7     -246.81856365      -0.00004373     0.68D-04     0.29D-03     6     0       0.07      0.53    diag
   8     -246.81857032      -0.00000667     0.31D-04     0.13D-03     7     0       0.06      0.59    fixocc
   9     -246.81857094      -0.00000062     0.92D-05     0.38D-04     8     0       0.07      0.66    diag
  10     -246.81857099      -0.00000005     0.29D-05     0.99D-05     9     0       0.06      0.72    diag/orth
  11     -246.81857099      -0.00000000     0.93D-06     0.24D-05     9     0       0.07      0.79    diag
  12     -246.81857099      -0.00000000     0.37D-06     0.79D-06     0     0       0.06      0.85    diag

 Final occupancy:  20

 !RHF STATE 1.1 Energy               -246.818570991459
  RHF One-electron energy            -693.825514459012
  RHF Two-electron energy             266.388456506240
  RHF Kinetic energy                  246.493236091975
  RHF Nuclear energy                  180.618486961312
  RHF Virial quotient                  -1.001319853253

 !RHF STATE 1.1 Dipole moment           0.02188102    -1.15592841     0.47968247
 Dipole moment /Debye                   0.05561601    -2.93807695     1.21923122

 Orbital energies:

           1.1          2.1          3.1          4.1          5.1          6.1          7.1          8.1          9.1         10.1
    -20.531382   -15.658974   -11.304901   -11.251720   -11.219439    -1.417048    -1.116253    -1.022256    -0.876675    -0.793299

          11.1         12.1         13.1         14.1         15.1         16.1         17.1         18.1         19.1         20.1
     -0.723519    -0.650922    -0.625625    -0.599279    -0.571428    -0.565701    -0.498769    -0.428834    -0.354660    -0.313646

          21.1         22.1
      0.117382     0.174191


 HOMO     20.1    -0.313646 =      -8.5347eV
 LUMO     21.1     0.117382 =       3.1941eV
 LUMO-HOMO         0.431027 =      11.7289eV

 Orbitals saved in record  2100.2


 **********************************************************************************************************************************
 DATASETS  * FILE   NREC   LENGTH (MB)   RECORD NAMES
              1      19       89.76       500      610      700      900      950      970     1000      129      960     1100   
                                          VAR    BASINP    GEOM    SYMINP    ZMAT    AOBASIS   BASIS     P2S    ABASIS      S 
                                         1400     1410     1200     1210     1080     1600     1650     1300     1700   
                                           T        V       H0       H01     AOSYM     SMH    MOLCAS    ERIS     OPER   

              2       4        0.74       700     1000      520     2100   
                                         GEOM     BASIS   MCVARS     RHF  

 PROGRAMS   *        TOTAL    HF-SCF       INT
 CPU TIMES  *         2.05      0.86      1.10
 REAL TIME  *         7.64 SEC
 DISK USED  *       273.27 MB
 **********************************************************************************************************************************


 PROGRAM * CCSD (Closed-shell coupled cluster)     Authors: C. Hampel, H.-J. Werner, 1991, M. Deegan, P.J. Knowles, 1992


 Convergence thresholds:  THRVAR = 1.00D-08  THRDEN = 1.00D-06

 CCSD(T)     terms to be evaluated (factor= 1.000)


 Number of core orbitals:           5 (   5 )
 Number of closed-shell orbitals:  15 (  15 )
 Number of external orbitals:      85 (  85 )

 Molecular orbitals read from record     2100.2  Type=RHF/CANONICAL  

 Number of N-1 electron functions:              15
 Number of N-2 electron functions:             120
 Number of singly external CSFs:              1275
 Number of doubly external CSFs:            813450
 Total number of CSFs:                      814726

 Length of J-op  integral file:               0.00 MB
 Length of K-op  integral file:               0.82 MB
 Length of 3-ext integral record:             0.00 MB

 Memory could be reduced to 12.93 Mwords without degradation in triples

 Integral transformation finished. Total CPU:   0.46 sec, npass=  1  Memory used:  11.77 MW

 Reference energy:                   -246.81857099

 MP2 singlet pair energy:              -0.50108265
 MP2 triplet pair energy:              -0.31141663
 MP2 correlation energy:               -0.81249928
 MP2 total energy:                   -247.63107027

 SCS-MP2 correlation energy:           -0.79506952   (PS=  1.200000  PT=  0.333333)
 SCS-MP2 total energy:               -247.61364052

 ITER.      SQ.NORM     CORR.ENERGY   TOTAL ENERGY   ENERGY CHANGE        DEN1      VAR(S)    VAR(P)  DIIS     TIME  TIME/IT
   1      1.29072319    -0.84237211  -247.66094310    -0.02987283    -0.00058151  0.96D-02  0.73D-02  1  1     4.21     1.84
   2      1.31815113    -0.84579467  -247.66436566    -0.00342256    -0.02483515  0.27D-03  0.14D-02  2  2     5.68     1.77
   3      1.33430144    -0.84700787  -247.66557886    -0.00121320    -0.00592004  0.49D-03  0.11D-03  3  3     7.34     1.85
   4      1.34212982    -0.84693742  -247.66550841     0.00007045    -0.00185882  0.84D-04  0.32D-04  4  4     8.89     1.84
   5      1.34845321    -0.84698446  -247.66555545    -0.00004704    -0.00096866  0.17D-04  0.36D-05  5  5    10.60     1.86
   6      1.35058049    -0.84690539  -247.66547638     0.00007908    -0.00017298  0.26D-05  0.70D-06  6  6    12.07     1.85
   7      1.35125540    -0.84687568  -247.66544668     0.00002970    -0.00003634  0.43D-06  0.20D-06  6  2    13.59     1.83
   8      1.35140252    -0.84687497  -247.66544596     0.00000071    -0.00000340  0.13D-06  0.41D-07  6  1    15.12     1.83
   9      1.35147693    -0.84687031  -247.66544130     0.00000467     0.00000579  0.33D-07  0.89D-08  6  4    16.69     1.86
  10      1.35149089    -0.84687159  -247.66544258    -0.00000128    -0.00000340  0.11D-07  0.23D-08  6  3    18.15     1.86
  11      1.35150125    -0.84687119  -247.66544218     0.00000040    -0.00000078  0.33D-08  0.88D-09  6  5    19.56     1.84
  12      1.35150234    -0.84687136  -247.66544235    -0.00000017     0.00000024  0.75D-09  0.22D-09  6  6    21.04     1.83

 Norm of t1 vector:      0.16944835      S-energy:     0.00000163      T1 diagnostic:  0.02187569
                                                                       D1 diagnostic:  0.10451101
                                                                       D2 diagnostic:  0.21611861 (external, symmetry=1)

 Singles amplitudes (print threshold =  0.500E-01):

         I         SYM. A    A   T(IA)

        14         1         1     -0.06304390
        15         1         1      0.07214513

 Doubles amplitudes (print threshold =  0.500E-01):

         I         J         SYM. A    SYM. B    A         B      T(IJ, AB)

        14        14         1         1         1         1     -0.08121101
        15        15         1         1         1         1     -0.08481214


 Total CPU time for triples:     15.67 sec


 RESULTS
 =======

  Reference energy                   -246.818570991458
  CCSD singlet pair energy             -0.572703400597
  CCSD triplet pair energy             -0.274169589415
  CCSD correlation energy              -0.846871358502

  Triples (T) contribution             -0.035045160420
  Total correlation energy             -0.881916518922

  CCSD total energy                  -247.665442349960
  CCSD[T] energy                     -247.703298424434
  CCSD-T energy                      -247.699946070479
 !CCSD(T) total energy               -247.700487510380

 Timing summary (sec):

 STEP                 CPU(USER)    SYS     CPU(TOT)    WALL
 Transformation          0.51      0.09      0.60      0.79
 CCSD iterations        20.56      0.98     21.54     22.26
 Triples                15.67      0.98     16.65     18.34

 Program statistics:

 Available memory in ccsd:               393215080
 Min. memory needed in ccsd:               2201959
 Max. memory used in ccsd:                 2904859
 Max. memory used in cckext:               2799122 (12 integral passes)



 **********************************************************************************************************************************
 DATASETS  * FILE   NREC   LENGTH (MB)   RECORD NAMES
              1      20      140.67       500      610      700      900      950      970     1000      129      960     1100   
                                          VAR    BASINP    GEOM    SYMINP    ZMAT    AOBASIS   BASIS     P2S    ABASIS      S 
                                         1400     1410     1200     1210     1080     1600     1650     1300     1700     1380   
                                           T        V       H0       H01     AOSYM     SMH    MOLCAS    ERIS     OPER     JKOP   

              2       4        0.74       700     1000      520     2100   
                                         GEOM     BASIS   MCVARS     RHF  

 PROGRAMS   *        TOTAL   CCSD(T)    HF-SCF       INT
 CPU TIMES  *        36.64     34.59      0.86      1.10
 REAL TIME  *        49.41 SEC
 DISK USED  *       275.68 MB
 **********************************************************************************************************************************

 Dump information in style XML to xml output                                                                      

 Orbitals will not be exported.

 **********************************************************************************************************************************

 CCSD(T)/cc-pVDZ energy=   -247.700487510380

         CCSD(T)          HF-SCF
   -247.70048751   -246.81857099
 **********************************************************************************************************************************
 Molpro calculation terminated
