
 Working directory              : /var/folders/2v/xbgp75_9785319ghcgb4zr4r0000gp/T//molpro.RZxxa2SgRc/
 Global scratch directory       : /var/folders/2v/xbgp75_9785319ghcgb4zr4r0000gp/T//molpro.RZxxa2SgRc/
 Wavefunction directory         : /Users/sacpjk/wfu/
 Main file repository           : /var/folders/2v/xbgp75_9785319ghcgb4zr4r0000gp/T//molpro.RZxxa2SgRc/

 id        : peterk

 Nodes                        nprocs
 Cardiff-University-G34YLXT77Y    1
 GA implementation: MPI file
 GA implementation (serial work in mppx): MPI file

 Using customized tuning parameters: mindgm=1; mindgv=20; mindgc=4; mindgr=1; noblas=0; minvec=7
 default implementation of scratch files=df  


 Variables initialized (1032), CPU time= 0.00 sec
 
 symmetry,nosym
 
 
 geometry={
            7
     C          0.98114987      0.32463209      0.00000000
     H          1.05479862      1.40022541      0.00000000
     H          1.83571547     -0.33059054      0.00000000
     N         -0.21820442     -0.21868184      0.00000000
     H         -0.20108780     -1.24225731      0.00000000
     N         -1.37040692      0.39791534      0.00000000
     H         -2.08196481     -0.33124316      0.00000000
 }
 basis=cc-pVDZ
 
 
 
 hf; mp4
 
 
 
 {put,xml;noorbitals,nobasis}
 Commands initialized (841), CPU time= 0.00 sec, 704 directives.
 Default parameters read. Elapsed time= 2.17 sec

 Checking input...
 Passed
1


                                         ***  PROGRAM SYSTEM MOLPRO  ***
                                       Copyright, TTI GmbH Stuttgart, 2015
                                    Version 2023.1 linked Tue Jun  6 09:54:11 2023


 **********************************************************************************************************************************
 LABEL *                                                                                                                                                                 
  64 bit serial version                                                                  DATE: 10-Jun-23          TIME: 18:46:07  
 **********************************************************************************************************************************

 SHA1:             8ebb0dd001088a5c915591db1a321413035db0b1
 **********************************************************************************************************************************

 Memory per process:       805 MW
 Total memory per node:   1074 MW
 Total GA space:           268 MW

 GA preallocation disabled
 GA check enabled

 Variable memory set to 805.3 MW

 ZSYMEL=NOSYM


 Geometry recognized as XYZ

 SETTING BASIS          =    CC-PVDZ


 Recomputing integrals since basis changed


 Using spherical harmonics

 Library entry C      S cc-pVDZ              selected for orbital group  1
 Library entry C      P cc-pVDZ              selected for orbital group  1
 Library entry C      D cc-pVDZ              selected for orbital group  1
 Library entry H      S cc-pVDZ              selected for orbital group  2
 Library entry H      P cc-pVDZ              selected for orbital group  2
 Library entry N      S cc-pVDZ              selected for orbital group  3
 Library entry N      P cc-pVDZ              selected for orbital group  3
 Library entry N      D cc-pVDZ              selected for orbital group  3


 PROGRAM * SEWARD (Integral evaluation for generally contracted gaussian basis sets)     Author: Roland Lindh, 1990

 Geometry written to block  1 of record 700


 Point group  C1  



 ATOMIC COORDINATES

 NR  ATOM    CHARGE       X              Y              Z

   1  C       6.00    1.854104542    0.613465741    0.000000000
   2  H       1.00    1.993280508    2.646042538    0.000000000
   3  H       1.00    3.468999481   -0.624725580    0.000000000
   4  N       7.00   -0.412346593   -0.413248786    0.000000000
   5  H       1.00   -0.380000869   -2.347526092    0.000000000
   6  N       7.00   -2.589693758    0.751951013    0.000000000
   7  H       1.00   -3.934343292   -0.625958853    0.000000000

 Bond lengths in Bohr (Angstrom)

 1-2  2.037336100  1-3  2.034945556  1-4  2.488160659  4-5  1.934547736  4-6  2.469520449
     ( 1.078111835)     ( 1.076846813)     ( 1.316677918)     ( 1.023718575)     ( 1.306813944)

 6-7  1.925283867
     ( 1.018816347)

 Bond angles

  1-4-5  113.41274890   1-4-6  127.47590999   2-1-3  123.56144918   2-1-4  118.28786259

  3-1-4  118.15068823   4-6-7  106.14676853   5-4-6  119.11134111

 NUCLEAR CHARGE:                   24
 NUMBER OF PRIMITIVE AOS:         109
 NUMBER OF SYMMETRY AOS:          106
 NUMBER OF CONTRACTIONS:           62   (   62A   )
 NUMBER OF INNER CORE ORBITALS:     0   (    0A   )
 NUMBER OF OUTER CORE ORBITALS:     3   (    3A   )
 NUMBER OF VALENCE ORBITALS:       16   (   16A   )


 NUCLEAR REPULSION ENERGY   73.14074675

 EXTRA SYMMETRY OF AOS IN SYMMETRY 1:   1 1 1 1 1 2 1 1 2 1   1 2 1 2 1 1 1 1 2 1   1 1 1 2 1 1 1 1 1 2   1 1 2 1 1 2 1 2 1 1
                                        1 1 2 1 1 1 1 1 2 1   1 2 1 1 2 1 2 1 1 1   1 2

 Eigenvalues of metric

         1 0.481E-02 0.731E-02 0.177E-01 0.202E-01 0.344E-01 0.355E-01 0.364E-01 0.443E-01


 Contracted 2-electron integrals neglected if value below      1.0D-11
 AO integral compression algorithm  1   Integral accuracy      1.0D-11

     6.029 MB (compressed) written to integral file ( 33.0%)


 NUMBER OF SORTED TWO-ELECTRON INTEGRALS:    1908081.     BUFFER LENGTH:  32768
 NUMBER OF SEGMENTS:   1  SEGMENT LENGTH:    1908081      RECORD LENGTH: 524288

 Memory used in sort:       2.47 MW

 SORT1 READ     2273307. AND WROTE     1002302. INTEGRALS IN      3 RECORDS. CPU TIME:     0.02 SEC, REAL TIME:     0.02 SEC
 SORT2 READ     1002302. AND WROTE     1908081. INTEGRALS IN     23 RECORDS. CPU TIME:     0.04 SEC, REAL TIME:     0.05 SEC

 FILE SIZES:   FILE 1:    36.3 MBYTE,  FILE 4:    12.6 MBYTE,   TOTAL:     48.9 MBYTE

 OPERATOR DM      FOR CENTER  0  COORDINATES:    0.000000    0.000000    0.000000


 **********************************************************************************************************************************
 DATASETS  * FILE   NREC   LENGTH (MB)   RECORD NAMES
              1      19       33.40       500      610      700      900      950      970     1000      129      960     1100   
                                          VAR    BASINP    GEOM    SYMINP    ZMAT    AOBASIS   BASIS     P2S    ABASIS      S 
                                         1400     1410     1200     1210     1080     1600     1650     1300     1700   
                                           T        V       H0       H01     AOSYM     SMH    MOLCAS    ERIS     OPER   

 PROGRAMS   *        TOTAL       INT
 CPU TIMES  *         0.38      0.28
 REAL TIME  *         7.18 SEC
 DISK USED  *        47.07 MB
 **********************************************************************************************************************************


 Program * Restricted Hartree-Fock

 Orbital guess generated from atomic densities. Full valence occupancy:   19

 Initial occupancy:  12

 NELEC=   24   SYM=1   MS2= 0   THRE=1.0D-08   THRD=3.2D-06   THRG=3.2D-06  HFMA2=F  DIIS_START=2   DIIS_MAX=10   DIIS_INCORE=F

 Level shifts:    0.00 (CLOSED)    0.00 (OPEN)    0.30 (GAP_MIN)

 ITER           ETOT              DE          GRAD        DDIFF     DIIS  NEXP   TIME(IT)  TIME(TOT)  DIAG
   1     -148.92611672    -148.92611672     0.00D+00     0.14D+00     0     0       0.01      0.02    start
   2     -148.96773409      -0.04161737     0.10D-01     0.20D-01     1     0       0.01      0.03    diag
   3     -148.98532867      -0.01759458     0.61D-02     0.82D-02     2     0       0.01      0.04    diag
   4     -148.98607113      -0.00074246     0.11D-02     0.20D-02     3     0       0.01      0.05    diag
   5     -148.98614837      -0.00007724     0.29D-03     0.63D-03     4     0       0.01      0.06    diag
   6     -148.98616694      -0.00001857     0.16D-03     0.24D-03     5     0       0.01      0.07    diag
   7     -148.98617278      -0.00000585     0.54D-04     0.16D-03     6     0       0.01      0.08    diag
   8     -148.98617418      -0.00000140     0.27D-04     0.87D-04     7     0       0.01      0.09    fixocc
   9     -148.98617432      -0.00000013     0.79D-05     0.31D-04     8     0       0.01      0.10    diag
  10     -148.98617432      -0.00000001     0.20D-05     0.72D-05     9     0       0.01      0.11    diag/orth
  11     -148.98617432      -0.00000000     0.58D-06     0.19D-05     9     0       0.01      0.12    diag
  12     -148.98617432      -0.00000000     0.12D-06     0.26D-06     0     0       0.01      0.13    diag

 Final occupancy:  12

 !RHF STATE 1.1 Energy               -148.986174324981
  RHF One-electron energy            -346.158245276366
  RHF Two-electron energy             124.031324196708
  RHF Kinetic energy                  148.743318450772
  RHF Nuclear energy                   73.140746754677
  RHF Virial quotient                  -1.001632717871

 !RHF STATE 1.1 Dipole moment           0.64701610    -1.24541136     0.00000000
 Dipole moment /Debye                   1.64455088    -3.16551994     0.00000000

 Orbital energies:

           1.1          2.1          3.1          4.1          5.1          6.1          7.1          8.1          9.1         10.1
    -15.709817   -15.531008   -11.263627    -1.356698    -1.070039    -0.862558    -0.749127    -0.648522    -0.576873    -0.574596

          11.1         12.1         13.1         14.1
     -0.426974    -0.277956     0.137167     0.152957


 HOMO     12.1    -0.277956 =      -7.5636eV
 LUMO     13.1     0.137167 =       3.7325eV
 LUMO-HOMO         0.415123 =      11.2961eV

 Orbitals saved in record  2100.2


 **********************************************************************************************************************************
 DATASETS  * FILE   NREC   LENGTH (MB)   RECORD NAMES
              1      19       33.40       500      610      700      900      950      970     1000      129      960     1100   
                                          VAR    BASINP    GEOM    SYMINP    ZMAT    AOBASIS   BASIS     P2S    ABASIS      S 
                                         1400     1410     1200     1210     1080     1600     1650     1300     1700   
                                           T        V       H0       H01     AOSYM     SMH    MOLCAS    ERIS     OPER   

              2       4        0.54       700     1000      520     2100   
                                         GEOM     BASIS   MCVARS     RHF  

 PROGRAMS   *        TOTAL    HF-SCF       INT
 CPU TIMES  *         0.51      0.13      0.28
 REAL TIME  *         8.68 SEC
 DISK USED  *        47.07 MB
 **********************************************************************************************************************************


 PROGRAM * MP4 (Closed-shell)     Authors: C. Hampel, H.-J. Werner, 1991, M. Deegan, P.J. Knowles, 1992


 Convergence thresholds:  THRVAR = 1.00D-08  THRDEN = 1.00D-06

 MP4(T)     terms to be evaluated (factor= 0.000)


 Number of core orbitals:           3 (   3 )
 Number of closed-shell orbitals:   9 (   9 )
 Number of external orbitals:      50 (  50 )

 Molecular orbitals read from record     2100.2  Type=RHF/CANONICAL  

 Number of N-1 electron functions:               9
 Number of N-2 electron functions:              45
 Number of singly external CSFs:               450
 Number of doubly external CSFs:            101475
 Total number of CSFs:                      101926

 Length of J-op  integral file:               0.00 MB
 Length of K-op  integral file:               0.33 MB

 Memory could be reduced to 1.79 Mwords without degradation in triples

 Integral transformation finished. Total CPU:   0.06 sec, npass=  1  Memory used:   1.63 MW

 Reference energy:                   -148.98617432

                        CORR.ENERGY   TOTAL ENERGY   ENERGY CHANGE
 MP2:                   -0.49448667  -149.48066099    -0.49448667

 SCS-MP2 correlation energy:           -0.48535654   (PS=  1.200000  PT=  0.333333)
 SCS-MP2 total energy:               -149.47153086

 MP3(D):                -0.50950584  -149.49568017    -0.01501917
 MP4(DQ):               -0.51049102  -149.49666535    -0.00098518
 MP4(SDQ):              -0.51636468  -149.50253901    -0.00587366

 Norm of t1 vector:      0.07998507      S-energy:    -0.00587366      T1 diagnostic:  0.01333085


 Total CPU time for triples:      0.45 sec


 RESULTS
 =======

  Reference energy                   -148.986174324981
  MP4(SDQ) singlet pair energy         -0.339680679950
  MP4(SDQ) triplet pair energy         -0.170810342112
  MP4(SDQ) correlation energy          -0.516364682848

  Triples contribution                 -0.021365101513
  Total correlation energy             -0.537729784362

  MP4(SDQ) total energy              -149.502539007830
 !MP4(SDTQ) total energy             -149.523904109343

 Timing summary (sec):

 STEP                 CPU(USER)    SYS     CPU(TOT)    WALL
 Transformation          0.06      0.01      0.07      0.47
 CCSD iterations         0.79      0.01      0.80      1.24
 Triples                 0.45      0.04      0.49      0.58

 Program statistics:

 Available memory in ccsd:               805306032
 Min. memory needed in ccsd:                326271
 Max. memory used in ccsd:                  404625
 Max. memory used in cckext:                410095 ( 1 integral passes)



 **********************************************************************************************************************************
 DATASETS  * FILE   NREC   LENGTH (MB)   RECORD NAMES
              1      20       39.83       500      610      700      900      950      970     1000      129      960     1100   
                                          VAR    BASINP    GEOM    SYMINP    ZMAT    AOBASIS   BASIS     P2S    ABASIS      S 
                                         1400     1410     1200     1210     1080     1600     1650     1300     1700     1380   
                                           T        V       H0       H01     AOSYM     SMH    MOLCAS    ERIS     OPER     JKOP   

              2       4        0.54       700     1000      520     2100   
                                         GEOM     BASIS   MCVARS     RHF  

 PROGRAMS   *        TOTAL       MP4    HF-SCF       INT
 CPU TIMES  *         1.20      0.69      0.13      0.28
 REAL TIME  *        11.51 SEC
 DISK USED  *        51.84 MB
 **********************************************************************************************************************************

 Dump information in style XML to xml output                                                                      

 Orbitals will not be exported.

 **********************************************************************************************************************************

 MP4/cc-pVDZ energy=   -149.523904109343

             MP4          HF-SCF
   -149.52390411   -148.98617432
 **********************************************************************************************************************************
 Molpro calculation terminated
