
 Working directory              : /var/folders/2v/xbgp75_9785319ghcgb4zr4r0000gp/T//molpro.Iq39NGBZd9/
 Global scratch directory       : /var/folders/2v/xbgp75_9785319ghcgb4zr4r0000gp/T//molpro.Iq39NGBZd9/
 Wavefunction directory         : /Users/sacpjk/wfu/
 Main file repository           : /var/folders/2v/xbgp75_9785319ghcgb4zr4r0000gp/T//molpro.Iq39NGBZd9/

 id        : peterk

 Nodes                        nprocs
 Cardiff-University-G34YLXT77Y    1
 GA implementation: MPI file
 GA implementation (serial work in mppx): MPI file

 Using customized tuning parameters: mindgm=1; mindgv=20; mindgc=4; mindgr=1; noblas=0; minvec=7
 default implementation of scratch files=df  


 Variables initialized (1032), CPU time= 0.00 sec
 
 symmetry,nosym
 
 
 geometry={
 13
  n         -1.561581233218   -0.576912082023   -0.788367630087
  h         -0.571181756010   -0.789127207935   -0.816440103170
  h         -2.036568808421   -1.466458411756   -0.711532449360
  c         -1.843912492193    0.224839935233    0.399867016764
  h         -2.909756621017    0.439148249798    0.449654467683
  h         -1.548919569505   -0.228821022088    1.351838920679
  h         -1.331135739425    1.181261637184    0.315438988676
  o          1.616329513774   -0.580544257817   -0.717544959141
  h          1.898355632744   -0.210595493004   -1.557409039450
  c          2.002243361437    0.331040002870    0.301891202844
  h          1.679060312631   -0.098592669806    1.244957746889
  h          3.083298599779    0.470123471759    0.340931169682
  h          1.523768799743    1.304637847904    0.186714667674
 }
 basis=aug-cc-pVTZ
 
 
 
 hf; ccsd(t); counterpoise
 
 
 
 {put,xml;noorbitals,nobasis}
 Commands initialized (841), CPU time= 0.01 sec, 704 directives.
 Default parameters read. Elapsed time= 0.45 sec

 Checking input...
 Passed
1


                                         ***  PROGRAM SYSTEM MOLPRO  ***
                                       Copyright, TTI GmbH Stuttgart, 2015
                                    Version 2023.1 linked Tue Jun  6 09:54:11 2023


 **********************************************************************************************************************************
 LABEL *                                                                                                                                                                 
  64 bit serial version                                                                  DATE: 08-Jun-23          TIME: 20:00:31  
 **********************************************************************************************************************************

 SHA1:             8ebb0dd001088a5c915591db1a321413035db0b1
 **********************************************************************************************************************************

 Memory per process:       805 MW
 Total memory per node:   1074 MW
 Total GA space:           268 MW

 GA preallocation disabled
 GA check enabled

 Variable memory set to 805.3 MW

 ZSYMEL=NOSYM


 Geometry recognized as XYZ

 SETTING BASIS          =    AUG-CC-PVTZ


 Recomputing integrals since basis changed


 Using spherical harmonics

 Library entry N      S aug-cc-pVTZ          selected for orbital group  1
 Library entry N      P aug-cc-pVTZ          selected for orbital group  1
 Library entry N      D aug-cc-pVTZ          selected for orbital group  1
 Library entry N      F aug-cc-pVTZ          selected for orbital group  1
 Library entry H      S aug-cc-pVTZ          selected for orbital group  2
 Library entry H      P aug-cc-pVTZ          selected for orbital group  2
 Library entry H      D aug-cc-pVTZ          selected for orbital group  2
 Library entry C      S aug-cc-pVTZ          selected for orbital group  3
 Library entry C      P aug-cc-pVTZ          selected for orbital group  3
 Library entry C      D aug-cc-pVTZ          selected for orbital group  3
 Library entry C      F aug-cc-pVTZ          selected for orbital group  3
 Library entry O      S aug-cc-pVTZ          selected for orbital group  5
 Library entry O      P aug-cc-pVTZ          selected for orbital group  5
 Library entry O      D aug-cc-pVTZ          selected for orbital group  5
 Library entry O      F aug-cc-pVTZ          selected for orbital group  5


 PROGRAM * SEWARD (Integral evaluation for generally contracted gaussian basis sets)     Author: Roland Lindh, 1990

 Geometry written to block  1 of record 700


 Point group  C1  



 ATOMIC COORDINATES

 NR  ATOM    CHARGE       X              Y              Z

   1  N       7.00   -2.950960852   -1.090205833   -1.489798906
   2  H       1.00   -1.079377086   -1.491234300   -1.542848192
   3  H       1.00   -3.848557282   -2.771204771   -1.344601458
   4  C       6.00   -3.484489608    0.424885899    0.755639148
   5  H       1.00   -5.498643103    0.829869920    0.849723795
   6  H       1.00   -2.927033775   -0.432409063    2.554605325
   7  H       1.00   -2.515481982    2.232260976    0.596093298
   8  O       8.00    3.054420108   -1.097069650   -1.355963455
   9  H       1.00    3.587372233   -0.397967805   -2.943076549
  10  C       6.00    3.783691588    0.625574942    0.570491693
  11  H       1.00    3.172964138   -0.186313144    2.352629178
  12  H       1.00    5.826589914    0.888404606    0.644266538
  13  H       1.00    2.879505709    2.465408224    0.352839585

 Bond lengths in Bohr (Angstrom)

 1-2  1.914801256  1-3  1.911156477  1-4  2.760823781  4-5  2.056618166  4-6  2.069297215
     ( 1.013269188)     ( 1.011340454)     ( 1.460965028)     ( 1.088315465)     ( 1.095024929)

  4- 7  2.056948061   8- 9  1.814306846   8-10  2.685250588  10-11  2.051381071  10-12  2.061056945
       ( 1.088490038)       ( 0.960089836)       ( 1.420973417)       ( 1.085544114)       ( 1.090664366)

 10-13  2.061531240
       ( 1.090915352)

 Bond angles

  1-4-5  109.54406629   1-4-6  115.31871979   1-4-7  109.15197352   2-1-3  106.07836563

  2-1-4  109.04774565   3-1-4  109.27730371   5-4-6  107.79679288   5-4-7  106.97091570

  6- 4- 7  107.73101274   8-10-11  106.76853260   8-10-12  112.12813205   8-10-13  112.18950395

  9- 8-10  107.49423241  11-10-12  108.32856604  11-10-13  108.32203169  12-10-13  108.94776655

 NUCLEAR CHARGE:                   36
 NUMBER OF PRIMITIVE AOS:         511
 NUMBER OF SYMMETRY AOS:          457
 NUMBER OF CONTRACTIONS:          391   (  391A   )
 NUMBER OF INNER CORE ORBITALS:     0   (    0A   )
 NUMBER OF OUTER CORE ORBITALS:     4   (    4A   )
 NUMBER OF VALENCE ORBITALS:       25   (   25A   )


 NUCLEAR REPULSION ENERGY  129.31867320


 Eigenvalues of metric

         1 0.190E-04 0.341E-04 0.383E-04 0.447E-04 0.507E-04 0.644E-04 0.738E-04 0.935E-04


 Contracted 2-electron integrals neglected if value below      1.0D-12
 AO integral compression algorithm  1   Integral accuracy      1.0D-12

     11783.111 MB (compressed) written to integral file ( 46.2%)


 NUMBER OF SORTED TWO-ELECTRON INTEGRALS: 2936576566.     BUFFER LENGTH:  32768
 NUMBER OF SEGMENTS:  92  SEGMENT LENGTH:   31999951      RECORD LENGTH: 262144

 Memory used in sort:      32.29 MW

 SORT1 READ  3185383571. AND WROTE  2642782553. INTEGRALS IN  15165 RECORDS. CPU TIME:    26.19 SEC, REAL TIME:    52.88 SEC
 SORT2 READ  2642782553. AND WROTE  2936576566. INTEGRALS IN  44949 RECORDS. CPU TIME:    16.26 SEC, REAL TIME:    45.82 SEC

 FILE SIZES:   FILE 1: 11818.9 MBYTE,  FILE 4: 31803.4 MBYTE,   TOTAL:  43622.3 MBYTE

 OPERATOR DM      FOR CENTER  0  COORDINATES:    0.000000    0.000000    0.000000


 **********************************************************************************************************************************
 DATASETS  * FILE   NREC   LENGTH (MB)   RECORD NAMES
              1      19    10466.80       500      610      700      900      950      970     1000      129      960     1100   
                                          VAR    BASINP    GEOM    SYMINP    ZMAT    AOBASIS   BASIS     P2S    ABASIS      S 
                                         1400     1410     1200     1210     1080     1600     1650     1300     1700   
                                           T        V       H0       H01     AOSYM     SMH    MOLCAS    ERIS     OPER   

 PROGRAMS   *        TOTAL       INT
 CPU TIMES  *        98.67     98.57
 REAL TIME  *       180.87 SEC
 DISK USED  *        40.63 GB
 **********************************************************************************************************************************


 Program * Restricted Hartree-Fock

 Orbital guess generated from atomic densities. Full valence occupancy:   29

 Initial occupancy:  18

 NELEC=   36   SYM=1   MS2= 0   THRE=1.0D-08   THRD=3.2D-06   THRG=3.2D-06  HFMA2=F  DIIS_START=2   DIIS_MAX=10   DIIS_INCORE=F

 Level shifts:    0.00 (CLOSED)    0.00 (OPEN)    0.30 (GAP_MIN)

 ITER           ETOT              DE          GRAD        DDIFF     DIIS  NEXP   TIME(IT)  TIME(TOT)  DIAG
   1     -210.28561148    -210.28561148     0.00D+00     0.31D-01     0     0      16.26     30.44    start
   2     -210.33815706      -0.05254558     0.30D-02     0.34D-02     1     0      15.53     45.97    diag
   3     -210.34787947      -0.00972241     0.14D-02     0.98D-03     2     0      15.72     61.69    diag
   4     -210.34895774      -0.00107827     0.37D-03     0.35D-03     3     0      15.83     77.52    diag
   5     -210.34901981      -0.00006207     0.74D-04     0.80D-04     4     0      15.87     93.39    diag
   6     -210.34902479      -0.00000498     0.23D-04     0.24D-04     5     0      15.54    108.93    diag
   7     -210.34902534      -0.00000055     0.71D-05     0.80D-05     6     0      15.65    124.58    diag
   8     -210.34902538      -0.00000004     0.15D-05     0.23D-05     7     0      15.69    140.27    fixocc
   9     -210.34902538      -0.00000000     0.52D-06     0.71D-06     8     0      15.12    155.39    diag
  10     -210.34902538      -0.00000000     0.14D-06     0.17D-06     0     0      15.36    170.75    diag/orth

 Final occupancy:  18

 !RHF STATE 1.1 Energy               -210.349025383099
  RHF One-electron energy            -542.275107713040
  RHF Two-electron energy             202.607409127169
  RHF Kinetic energy                  210.076691259464
  RHF Nuclear energy                  129.318673202772
  RHF Virial quotient                  -1.001296355736

 !RHF STATE 1.1 Dipole moment           0.67331093     0.30836779     0.34855835
 Dipole moment /Debye                   1.71138569     0.78379273     0.88594695

 Orbital energies:

           1.1          2.1          3.1          4.1          5.1          6.1          7.1          8.1          9.1         10.1
    -20.570190   -15.521376   -11.278093   -11.231071    -1.370068    -1.156275    -0.935138    -0.884781    -0.702628    -0.654516

          11.1         12.1         13.1         14.1         15.1         16.1         17.1         18.1         19.1         20.1
     -0.625661    -0.604541    -0.590522    -0.543763    -0.517341    -0.504620    -0.460850    -0.378688     0.027158     0.037727


 HOMO     18.1    -0.378688 =     -10.3046eV
 LUMO     19.1     0.027158 =       0.7390eV
 LUMO-HOMO         0.405846 =      11.0436eV

 Orbitals saved in record  2100.2


 **********************************************************************************************************************************
 DATASETS  * FILE   NREC   LENGTH (MB)   RECORD NAMES
              1      19    10466.80       500      610      700      900      950      970     1000      129      960     1100   
                                          VAR    BASINP    GEOM    SYMINP    ZMAT    AOBASIS   BASIS     P2S    ABASIS      S 
                                         1400     1410     1200     1210     1080     1600     1650     1300     1700   
                                           T        V       H0       H01     AOSYM     SMH    MOLCAS    ERIS     OPER   

              2       4        2.97       700     1000      520     2100   
                                         GEOM     BASIS   MCVARS     RHF  

 PROGRAMS   *        TOTAL    HF-SCF       INT
 CPU TIMES  *       269.43    170.75     98.57
 REAL TIME  *       400.60 SEC
 DISK USED  *        40.63 GB
 **********************************************************************************************************************************


 PROGRAM * CCSD (Closed-shell coupled cluster)     Authors: C. Hampel, H.-J. Werner, 1991, M. Deegan, P.J. Knowles, 1992


 Convergence thresholds:  THRVAR = 1.00D-08  THRDEN = 1.00D-06

 CCSD(T)     terms to be evaluated (factor= 1.000)


 Number of core orbitals:           4 (   4 )
 Number of closed-shell orbitals:  14 (  14 )
 Number of external orbitals:     373 ( 373 )

 Molecular orbitals read from record     2100.2  Type=RHF/CANONICAL  

 Number of N-1 electron functions:              14
 Number of N-2 electron functions:             105
 Number of singly external CSFs:              5222
 Number of doubly external CSFs:          13637253
 Total number of CSFs:                    13642476

 Length of J-op  integral file:               0.00 MB
 Length of K-op  integral file:              10.56 MB
 Length of 3-ext integral record:             0.00 MB

 For full I/O caching in triples, increase memory by 85.39 Mwords to 890.75 Mwords.

 Integral transformation finished. Total CPU: 108.61 sec, npass=  1  Memory used: 479.25 MW

 Reference energy:                   -210.34902538

 MP2 singlet pair energy:              -0.56485249
 MP2 triplet pair energy:              -0.28765090
 MP2 correlation energy:               -0.85250339
 MP2 total energy:                   -211.20152877

 SCS-MP2 correlation energy:           -0.85680577   (PS=  1.200000  PT=  0.333333)
 SCS-MP2 total energy:               -211.20583115

 ITER.      SQ.NORM     CORR.ENERGY   TOTAL ENERGY   ENERGY CHANGE        DEN1      VAR(S)    VAR(P)  DIIS     TIME  TIME/IT
   1      1.24961358    -0.88992820  -211.23895358    -0.03742481    -0.01672770  0.27D-02  0.38D-02  1  1   517.51   174.34
   2      1.26648323    -0.89259081  -211.24161619    -0.00266260    -0.01904276  0.45D-04  0.46D-03  2  2   664.55   178.97
   3      1.27211300    -0.89274228  -211.24176767    -0.00015148    -0.00364233  0.26D-04  0.23D-04  3  3   802.52   173.84
   4      1.27363133    -0.89273980  -211.24176519     0.00000248    -0.00069664  0.21D-05  0.23D-05  4  4   936.74   171.03
   5      1.27395879    -0.89274316  -211.24176854    -0.00000336    -0.00009947  0.51D-06  0.21D-06  5  5  1075.06   168.93
   6      1.27405470    -0.89273644  -211.24176183     0.00000672    -0.00002047  0.82D-07  0.22D-07  6  6  1211.23   167.21
   7      1.27407571    -0.89273502  -211.24176040     0.00000143    -0.00000213  0.14D-07  0.47D-08  6  2  1342.55   165.44
   8      1.27408279    -0.89273473  -211.24176012     0.00000029    -0.00000049  0.24D-08  0.72D-09  6  1  1455.01   159.64
   9      1.27408554    -0.89273463  -211.24176002     0.00000010     0.00000035  0.29D-09  0.89D-10  6  3  1565.26   154.64

 Norm of t1 vector:      0.07072660      S-energy:    -0.00000002      T1 diagnostic:  0.00945124
                                                                       D1 diagnostic:  0.02405346
                                                                       D2 diagnostic:  0.14019312 (internal)

   CPU time for triples:   2047.82 sec for i =  1 - 13 / 14 (~  81.0 % done)
   CPU time for triples:    452.67 sec for i = 14 - 14 / 14 (  100.0 % done)

 Total CPU time for triples:   2500.49 sec


 RESULTS
 =======

  Reference energy                   -210.349025383099
  CCSD singlet pair energy             -0.629396063862
  CCSD triplet pair energy             -0.263338554166
  CCSD correlation energy              -0.892734634124

  Triples (T) contribution             -0.032073696859
  Total correlation energy             -0.924808330983

  CCSD total energy                  -211.241760017223
  CCSD[T] energy                     -211.274803075723
  CCSD-T energy                      -211.273344298139
 !CCSD(T) total energy               -211.273833714082

 Timing summary (sec):

 STEP                 CPU(USER)    SYS     CPU(TOT)    WALL
 Transformation        110.01     11.01    121.02    144.10
 CCSD iterations      1455.88     72.79   1528.67   1393.64
 Triples              2500.49     65.66   2566.15   2359.12

 Program statistics:

 Available memory in ccsd:               805305566
 Min. memory needed in ccsd:              33723737
 Max. memory used in ccsd:                46197170
 Max. memory used in cckext:              33425880 ( 9 integral passes)



 **********************************************************************************************************************************
 DATASETS  * FILE   NREC   LENGTH (MB)   RECORD NAMES
              1      20    13431.93       500      610      700      900      950      970     1000      129      960     1100   
                                          VAR    BASINP    GEOM    SYMINP    ZMAT    AOBASIS   BASIS     P2S    ABASIS      S 
                                         1400     1410     1200     1210     1080     1600     1650     1300     1700     1380   
                                           T        V       H0       H01     AOSYM     SMH    MOLCAS    ERIS     OPER     JKOP   

              2       4        2.97       700     1000      520     2100   
                                         GEOM     BASIS   MCVARS     RHF  

 PROGRAMS   *        TOTAL   CCSD(T)    HF-SCF       INT
 CPU TIMES  *      4066.27   3796.84    170.75     98.57
 REAL TIME  *      4297.95 SEC
 DISK USED  *        40.63 GB
 **********************************************************************************************************************************

 Counterpoise: absolute minimum monomer separation=    -1.000 Bragg radius scale factor=     1.400 Number of monomers= 2

 Counterpoise  CCSD(T)  energy

 Running default procedure: HF-SCF000  CCSD(T)

 Assignment of unique atoms to monomers:
1-13     1     1     1     1     1     1     1     2     2     2     2     2     2

 *** Long output written to logfile /Users/sacpjk/current/PAPT/S66/0b5ab42b/09.molpro/run/1.molpro/1.log ***


 Description                       ENERGY          ENERGR          ENERGC
 Raw                        -211.27383371   -210.34902538   -211.24176002
 Dimer basis, monomer 1      -95.70632706    -95.25542759    -95.69067599
 Dimer basis, monomer 2     -115.56284249   -115.09218080   -115.54696424
 Monomer basis, monomer 1    -95.70602149    -95.25538784    -95.69038863
 Monomer basis, monomer 2   -115.56232062   -115.09208527   -115.54647035
 Counterpoise correction       0.00082743      0.00013529      0.00078125
 Counterpoise corrected     -211.27300628   -210.34889009   -211.24097877


 **********************************************************************************************************************************
 DATASETS  * FILE   NREC   LENGTH (MB)   RECORD NAMES
              1      18       34.17       500      610      700      900      950      970     1000      129      960     1100   
                                          VAR    BASINP    GEOM    SYMINP    ZMAT    AOBASIS   BASIS     P2S    ABASIS      S 
                                         1400     1410     1200     1210     1080     1600     1650     1700   
                                           T        V       H0       H01     AOSYM     SMH    MOLCAS    OPER   

              2      12       15.79       700     1000      520     2100     2101     2102      701     1001     2103      702   
                                         GEOM     BASIS   MCVARS     RHF      RHF      RHF     GEOM     BASIS     RHF     GEOM   
                                         1002     2104   
                                         BASIS     RHF  

 PROGRAMS   *        TOTALCOUNTERPOI    HF-SCF       INT   CCSD(T)    HF-SCF       INT   CCSD(T)    HF-SCF       INT   CCSD(T)
 CPU TIMES  *      5489.76     29.42      6.15      4.62     44.73     10.38      7.61    536.47    107.66      0.07    537.70
 REAL TIME  *      5822.68 SEC
 DISK USED  *        40.63 GB
 **********************************************************************************************************************************

 Dump information in style XML to xml output                                                                      

 Orbitals will not be exported.

 **********************************************************************************************************************************

 CCSD(T)/aug-cc-pVTZ energy=   -211.273006279201

         CCSD(T)          HF-SCF         CCSD(T)          HF-SCF         CCSD(T)          HF-SCF         CCSD(T)          HF-SCF
   -115.56232062   -115.09208527    -95.70602149    -95.25538784   -115.56284249   -115.09218080    -95.70632706    -95.25542759
 **********************************************************************************************************************************
 Molpro calculation terminated
