
 Working directory              : /tmp/peterk/molpro.qYtFsBqKhf/
 Global scratch directory       : /tmp/peterk/molpro.qYtFsBqKhf/
 Wavefunction directory         : /home/peterk/wfu/
 Main file repository           : /tmp/peterk/molpro.qYtFsBqKhf/

 id        : peterk

 Nodes     nprocs
 marat        1
 GA implementation: MPI file
 GA implementation (serial work in mppx): MPI file

 Using customized tuning parameters: mindgm=1; mindgv=20; mindgc=4; mindgr=1; noblas=0; minvec=7
 default implementation of scratch files=df  


 Variables initialized (1032), CPU time= 0.01 sec
 
 core,small
 angstrom
 
 geometry={
 C1;C2,C1,1.33117445;H11,C1,1.08089487,C2,121.44926360;H12,C1,1.08089487,C2,121.44926360,H11,180;H21,C2,1.08089487,C1,121.44926360,H11,0;H22,C2,1.08089487,C1,121.44926360,H12,0
 }
 basis=cc-pCVTZ
 
 
 
 hf; hf; papt; mp3
 
 
 
 {put,xml;noorbitals,nobasis}
 Commands initialized (841), CPU time= 0.01 sec, 708 directives.
 Default parameters read. Elapsed time= 0.05 sec

 Checking input...
 Passed
1


                                         ***  PROGRAM SYSTEM MOLPRO  ***
                                       Copyright, TTI GmbH Stuttgart, 2015
                                    Version 2023.1 linked Sat Jun 10 08:01:27 2023


 **********************************************************************************************************************************
 LABEL *                                                                                                                                                                 
  (16 PROC) 64 bit serial version                                                        DATE: 12-Jun-23          TIME: 10:30:37  
 **********************************************************************************************************************************

 SHA1:             8376d659ba1296ca7ee514c57770fe2c96af278c
 **********************************************************************************************************************************

 Memory per process:      1074 MW
 Total memory per node:   1074 MW

 GA preallocation disabled
 GA check disabled

 Variable memory set to 1073.7 MW

 ZUNIT=ANG

 SETTING BASIS          =    CC-PCVTZ


 Recomputing integrals since basis changed


 Using spherical harmonics

 Library entry C      S cc-pCVTZ             selected for orbital group  1
 Library entry C      P cc-pCVTZ             selected for orbital group  1
 Library entry C      D cc-pCVTZ             selected for orbital group  1
 Library entry C      F cc-pCVTZ             selected for orbital group  1
 Library entry H      S cc-pVTZ              selected for orbital group  2
 Library entry H      P cc-pVTZ              selected for orbital group  2
 Library entry H      D cc-pVTZ              selected for orbital group  2


 PROGRAM * SEWARD (Integral evaluation for generally contracted gaussian basis sets)     Author: Roland Lindh, 1990

 Geometry written to block  1 of record 700

 Orientation using atomic masses  
 Molecule type: Asymmetric top,     Order of principal axis = 2
 Symmetry elements: X,Y,Z
 Rotational constants:      25.0620134     30.1953945    147.4188996 GHz  (calculated with average atomic masses)

 Point group  D2h 



 ATOMIC COORDINATES

 NR  ATOM    CHARGE       X              Y              Z

   1  C1      6.00    0.000000000    0.000000000   -1.257777567
   2  C2      6.00    0.000000000    0.000000000    1.257777567
   3  H11     1.00    0.000000000    1.742543158   -2.323488032
   4  H12     1.00    0.000000000   -1.742543158   -2.323488032
   5  H21     1.00    0.000000000    1.742543158    2.323488032
   6  H22     1.00    0.000000000   -1.742543158    2.323488032

 Bond lengths in Bohr (Angstrom)

 1-2  2.515555135  1-3  2.042595274  1-4  2.042595274  2-5  2.042595274  2-6  2.042595274
     ( 1.331174450)     ( 1.080894870)     ( 1.080894870)     ( 1.080894870)     ( 1.080894870)

 Bond angles

  1-2-5  121.44926360   1-2-6  121.44926360   2-1-3  121.44926360   2-1-4  121.44926360

  3-1-4  117.10147280   5-2-6  117.10147280

 NUCLEAR CHARGE:                   16
 NUMBER OF PRIMITIVE AOS:         190
 NUMBER OF SYMMETRY AOS:          174
 NUMBER OF CONTRACTIONS:          142   (   29Ag  +   14B3u +   20B2u +    8B1g +   29B1u +   14B2g +   20B3g +    8Au  )
 NUMBER OF INNER CORE ORBITALS:     0   (    0Ag  +    0B3u +    0B2u +    0B1g +    0B1u +    0B2g +    0B3g +    0Au  )
 NUMBER OF OUTER CORE ORBITALS:     2   (    1Ag  +    0B3u +    0B2u +    0B1g +    1B1u +    0B2g +    0B3g +    0Au  )
 NUMBER OF VALENCE ORBITALS:       12   (    3Ag  +    1B3u +    2B2u +    0B1g +    3B1u +    1B2g +    2B3g +    0Au  )


 NUCLEAR REPULSION ENERGY   33.43534958

 Eigenvalues of metric

         1 0.690E-03 0.476E-02 0.111E-01 0.131E-01 0.153E-01 0.352E-01 0.477E-01 0.619E-01
         2 0.225E-01 0.108E+00 0.283E+00 0.379E+00 0.413E+00 0.538E+00 0.610E+00 0.997E+00
         3 0.201E-02 0.842E-02 0.277E-01 0.291E-01 0.979E-01 0.128E+00 0.176E+00 0.331E+00
         4 0.101E+00 0.330E+00 0.501E+00 0.902E+00 0.999E+00 0.128E+01 0.175E+01 0.277E+01
         5 0.408E-03 0.880E-03 0.135E-02 0.632E-02 0.119E-01 0.188E-01 0.270E-01 0.379E-01
         6 0.144E-01 0.564E-01 0.915E-01 0.134E+00 0.278E+00 0.408E+00 0.421E+00 0.684E+00
         7 0.990E-03 0.377E-02 0.722E-02 0.129E-01 0.323E-01 0.624E-01 0.812E-01 0.261E+00
         8 0.509E-01 0.207E+00 0.411E+00 0.623E+00 0.998E+00 0.110E+01 0.129E+01 0.244E+01


 Contracted 2-electron integrals neglected if value below      1.0D-11
 AO integral compression algorithm  1   Integral accuracy      1.0D-11

     46.137 MB (compressed) written to integral file ( 55.1%)


 NUMBER OF SORTED TWO-ELECTRON INTEGRALS:    6790122.     BUFFER LENGTH:  32768
 NUMBER OF SEGMENTS:   1  SEGMENT LENGTH:    6790122      RECORD LENGTH: 524288

 Memory used in sort:       7.35 MW

 SORT1 READ    10431840. AND WROTE     6649136. INTEGRALS IN     20 RECORDS. CPU TIME:     0.25 SEC, REAL TIME:     0.28 SEC
 SORT2 READ     6649136. AND WROTE     6790122. INTEGRALS IN    176 RECORDS. CPU TIME:     0.23 SEC, REAL TIME:     0.24 SEC

 FILE SIZES:   FILE 1:    76.7 MBYTE,  FILE 4:    84.0 MBYTE,   TOTAL:    160.6 MBYTE

 OPERATOR DM      FOR CENTER  0  COORDINATES:    0.000000    0.000000    0.000000


 **********************************************************************************************************************************
 DATASETS  * FILE   NREC   LENGTH (MB)   RECORD NAMES
              1      19       58.36       500      610      700      900      950      970     1000      129      960     1100   
                                          VAR    BASINP    GEOM    SYMINP    ZMAT    AOBASIS   BASIS     P2S    ABASIS      S 
                                         1400     1410     1200     1210     1080     1600     1650     1300     1700   
                                           T        V       H0       H01     AOSYM     SMH    MOLCAS    ERIS     OPER   

 PROGRAMS   *        TOTAL       INT
 CPU TIMES  *         1.83      1.72
 REAL TIME  *         2.51 SEC
 DISK USED  *       153.58 MB
 **********************************************************************************************************************************


 Program * Restricted Hartree-Fock

 Orbital guess generated from atomic densities. Full valence occupancy:    4   1   2   0   4   1   2   0


 Initial occupancy:   3   1   1   0   2   0   1   0

 NELEC=   16   SYM=1   MS2= 0   THRE=1.0D-08   THRD=3.2D-06   THRG=3.2D-06  HFMA2=F  DIIS_START=2   DIIS_MAX=10   DIIS_INCORE=F

 Level shifts:    0.00 (CLOSED)    0.00 (OPEN)    0.30 (GAP_MIN)

 ITER           ETOT              DE          GRAD        DDIFF     DIIS  NEXP   TIME(IT)  TIME(TOT)  DIAG
   1      -78.04099394     -78.04099394     0.00D+00     0.14D+00     0     0       0.01      0.02    start
   2      -78.06180473      -0.02081079     0.93D-02     0.13D-01     1     0       0.02      0.04    diag
   3      -78.06403921      -0.00223448     0.33D-02     0.32D-02     2     0       0.01      0.05    diag
   4      -78.06433594      -0.00029674     0.93D-03     0.13D-02     3     0       0.01      0.06    diag
   5      -78.06433996      -0.00000402     0.10D-03     0.17D-03     4     0       0.01      0.07    diag
   6      -78.06434007      -0.00000011     0.16D-04     0.32D-04     5     0       0.01      0.08    diag
   7      -78.06434007      -0.00000000     0.31D-05     0.67D-05     6     0       0.01      0.09    diag
   8      -78.06434007      -0.00000000     0.40D-06     0.77D-06     7     0       0.02      0.11    fixocc
   9      -78.06434007      -0.00000000     0.59D-07     0.11D-06     0     0       0.00      0.11    diag

 Final occupancy:   3   1   1   0   2   0   1   0

 !RHF STATE 1.1 Energy                -78.064340071005
  RHF One-electron energy            -170.210884606790
  RHF Two-electron energy              58.711194956887
  RHF Kinetic energy                   77.960851816568
  RHF Nuclear energy                   33.435349578897
  RHF Virial quotient                  -1.001327438734

 !RHF STATE 1.1 Dipole moment           0.00000000     0.00000000     0.00000000
 Dipole moment /Debye                   0.00000000     0.00000000     0.00000000

 Orbital energies:

           1.1          2.1          3.1          4.1          5.1
    -11.228486    -1.033306    -0.586927     0.159188     0.368395

           1.2          2.2          3.2
     -0.376719     0.444982     0.876618

           1.3          2.3          3.3
     -0.643159     0.190880     0.441099

           1.4          2.4
      0.678594     1.220874

           1.5          2.5          3.5          4.5
    -11.226754    -0.792147     0.186788     0.366711

           1.6          2.6
      0.152320     0.564541

           1.7          2.7          3.7
     -0.506750     0.241193     0.694614

           1.8          2.8
      0.829844     1.613783


 HOMO      1.2    -0.376719 =     -10.2510eV
 LUMO      1.6     0.152320 =       4.1448eV
 LUMO-HOMO         0.529039 =      14.3959eV

 Orbitals saved in record  2100.2


 **********************************************************************************************************************************
 DATASETS  * FILE   NREC   LENGTH (MB)   RECORD NAMES
              1      19       58.36       500      610      700      900      950      970     1000      129      960     1100   
                                          VAR    BASINP    GEOM    SYMINP    ZMAT    AOBASIS   BASIS     P2S    ABASIS      S 
                                         1400     1410     1200     1210     1080     1600     1650     1300     1700   
                                           T        V       H0       H01     AOSYM     SMH    MOLCAS    ERIS     OPER   

              2       4        0.49       700     1000      520     2100   
                                         GEOM     BASIS   MCVARS     RHF  

 PROGRAMS   *        TOTAL    HF-SCF       INT
 CPU TIMES  *         1.95      0.11      1.72
 REAL TIME  *         2.64 SEC
 DISK USED  *       153.58 MB
 **********************************************************************************************************************************


 Program * Restricted Hartree-Fock

 Molecular orbitals read from record     2100.2  Type=RHF/CANONICAL  

 Initial occupancy:   3   1   1   0   2   0   1   0

 NELEC=   16   SYM=1   MS2= 0   THRE=1.0D-08   THRD=3.2D-06   THRG=3.2D-06  HFMA2=F  DIIS_START=2   DIIS_MAX=10   DIIS_INCORE=F

 Level shifts:    0.00 (CLOSED)    0.00 (OPEN)    0.30 (GAP_MIN)

 ITER           ETOT              DE          GRAD        DDIFF     DIIS  NEXP   TIME(IT)  TIME(TOT)  DIAG
   1      -78.06434007     -78.06434007     0.00D+00     0.14D+00     0     0       0.02      0.02    start
   2      -78.06434007      -0.00000000     0.21D-07     0.37D-07     1     0       0.01      0.03    diag

 Final occupancy:   3   1   1   0   2   0   1   0

 !RHF STATE 1.1 Energy                -78.064340071005
  RHF One-electron energy            -170.210884490340
  RHF Two-electron energy              58.711194840438
  RHF Kinetic energy                   77.960851635861
  RHF Nuclear energy                   33.435349578897
  RHF Virial quotient                  -1.001327441055

 !RHF STATE 1.1 Dipole moment           0.00000000     0.00000000     0.00000000
 Dipole moment /Debye                   0.00000000     0.00000000     0.00000000

 Orbital energies:

           1.1          2.1          3.1          4.1          5.1
    -11.228486    -1.033306    -0.586927     0.159188     0.368395

           1.2          2.2          3.2
     -0.376719     0.444982     0.876618

           1.3          2.3          3.3
     -0.643159     0.190880     0.441099

           1.4          2.4
      0.678594     1.220874

           1.5          2.5          3.5          4.5
    -11.226754    -0.792147     0.186788     0.366711

           1.6          2.6
      0.152320     0.564541

           1.7          2.7          3.7
     -0.506750     0.241193     0.694614

           1.8          2.8
      0.829844     1.613783


 HOMO      1.2    -0.376719 =     -10.2510eV
 LUMO      1.6     0.152320 =       4.1449eV
 LUMO-HOMO         0.529039 =      14.3959eV

 Orbitals saved in record  2101.2


 **********************************************************************************************************************************
 DATASETS  * FILE   NREC   LENGTH (MB)   RECORD NAMES
              1      19       58.36       500      610      700      900      950      970     1000      129      960     1100   
                                          VAR    BASINP    GEOM    SYMINP    ZMAT    AOBASIS   BASIS     P2S    ABASIS      S 
                                         1400     1410     1200     1210     1080     1600     1650     1300     1700   
                                           T        V       H0       H01     AOSYM     SMH    MOLCAS    ERIS     OPER   

              2       5        0.67       700     1000      520     2100     2101   
                                         GEOM     BASIS   MCVARS     RHF      RHF  

 PROGRAMS   *        TOTAL    HF-SCF    HF-SCF       INT
 CPU TIMES  *         1.98      0.04      0.11      1.72
 REAL TIME  *         2.67 SEC
 DISK USED  *       153.58 MB
 **********************************************************************************************************************************


 PROGRAM * PAPT (Closed-shell)     Authors: C. Hampel, H.-J. Werner, 1991, P.J. Knowles, 2021


 CORETYPE=SMALL

 Convergence thresholds:  THRVAR = 1.00D-08  THRDEN = 1.00D-06

 Number of closed-shell orbitals:   8 (   3   1   1   0   2   0   1   0 )
 Number of external orbitals:     134 (  26  13  19   8  27  14  19   8 )

 Molecular orbitals read from record     2101.2  Type=RHF/CANONICAL  

 Number of N-1 electron functions:               8
 Number of N-2 electron functions:              36
 Number of singly external CSFs:               183
 Number of doubly external CSFs:             78226
 Total number of CSFs:                       78410

 Length of J-op  integral file:               0.00 MB
 Length of K-op  integral file:               0.27 MB

 Integral transformation finished. Total CPU:   0.04 sec, npass=  1  Memory used:   0.16 MW

 Reference energy:                    -78.06434007

                        CORR.ENERGY   TOTAL ENERGY   ENERGY CHANGE
 MP2:                   -0.43252068   -78.49686075    -0.43252068

 SCS-MP2 correlation energy:           -0.44987411   (PS=  1.200000  PT=  0.333333)
 SCS-MP2 total energy:                -78.51421418
 Iteration:   1     0.5079D+00
 Iteration:   2     0.8268D+00
 Iteration:   3     0.1602D+00
 Iteration:   4     0.1450D+00
 Iteration:   5     0.6449D+00
 Iteration:   6     0.4928D-01
 Iteration:   7     0.3974D+00
 Iteration:   8     0.1026D-01
 Iteration:   9     0.1179D-01
 Iteration:  10     0.6405D-02
 Iteration:  11     0.1312D-02
 Iteration:  12     0.1595D-02
 Iteration:  13     0.5036D-03
 Iteration:  14     0.1698D-03
 Iteration:  15     0.1436D-02
 Iteration:  16     0.4047D-04
 PAPT operator written to  7000.1
 PAPT orbitals and eigenvalues written to  7000.2

 MP3(D):                -0.45821078   -78.52255085    -0.02569010



 RESULTS
 =======

  Reference energy                    -78.064340071005

  Correlated core orbitals:             1.1       1.5
  Orbital energies:                   -11.2285  -11.2268

  MP3 core-core energy                 -0.077249655782
  MP3 core-valence energy              -0.022251726041
  MP3 valence correlation energy       -0.358709393956

  MP3 singlet pair energy              -0.342548104272
  MP3 triplet pair energy              -0.115662671507
  MP3 correlation energy               -0.458210775779

 !MP3 total energy                    -78.522550846784

 Timing summary (sec):

 STEP                 CPU(USER)    SYS     CPU(TOT)    WALL
 Transformation          0.04      0.00      0.04      0.04
 CCSD iterations         2.47      0.02      2.49      0.19

 Program statistics:

 Available memory in ccsd:              1073741565
 Min. memory needed in ccsd:                241483
 Max. memory used in ccsd:                  307026
 Max. memory used in cckext:                281089 ( 1 integral passes)



 **********************************************************************************************************************************
 DATASETS  * FILE   NREC   LENGTH (MB)   RECORD NAMES
              1      21       59.58       500      610      700      900      950      970     1000      129      960     1100   
                                          VAR    BASINP    GEOM    SYMINP    ZMAT    AOBASIS   BASIS     P2S    ABASIS      S 
                                         1400     1410     1200     1210     1080     1600     1650     1300     1700     1380   
                                           T        V       H0       H01     AOSYM     SMH    MOLCAS    ERIS     OPER     JKOP   
                                         7000   
                                        PAPT AO    

              2       6        0.84       700     1000      520     2100     2101     7000   
                                         GEOM     BASIS   MCVARS     RHF      RHF     PAPT   

 PROGRAMS   *        TOTAL      PAPT    HF-SCF    HF-SCF       INT
 CPU TIMES  *         2.20      0.21      0.04      0.11      1.72
 REAL TIME  *         2.93 SEC
 DISK USED  *       153.58 MB
 **********************************************************************************************************************************


 PROGRAM * MP3 (Closed-shell)     Authors: C. Hampel, H.-J. Werner, 1991, M. Deegan, P.J. Knowles, 1992


 CORETYPE=SMALL

 Convergence thresholds:  THRVAR = 1.00D-08  THRDEN = 1.00D-06

 Number of closed-shell orbitals:   8 (   3   1   1   0   2   0   1   0 )
 Number of external orbitals:     134 (  26  13  19   8  27  14  19   8 )

 Molecular orbitals read from record     7000.2  Type=PAPT/CANONICAL (state 1.1)

 Number of N-1 electron functions:               8
 Number of N-2 electron functions:              36
 Number of singly external CSFs:               183
 Number of doubly external CSFs:             78226
 Total number of CSFs:                       78410

 Length of J-op  integral file:               0.00 MB
 Length of K-op  integral file:               0.27 MB

 Integral transformation finished. Total CPU:   0.03 sec, npass=  1  Memory used:   0.16 MW
 Orbital energies read from record       7000.2  Type=PAPT/CANONICAL (state 1.1)

 Reference energy:                    -78.06434007

                        CORR.ENERGY   TOTAL ENERGY   ENERGY CHANGE
 MP2:                   -0.46331803   -78.52765810    -0.46331803

 SCS-MP2 correlation energy:           -0.48364082   (PS=  1.200000  PT=  0.333333)
 SCS-MP2 total energy:                -78.54798089

 MP3(D):                -0.46360594   -78.52794601    -0.00028791



 RESULTS
 =======

  Reference energy                    -78.064340071005

  Correlated core orbitals:             1.1       1.5
  Orbital energies:                   -10.2890  -10.2881

  MP3 core-core energy                 -0.077757132470
  MP3 core-valence energy              -0.021992004116
  MP3 valence correlation energy       -0.363856801903

  MP3 singlet pair energy              -0.348773910364
  MP3 triplet pair energy              -0.114832028125
  MP3 correlation energy               -0.463605938489

 !MP3 total energy                    -78.527946009494

 Timing summary (sec):

 STEP                 CPU(USER)    SYS     CPU(TOT)    WALL
 Transformation          0.04      0.01      0.05      0.06
 CCSD iterations         2.60      0.01      2.61      0.08

 Program statistics:

 Available memory in ccsd:              1073741565
 Min. memory needed in ccsd:                241483
 Max. memory used in ccsd:                  307026
 Max. memory used in cckext:                281089 ( 1 integral passes)



 **********************************************************************************************************************************
 DATASETS  * FILE   NREC   LENGTH (MB)   RECORD NAMES
              1      21       59.58       500      610      700      900      950      970     1000      129      960     1100   
                                          VAR    BASINP    GEOM    SYMINP    ZMAT    AOBASIS   BASIS     P2S    ABASIS      S 
                                         1400     1410     1200     1210     1080     1600     1650     1300     1700     1380   
                                           T        V       H0       H01     AOSYM     SMH    MOLCAS    ERIS     OPER     JKOP   
                                         7000   
                                        PAPT AO    

              2       6        0.84       700     1000      520     2100     2101     7000   
                                         GEOM     BASIS   MCVARS     RHF      RHF     PAPT   

 PROGRAMS   *        TOTAL       MP3      PAPT    HF-SCF    HF-SCF       INT
 CPU TIMES  *         2.33      0.14      0.21      0.04      0.11      1.72
 REAL TIME  *         3.10 SEC
 DISK USED  *       153.58 MB
 **********************************************************************************************************************************

 Dump information in style XML to xml output                                                                      

 Orbitals will not be exported.

 **********************************************************************************************************************************

 MP3/cc-pCVTZ energy=    -78.527946009494

             MP3            PAPT          HF-SCF          HF-SCF
    -78.52794601    -78.52255085    -78.06434007    -78.06434007
 **********************************************************************************************************************************
 Molpro calculation terminated
