
 Working directory              : /var/folders/2v/xbgp75_9785319ghcgb4zr4r0000gp/T//molpro.rlCAlmhGQE/
 Global scratch directory       : /var/folders/2v/xbgp75_9785319ghcgb4zr4r0000gp/T//molpro.rlCAlmhGQE/
 Wavefunction directory         : /Users/sacpjk/wfu/
 Main file repository           : /var/folders/2v/xbgp75_9785319ghcgb4zr4r0000gp/T//molpro.rlCAlmhGQE/

 id        : peterk

 Nodes                        nprocs
 Cardiff-University-G34YLXT77Y    1
 GA implementation: MPI file
 GA implementation (serial work in mppx): MPI file

 Using customized tuning parameters: mindgm=1; mindgv=20; mindgc=4; mindgr=1; noblas=0; minvec=7
 default implementation of scratch files=df  


 Variables initialized (1032), CPU time= 0.01 sec
 
 symmetry,nosym
 
 
 geometry={
 3
  o         -0.393647332292    0.000464066169    0.000000000000
  h          0.197712208696    0.756283351463    0.000000000000
  h          0.195935123596   -0.756747417685    0.000000000000
 }
 basis=aug-cc-pVTZ
 
 
 
 hf; ccsd
 
 
 
 {put,xml;noorbitals,nobasis}
 Commands initialized (841), CPU time= 0.00 sec, 704 directives.
 Default parameters read. Elapsed time= 0.08 sec

 Checking input...
 Passed
1


                                         ***  PROGRAM SYSTEM MOLPRO  ***
                                       Copyright, TTI GmbH Stuttgart, 2015
                                    Version 2023.1 linked Tue Jun  6 09:54:11 2023


 **********************************************************************************************************************************
 LABEL *                                                                                                                                                                 
  64 bit serial version                                                                  DATE: 09-Jun-23          TIME: 00:36:08  
 **********************************************************************************************************************************

 SHA1:             8ebb0dd001088a5c915591db1a321413035db0b1
 **********************************************************************************************************************************

 Memory per process:       805 MW
 Total memory per node:   1074 MW
 Total GA space:           268 MW

 GA preallocation disabled
 GA check enabled

 Variable memory set to 805.3 MW

 ZSYMEL=NOSYM


 Geometry recognized as XYZ

 SETTING BASIS          =    AUG-CC-PVTZ


 Recomputing integrals since basis changed


 Using spherical harmonics

 Library entry O      S aug-cc-pVTZ          selected for orbital group  1
 Library entry O      P aug-cc-pVTZ          selected for orbital group  1
 Library entry O      D aug-cc-pVTZ          selected for orbital group  1
 Library entry O      F aug-cc-pVTZ          selected for orbital group  1
 Library entry H      S aug-cc-pVTZ          selected for orbital group  2
 Library entry H      P aug-cc-pVTZ          selected for orbital group  2
 Library entry H      D aug-cc-pVTZ          selected for orbital group  2


 PROGRAM * SEWARD (Integral evaluation for generally contracted gaussian basis sets)     Author: Roland Lindh, 1990

 Geometry written to block  1 of record 700


 Point group  C1  



 ATOMIC COORDINATES

 NR  ATOM    CHARGE       X              Y              Z

   1  O       8.00   -0.743885648    0.000876958    0.000000000
   2  H       1.00    0.373621926    1.429168407    0.000000000
   3  H       1.00    0.370263722   -1.430045365    0.000000000

 Bond lengths in Bohr (Angstrom)

 1-2  1.813515823  1-3  1.813523507
     ( 0.959671245)     ( 0.959675312)

 Bond angles

  2-1-3  104.05491273

 NUCLEAR CHARGE:                   10
 NUMBER OF PRIMITIVE AOS:         121
 NUMBER OF SYMMETRY AOS:          108
 NUMBER OF CONTRACTIONS:           92   (   92A   )
 NUMBER OF INNER CORE ORBITALS:     0   (    0A   )
 NUMBER OF OUTER CORE ORBITALS:     1   (    1A   )
 NUMBER OF VALENCE ORBITALS:        6   (    6A   )


 NUCLEAR REPULSION ENERGY    9.17236909

 EXTRA SYMMETRY OF AOS IN SYMMETRY 1:   1 1 1 1 1 1 1 2 1 1   2 1 1 2 1 1 2 1 1 2   1 2 1 1 2 1 2 1 1 2   1 2 1 1 2 1 2 1 2 1
                                        1 2 1 2 1 2 1 1 1 1   1 1 2 1 1 2 1 1 2 1   1 2 1 2 1 1 2 1 2 1   1 1 1 1 1 2 1 1 2 1
                                        1 2 1 1 2 1 2 1 1 2   1 2

 Eigenvalues of metric

         1 0.386E-03 0.396E-03 0.166E-02 0.187E-02 0.322E-02 0.509E-02 0.561E-02 0.599E-02


 Contracted 2-electron integrals neglected if value below      1.0D-11
 AO integral compression algorithm  1   Integral accuracy      1.0D-11

     28.574 MB (compressed) written to integral file ( 30.2%)


 NUMBER OF SORTED TWO-ELECTRON INTEGRALS:    9152781.     BUFFER LENGTH:  32768
 NUMBER OF SEGMENTS:   1  SEGMENT LENGTH:    9152781      RECORD LENGTH: 524288

 Memory used in sort:       9.71 MW

 SORT1 READ    11938930. AND WROTE     4389789. INTEGRALS IN     13 RECORDS. CPU TIME:     0.05 SEC, REAL TIME:     0.06 SEC
 SORT2 READ     4389789. AND WROTE     9152781. INTEGRALS IN    109 RECORDS. CPU TIME:     0.09 SEC, REAL TIME:     0.12 SEC

 FILE SIZES:   FILE 1:    58.9 MBYTE,  FILE 4:    54.6 MBYTE,   TOTAL:    113.5 MBYTE

 OPERATOR DM      FOR CENTER  0  COORDINATES:    0.000000    0.000000    0.000000


 **********************************************************************************************************************************
 DATASETS  * FILE   NREC   LENGTH (MB)   RECORD NAMES
              1      19       49.51       500      610      700      900      950      970     1000      129      960     1100   
                                          VAR    BASINP    GEOM    SYMINP    ZMAT    AOBASIS   BASIS     P2S    ABASIS      S 
                                         1400     1410     1200     1210     1080     1600     1650     1300     1700   
                                           T        V       H0       H01     AOSYM     SMH    MOLCAS    ERIS     OPER   

 PROGRAMS   *        TOTAL       INT
 CPU TIMES  *         0.50      0.41
 REAL TIME  *         0.99 SEC
 DISK USED  *       108.61 MB
 **********************************************************************************************************************************


 Program * Restricted Hartree-Fock

 Orbital guess generated from atomic densities. Full valence occupancy:    7

 Initial occupancy:   5

 NELEC=   10   SYM=1   MS2= 0   THRE=1.0D-08   THRD=3.2D-06   THRG=3.2D-06  HFMA2=F  DIIS_START=2   DIIS_MAX=10   DIIS_INCORE=F

 Level shifts:    0.00 (CLOSED)    0.00 (OPEN)    0.30 (GAP_MIN)

 ITER           ETOT              DE          GRAD        DDIFF     DIIS  NEXP   TIME(IT)  TIME(TOT)  DIAG
   1      -76.02252186     -76.02252186     0.00D+00     0.67D-01     0     0       0.04      0.07    start
   2      -76.04932270      -0.02680084     0.10D-01     0.11D-01     1     0       0.04      0.11    diag
   3      -76.06020743      -0.01088473     0.64D-02     0.39D-02     2     0       0.04      0.15    diag
   4      -76.06038907      -0.00018163     0.60D-03     0.51D-03     3     0       0.04      0.19    diag
   5      -76.06040688      -0.00001781     0.16D-03     0.15D-03     4     0       0.03      0.22    diag
   6      -76.06040789      -0.00000101     0.30D-04     0.37D-04     5     0       0.04      0.26    diag
   7      -76.06040794      -0.00000005     0.58D-05     0.98D-05     6     0       0.04      0.30    diag
   8      -76.06040794      -0.00000000     0.11D-05     0.17D-05     7     0       0.05      0.35    fixocc
   9      -76.06040794      -0.00000000     0.13D-06     0.14D-06     0     0       0.04      0.39    diag

 Final occupancy:   5

 !RHF STATE 1.1 Energy                -76.060407939959
  RHF One-electron energy            -123.001962634336
  RHF Two-electron energy              37.769185609230
  RHF Kinetic energy                   75.949875906336
  RHF Nuclear energy                    9.172369085148
  RHF Virial quotient                  -1.001455328693

 !RHF STATE 1.1 Dipole moment           0.78375276    -0.00092324     0.00000000
 Dipole moment /Debye                   1.99210082    -0.00234664     0.00000000

 Orbital energies:

           1.1          2.1          3.1          4.1          5.1          6.1          7.1
    -20.567822    -1.352676    -0.715619    -0.585380    -0.510296     0.029384     0.047703


 HOMO      5.1    -0.510296 =     -13.8859eV
 LUMO      6.1     0.029384 =       0.7996eV
 LUMO-HOMO         0.539680 =      14.6854eV

 Orbitals saved in record  2100.2


 **********************************************************************************************************************************
 DATASETS  * FILE   NREC   LENGTH (MB)   RECORD NAMES
              1      19       49.51       500      610      700      900      950      970     1000      129      960     1100   
                                          VAR    BASINP    GEOM    SYMINP    ZMAT    AOBASIS   BASIS     P2S    ABASIS      S 
                                         1400     1410     1200     1210     1080     1600     1650     1300     1700   
                                           T        V       H0       H01     AOSYM     SMH    MOLCAS    ERIS     OPER   

              2       4        0.55       700     1000      520     2100   
                                         GEOM     BASIS   MCVARS     RHF  

 PROGRAMS   *        TOTAL    HF-SCF       INT
 CPU TIMES  *         0.89      0.39      0.41
 REAL TIME  *         1.60 SEC
 DISK USED  *       108.61 MB
 **********************************************************************************************************************************


 PROGRAM * CCSD (Closed-shell coupled cluster)     Authors: C. Hampel, H.-J. Werner, 1991, M. Deegan, P.J. Knowles, 1992


 Convergence thresholds:  THRVAR = 1.00D-08  THRDEN = 1.00D-06

 Number of core orbitals:           1 (   1 )
 Number of closed-shell orbitals:   4 (   4 )
 Number of external orbitals:      87 (  87 )

 Molecular orbitals read from record     2100.2  Type=RHF/CANONICAL  

 Number of N-1 electron functions:               4
 Number of N-2 electron functions:              10
 Number of singly external CSFs:               348
 Number of doubly external CSFs:             60726
 Total number of CSFs:                       61075

 Length of J-op  integral file:               0.00 MB
 Length of K-op  integral file:               0.64 MB
 Length of 3-ext integral record:             0.00 MB

 Integral transformation finished. Total CPU:   0.09 sec, npass=  1  Memory used:   2.30 MW

 Reference energy:                    -76.06040794

 MP2 singlet pair energy:              -0.17079334
 MP2 triplet pair energy:              -0.09778532
 MP2 correlation energy:               -0.26857866
 MP2 total energy:                    -76.32898660

 SCS-MP2 correlation energy:           -0.26579621   (PS=  1.200000  PT=  0.333333)
 SCS-MP2 total energy:                -76.32620415

 ITER.      SQ.NORM     CORR.ENERGY   TOTAL ENERGY   ENERGY CHANGE        DEN1      VAR(S)    VAR(P)  DIIS     TIME  TIME/IT
   1      1.06303006    -0.27289767   -76.33330561    -0.00431901     0.00122848  0.88D-03  0.96D-03  1  1     1.20     0.08
   2      1.06670642    -0.27319579   -76.33360373    -0.00029811    -0.00478461  0.11D-04  0.12D-03  2  2     1.26     0.07
   3      1.06805174    -0.27327171   -76.33367965    -0.00007593    -0.00088082  0.11D-04  0.53D-05  3  3     1.32     0.07
   4      1.06849360    -0.27326463   -76.33367257     0.00000708    -0.00020531  0.45D-06  0.61D-06  4  4     1.38     0.07
   5      1.06858930    -0.27326167   -76.33366961     0.00000296    -0.00002986  0.14D-06  0.38D-07  5  5     1.44     0.08
   6      1.06862282    -0.27325832   -76.33366626     0.00000336    -0.00000694  0.10D-07  0.22D-08  6  6     1.50     0.07
   7      1.06862868    -0.27325808   -76.33366602     0.00000023    -0.00000067  0.68D-09  0.38D-09  6  1     1.56     0.08
   8      1.06862961    -0.27325806   -76.33366600     0.00000002     0.00000038  0.88D-10  0.32D-10  6  2     1.63     0.08

 Norm of t1 vector:      0.04012860      S-energy:    -0.00000017      T1 diagnostic:  0.01003215
                                                                       D1 diagnostic:  0.02129918
                                                                       D2 diagnostic:  0.12712615 (internal)


 RESULTS
 =======

  Reference energy                    -76.060407939959
  CCSD singlet pair energy             -0.186419871418
  CCSD triplet pair energy             -0.086838022046
  CCSD correlation energy              -0.273258060134

 !CCSD total energy                   -76.333666000093

 Timing summary (sec):

 STEP                 CPU(USER)    SYS     CPU(TOT)    WALL
 Transformation          0.09      0.01      0.10      0.28
 CCSD iterations         1.54      0.04      1.58      0.71

 Program statistics:

 Available memory in ccsd:               805306299
 Min. memory needed in ccsd:                288418
 Max. memory used in ccsd:                  330600
 Max. memory used in cckext:                241058 ( 8 integral passes)



 **********************************************************************************************************************************
 DATASETS  * FILE   NREC   LENGTH (MB)   RECORD NAMES
              1      20       60.78       500      610      700      900      950      970     1000      129      960     1100   
                                          VAR    BASINP    GEOM    SYMINP    ZMAT    AOBASIS   BASIS     P2S    ABASIS      S 
                                         1400     1410     1200     1210     1080     1600     1650     1300     1700     1380   
                                           T        V       H0       H01     AOSYM     SMH    MOLCAS    ERIS     OPER     JKOP   

              2       4        0.55       700     1000      520     2100   
                                         GEOM     BASIS   MCVARS     RHF  

 PROGRAMS   *        TOTAL      CCSD    HF-SCF       INT
 CPU TIMES  *         1.50      0.61      0.39      0.41
 REAL TIME  *         2.61 SEC
 DISK USED  *       108.61 MB
 **********************************************************************************************************************************

 Dump information in style XML to xml output                                                                      

 Orbitals will not be exported.

 **********************************************************************************************************************************

 CCSD/aug-cc-pVTZ energy=    -76.333666000093

            CCSD          HF-SCF
    -76.33366600    -76.06040794
 **********************************************************************************************************************************
 Molpro calculation terminated
