
 Working directory              : /var/folders/2v/xbgp75_9785319ghcgb4zr4r0000gp/T//molpro.TocyCEShKC/
 Global scratch directory       : /var/folders/2v/xbgp75_9785319ghcgb4zr4r0000gp/T//molpro.TocyCEShKC/
 Wavefunction directory         : /Users/sacpjk/wfu/
 Main file repository           : /var/folders/2v/xbgp75_9785319ghcgb4zr4r0000gp/T//molpro.TocyCEShKC/

 id        : peterk

 Nodes                        nprocs
 Cardiff-University-G34YLXT77Y    1
 GA implementation: MPI file
 GA implementation (serial work in mppx): MPI file

 Using customized tuning parameters: mindgm=1; mindgv=20; mindgc=4; mindgr=1; noblas=0; minvec=7
 default implementation of scratch files=df  


 Variables initialized (1032), CPU time= 0.00 sec
 
 symmetry,nosym
 
 
 geometry={
           16
     H         -1.95893195      1.23117463      1.29239846
     C         -1.06070463      1.11528658      0.69655225
     C          0.18777282      0.75556346      1.24302544
     C         -1.06070463      1.11528658     -0.69655225
     H          2.34975759      0.20429126      0.00000000
     P          1.42058126      1.27945464      0.00000000
     C          0.18777282     -1.39749831      0.69647025
     H          0.37679588      0.79493047      2.30956082
     C          0.18777282     -1.39749831     -0.69647025
     H         -1.95893195      1.23117463     -1.29239846
     C          0.18777282      0.75556346     -1.24302544
     H          0.37679588      0.79493047     -2.30956082
     H          1.10246114     -1.60704838     -1.23710044
     H         -0.72033551     -1.63428139      1.23514844
     H          1.10246114     -1.60704838      1.23710044
     H         -0.72033551     -1.63428139     -1.23514844
 }
 basis=cc-pVTZ
 
 
 
 hf; hf; papt; mp4
 
 
 
 {put,xml;noorbitals,nobasis}
 Commands initialized (841), CPU time= 0.01 sec, 704 directives.
 Default parameters read. Elapsed time= 1.41 sec

 Checking input...
 Passed
1


                                         ***  PROGRAM SYSTEM MOLPRO  ***
                                       Copyright, TTI GmbH Stuttgart, 2015
                                    Version 2023.1 linked Tue Jun  6 09:54:11 2023


 **********************************************************************************************************************************
 LABEL *                                                                                                                                                                 
  64 bit serial version                                                                  DATE: 11-Jun-23          TIME: 14:24:42  
 **********************************************************************************************************************************

 SHA1:             8ebb0dd001088a5c915591db1a321413035db0b1
 **********************************************************************************************************************************

 Memory per process:       393 MW
 Total memory per node:    524 MW
 Total GA space:           131 MW

 GA preallocation disabled
 GA check enabled

 Variable memory set to 393.2 MW

 ZSYMEL=NOSYM


 Geometry recognized as XYZ

 SETTING BASIS          =    CC-PVTZ


 Recomputing integrals since basis changed


 Using spherical harmonics

 Library entry H      S cc-pVTZ              selected for orbital group  1
 Library entry H      P cc-pVTZ              selected for orbital group  1
 Library entry H      D cc-pVTZ              selected for orbital group  1
 Library entry C      S cc-pVTZ              selected for orbital group  2
 Library entry C      P cc-pVTZ              selected for orbital group  2
 Library entry C      D cc-pVTZ              selected for orbital group  2
 Library entry C      F cc-pVTZ              selected for orbital group  2
 Library entry P      S cc-pVTZ              selected for orbital group  4
 Library entry P      P cc-pVTZ              selected for orbital group  4
 Library entry P      D cc-pVTZ              selected for orbital group  4
 Library entry P      F cc-pVTZ              selected for orbital group  4


 PROGRAM * SEWARD (Integral evaluation for generally contracted gaussian basis sets)     Author: Roland Lindh, 1990

 Geometry written to block  1 of record 700


 Point group  C1  



 ATOMIC COORDINATES

 NR  ATOM    CHARGE       X              Y              Z

   1  H       1.00   -3.701844882    2.326582862    2.442279133
   2  C       6.00   -2.004441250    2.107586187    1.316292984
   3  C       6.00    0.354839203    1.427808009    2.348977648
   4  C       6.00   -2.004441250    2.107586187   -1.316292984
   5  H       1.00    4.440398304    0.386054531    0.000000000
   6  P      15.00    2.684509519    2.417818858    0.000000000
   7  C       6.00    0.354839203   -2.640889066    1.316138026
   8  H       1.00    0.712041018    1.502200876    4.364437418
   9  C       6.00    0.354839203   -2.640889066   -1.316138026
  10  H       1.00   -3.701844882    2.326582862   -2.442279133
  11  C       6.00    0.354839203    1.427808009   -2.348977648
  12  H       1.00    0.712041018    1.502200876   -4.364437418
  13  H       1.00    2.083349618   -3.036881307   -2.337781020
  14  H       1.00   -1.361236832   -3.088344238    2.334092275
  15  H       1.00    2.083349618   -3.036881307    2.337781020
  16  H       1.00   -1.361236832   -3.088344238   -2.334092275

 Bond lengths in Bohr (Angstrom)

 1-2  2.048654057  2-3  2.663595360  2-4  2.632585968  3-6  3.453285573  3-8  2.048220086
     ( 1.084101040)     ( 1.409513964)     ( 1.393104500)     ( 1.827400028)     ( 1.083871392)

  4-10  2.048654057   4-11  2.663595360   5- 6  2.685369939   6-11  3.453285573   7- 9  2.632276053
       ( 1.084101040)       ( 1.409513964)       ( 1.421036574)       ( 1.827400028)       ( 1.392940500)

  7-14  2.044838366   7-15  2.046536712   9-13  2.046536712   9-16  2.044838366  11-12  2.048220086
       ( 1.082081863)       ( 1.082980589)       ( 1.082980589)       ( 1.082081863)       ( 1.083871392)

 Bond angles

  1-2-3  123.23510093   1-2-4  123.34111155   2-3-6  105.10931479   2-3-8  121.78304048

  2- 4-10  123.34111155   2- 4-11  112.81166619   3- 2- 4  112.81166619   3- 6- 5  102.95639987

  3- 6-11   85.72093770   4-11- 6  105.10931479   4-11-12  121.78304048   5- 6-11  102.95639987

  6- 3- 8  122.77020188   6-11-12  122.77020188   7- 9-13  119.94746996   7- 9-16  119.85564468

  9- 7-14  119.85564468   9- 7-15  119.94746996  10- 4-11  123.23510093  13- 9-16  114.70565433

 14- 7-15  114.70565433

 NUCLEAR CHARGE:                   60
 NUMBER OF PRIMITIVE AOS:         499
 NUMBER OF SYMMETRY AOS:          455
 NUMBER OF CONTRACTIONS:          340   (  340A   )
 NUMBER OF INNER CORE ORBITALS:     1   (    1A   )
 NUMBER OF OUTER CORE ORBITALS:    10   (   10A   )
 NUMBER OF VALENCE ORBITALS:       37   (   37A   )


 NUCLEAR REPULSION ENERGY  359.84267382


 Eigenvalues of metric

         1 0.129E-03 0.319E-03 0.631E-03 0.657E-03 0.754E-03 0.959E-03 0.104E-02 0.112E-02


 Contracted 2-electron integrals neglected if value below      1.0D-11
 AO integral compression algorithm  1   Integral accuracy      1.0D-11

     5574.230 MB (compressed) written to integral file ( 39.7%)


 NUMBER OF SORTED TWO-ELECTRON INTEGRALS: 1680289435.     BUFFER LENGTH:  32768
 NUMBER OF SEGMENTS:  53  SEGMENT LENGTH:   31998710      RECORD LENGTH: 524288

 Memory used in sort:      32.56 MW

 SORT1 READ  1753294966. AND WROTE  1459440741. INTEGRALS IN   4202 RECORDS. CPU TIME:    14.52 SEC, REAL TIME:    19.65 SEC
 SORT2 READ  1459440741. AND WROTE  1680289435. INTEGRALS IN  21264 RECORDS. CPU TIME:    10.07 SEC, REAL TIME:    18.78 SEC

 FILE SIZES:   FILE 1:  5608.8 MBYTE,  FILE 4: 17624.5 MBYTE,   TOTAL:  23233.3 MBYTE

 OPERATOR DM      FOR CENTER  0  COORDINATES:    0.000000    0.000000    0.000000


 **********************************************************************************************************************************
 DATASETS  * FILE   NREC   LENGTH (MB)   RECORD NAMES
              1      19     5004.28       500      610      700      900      950      970     1000      129      960     1100   
                                          VAR    BASINP    GEOM    SYMINP    ZMAT    AOBASIS   BASIS     P2S    ABASIS      S 
                                         1400     1410     1200     1210     1080     1600     1650     1300     1700   
                                           T        V       H0       H01     AOSYM     SMH    MOLCAS    ERIS     OPER   

 PROGRAMS   *        TOTAL       INT
 CPU TIMES  *        64.94     64.82
 REAL TIME  *        88.00 SEC
 DISK USED  *        21.64 GB
 **********************************************************************************************************************************


 Program * Restricted Hartree-Fock

 Orbital guess generated from atomic densities. Full valence occupancy:   48

 Initial occupancy:  30

 NELEC=   60   SYM=1   MS2= 0   THRE=1.0D-08   THRD=3.2D-06   THRG=3.2D-06  HFMA2=F  DIIS_START=2   DIIS_MAX=10   DIIS_INCORE=F

 Level shifts:    0.00 (CLOSED)    0.00 (OPEN)    0.30 (GAP_MIN)

 ITER           ETOT              DE          GRAD        DDIFF     DIIS  NEXP   TIME(IT)  TIME(TOT)  DIAG
   1     -573.04090048    -573.04090048     0.00D+00     0.43D-01     0     0       9.10     17.22    start
   2     -573.11595247      -0.07505199     0.24D-02     0.39D-02     1     0       9.00     26.22    diag
   3     -573.13057283      -0.01462036     0.12D-02     0.14D-02     2     0       8.97     35.19    diag
   4     -573.13311710      -0.00254427     0.36D-03     0.58D-03     3     0       8.34     43.53    diag
   5     -573.13325383      -0.00013673     0.70D-04     0.14D-03     4     0       8.49     52.02    diag
   6     -573.13328508      -0.00003125     0.33D-04     0.61D-04     5     0       8.53     60.55    diag
   7     -573.13329020      -0.00000512     0.12D-04     0.25D-04     6     0       8.49     69.04    diag
   8     -573.13329102      -0.00000081     0.46D-05     0.11D-04     7     0       8.13     77.17    fixocc
   9     -573.13329108      -0.00000006     0.13D-05     0.34D-05     8     0       8.28     85.45    diag
  10     -573.13329109      -0.00000001     0.65D-06     0.11D-05     9     0       8.27     93.72    diag/orth
  11     -573.13329109      -0.00000000     0.17D-06     0.31D-06     0     0       8.15    101.87    diag

 Final occupancy:  30

 !RHF STATE 1.1 Energy               -573.133291089990
  RHF One-electron energy           -1499.643319070791
  RHF Two-electron energy             566.667354161109
  RHF Kinetic energy                  572.700874768610
  RHF Nuclear energy                  359.842673819692
  RHF Virial quotient                  -1.000755047426

 !RHF STATE 1.1 Dipole moment          -0.24264712    -0.36791626     0.00000000
 Dipole moment /Debye                  -0.61674747    -0.93514985     0.00000000

 Orbital energies:

           1.1          2.1          3.1          4.1          5.1          6.1          7.1          8.1          9.1         10.1
    -79.941643   -11.249443   -11.249416   -11.232661   -11.231430   -11.228443   -11.227212    -7.482894    -5.376774    -5.376142

          11.1         12.1         13.1         14.1         15.1         16.1         17.1         18.1         19.1         20.1
     -5.375528    -1.132784    -1.014297    -0.962450    -0.901283    -0.794087    -0.744186    -0.712380    -0.683203    -0.625213

          21.1         22.1         23.1         24.1         25.1         26.1         27.1         28.1         29.1         30.1
     -0.570148    -0.551461    -0.538367    -0.532318    -0.504546    -0.484875    -0.459813    -0.353085    -0.317169    -0.301027

          31.1         32.1
      0.099268     0.124216


 HOMO     30.1    -0.301027 =      -8.1914eV
 LUMO     31.1     0.099268 =       2.7012eV
 LUMO-HOMO         0.400295 =      10.8926eV

 Orbitals saved in record  2100.2


 **********************************************************************************************************************************
 DATASETS  * FILE   NREC   LENGTH (MB)   RECORD NAMES
              1      19     5004.28       500      610      700      900      950      970     1000      129      960     1100   
                                          VAR    BASINP    GEOM    SYMINP    ZMAT    AOBASIS   BASIS     P2S    ABASIS      S 
                                         1400     1410     1200     1210     1080     1600     1650     1300     1700   
                                           T        V       H0       H01     AOSYM     SMH    MOLCAS    ERIS     OPER   

              2       4        2.44       700     1000      520     2100   
                                         GEOM     BASIS   MCVARS     RHF  

 PROGRAMS   *        TOTAL    HF-SCF       INT
 CPU TIMES  *       166.82    101.89     64.82
 REAL TIME  *       203.86 SEC
 DISK USED  *        21.64 GB
 **********************************************************************************************************************************


 Program * Restricted Hartree-Fock

 Molecular orbitals read from record     2100.2  Type=RHF/CANONICAL  

 Initial occupancy:  30

 NELEC=   60   SYM=1   MS2= 0   THRE=1.0D-08   THRD=3.2D-06   THRG=3.2D-06  HFMA2=F  DIIS_START=2   DIIS_MAX=10   DIIS_INCORE=F

 Level shifts:    0.00 (CLOSED)    0.00 (OPEN)    0.30 (GAP_MIN)

 ITER           ETOT              DE          GRAD        DDIFF     DIIS  NEXP   TIME(IT)  TIME(TOT)  DIAG
   1     -573.13329109    -573.13329109     0.00D+00     0.44D-01     0     0       8.12      8.12    start
   2     -573.13329109      -0.00000000     0.10D-06     0.17D-06     1     0       8.31     16.43    diag

 Final occupancy:  30

 !RHF STATE 1.1 Energy               -573.133291090275
  RHF One-electron energy           -1499.643355417168
  RHF Two-electron energy             566.667390507201
  RHF Kinetic energy                  572.700884905462
  RHF Nuclear energy                  359.842673819692
  RHF Virial quotient                  -1.000755029713

 !RHF STATE 1.1 Dipole moment          -0.24269035    -0.36790177    -0.00000000
 Dipole moment /Debye                  -0.61685734    -0.93511304    -0.00000000

 Orbital energies:

           1.1          2.1          3.1          4.1          5.1          6.1          7.1          8.1          9.1         10.1
    -79.941646   -11.249449   -11.249422   -11.232652   -11.231422   -11.228447   -11.227217    -7.482897    -5.376777    -5.376145

          11.1         12.1         13.1         14.1         15.1         16.1         17.1         18.1         19.1         20.1
     -5.375531    -1.132782    -1.014299    -0.962450    -0.901283    -0.794089    -0.744187    -0.712379    -0.683202    -0.625215

          21.1         22.1         23.1         24.1         25.1         26.1         27.1         28.1         29.1         30.1
     -0.570150    -0.551461    -0.538365    -0.532318    -0.504548    -0.484876    -0.459815    -0.353085    -0.317170    -0.301028

          31.1         32.1
      0.099267     0.124216


 HOMO     30.1    -0.301028 =      -8.1914eV
 LUMO     31.1     0.099267 =       2.7012eV
 LUMO-HOMO         0.400295 =      10.8926eV

 Orbitals saved in record  2101.2


 **********************************************************************************************************************************
 DATASETS  * FILE   NREC   LENGTH (MB)   RECORD NAMES
              1      19     5004.28       500      610      700      900      950      970     1000      129      960     1100   
                                          VAR    BASINP    GEOM    SYMINP    ZMAT    AOBASIS   BASIS     P2S    ABASIS      S 
                                         1400     1410     1200     1210     1080     1600     1650     1300     1700   
                                           T        V       H0       H01     AOSYM     SMH    MOLCAS    ERIS     OPER   

              2       5        5.64       700     1000      520     2100     2101   
                                         GEOM     BASIS   MCVARS     RHF      RHF  

 PROGRAMS   *        TOTAL    HF-SCF    HF-SCF       INT
 CPU TIMES  *       183.27     16.45    101.89     64.82
 REAL TIME  *       224.16 SEC
 DISK USED  *        21.64 GB
 **********************************************************************************************************************************


 PROGRAM * PAPT (Closed-shell)     Authors: C. Hampel, H.-J. Werner, 1991, P.J. Knowles, 2021


 Convergence thresholds:  THRVAR = 1.00D-08  THRDEN = 1.00D-06

 Number of core orbitals:          11 (  11 )
 Number of closed-shell orbitals:  19 (  19 )
 Number of external orbitals:     310 ( 310 )

 Molecular orbitals read from record     2101.2  Type=RHF/CANONICAL  

 Number of N-1 electron functions:              19
 Number of N-2 electron functions:             190
 Number of singly external CSFs:              5890
 Number of doubly external CSFs:          17348995
 Total number of CSFs:                    17354886

 Length of J-op  integral file:               0.00 MB
 Length of K-op  integral file:               8.00 MB

 Integral transformation finished. Total CPU:  25.12 sec, npass=  1  Memory used:  38.14 MW

 Reference energy:                   -573.13329109

                        CORR.ENERGY   TOTAL ENERGY   ENERGY CHANGE
 MP2:                   -1.17992774  -574.31321883    -1.17992774

 SCS-MP2 correlation energy:           -1.16441101   (PS=  1.200000  PT=  0.333333)
 SCS-MP2 total energy:               -574.29770211
 Iteration:   1     0.3078D+00
 Iteration:   2     0.5713D+00
 Iteration:   3     0.9152D-01
 Iteration:   4     0.1470D+00
 Iteration:   5     0.4330D-01
 Iteration:   6     0.2580D-01
 Iteration:   7     0.7273D-01
 Iteration:   8     0.8671D-02
 Iteration:   9     0.1596D-01
 Iteration:  10     0.6717D-02
 Iteration:  11     0.5456D-02
 Iteration:  12     0.3639D-02
 Iteration:  13     0.1394D-02
 Iteration:  14     0.5543D-01
 Iteration:  15     0.3672D-03
 Iteration:  16     0.3549D-03
 Iteration:  17     0.3060D-03
 Iteration:  18     0.6804D-04
 PAPT operator written to  7000.1
 PAPT orbitals and eigenvalues written to  7000.2

 MP3(D):                -1.21035307  -574.34364416    -0.03042533



 RESULTS
 =======

  Reference energy                   -573.133291090269
  MP3 singlet pair energy              -0.812067738482
  MP3 triplet pair energy              -0.398285326863
  MP3 correlation energy               -1.210353065345

 !MP3 total energy                   -574.343644155614

 Timing summary (sec):

 STEP                 CPU(USER)    SYS     CPU(TOT)    WALL
 Transformation         26.52      2.40     28.92     29.85
 CCSD iterations       378.45      6.20    384.65    187.36

 Program statistics:

 Available memory in ccsd:               393214526
 Min. memory needed in ccsd:              41224442
 Max. memory used in ccsd:                57292932
 Max. memory used in cckext:              45119201 ( 1 integral passes)



 **********************************************************************************************************************************
 DATASETS  * FILE   NREC   LENGTH (MB)   RECORD NAMES
              1      21     5258.10       500      610      700      900      950      970     1000      129      960     1100   
                                          VAR    BASINP    GEOM    SYMINP    ZMAT    AOBASIS   BASIS     P2S    ABASIS      S 
                                         1400     1410     1200     1210     1080     1600     1650     1300     1700     1380   
                                           T        V       H0       H01     AOSYM     SMH    MOLCAS    ERIS     OPER     JKOP   
                                         7000   
                                        PAPT AO    

              2       6        8.40       700     1000      520     2100     2101     7000   
                                         GEOM     BASIS   MCVARS     RHF      RHF     PAPT   

 PROGRAMS   *        TOTAL      PAPT    HF-SCF    HF-SCF       INT
 CPU TIMES  *       404.86    221.58     16.45    101.89     64.82
 REAL TIME  *       441.80 SEC
 DISK USED  *        21.64 GB
 **********************************************************************************************************************************


 PROGRAM * MP4 (Closed-shell)     Authors: C. Hampel, H.-J. Werner, 1991, M. Deegan, P.J. Knowles, 1992


 Convergence thresholds:  THRVAR = 1.00D-08  THRDEN = 1.00D-06

 MP4(T)     terms to be evaluated (factor= 0.000)


 Number of core orbitals:          11 (  11 )
 Number of closed-shell orbitals:  19 (  19 )
 Number of external orbitals:     310 ( 310 )

 Molecular orbitals read from record     7000.2  Type=PAPT/CANONICAL (state 1.1)

 Number of N-1 electron functions:              19
 Number of N-2 electron functions:             190
 Number of singly external CSFs:              5890
 Number of doubly external CSFs:          17348995
 Total number of CSFs:                    17354886

 Length of J-op  integral file:               0.00 MB
 Length of K-op  integral file:               8.00 MB

 For full I/O caching in triples, increase memory by 289.17 Mwords to 682.44 Mwords.

 Multipassing necessary in transformation. To avoid, increase memory by 38.60 Mwords.

 Integral transformation finished. Total CPU:  93.19 sec, npass=  2  Memory used: 386.49 MW
 Orbital energies read from record       7000.2  Type=PAPT/CANONICAL (state 1.1)

 Reference energy:                   -573.13329109

                        CORR.ENERGY   TOTAL ENERGY   ENERGY CHANGE
 MP2:                   -1.22412670  -574.35741779    -1.22412670

 SCS-MP2 correlation energy:           -1.21614397   (PS=  1.200000  PT=  0.333333)
 SCS-MP2 total energy:               -574.34943506

 MP3(D):                -1.22444502  -574.35773611    -0.00031832
 MP4(DQ):               -1.20243974  -574.33573083     0.02200528
 MP4(SDQ):              -1.21159852  -574.34488961    -0.00915878

 Norm of t1 vector:      0.08374023      S-energy:    -0.00915878      T1 diagnostic:  0.00960566

 Largest off-diagonal element in interal  block of Fock matrix:  0.14D+00
 Largest off-diagonal element in external block of Fock matrix:  0.21D+00

   CPU time for triples:   1903.29 sec for i =  1 - 15 / 19 (~  50.7 % done)
   CPU time for triples:   1895.78 sec for i = 16 - 19 / 19 (  100.0 % done)

 Total CPU time for triples:   3799.07 sec


 RESULTS
 =======

  Reference energy                   -573.133291090270
  MP4(SDQ) singlet pair energy         -0.809137126549
  MP4(SDQ) triplet pair energy         -0.393302611192
  MP4(SDQ) correlation energy          -1.211598520827

  Triples contribution                 -0.077204351985
  Total correlation energy             -1.288802872812

  MP4(SDQ) total energy              -574.344889611097
 !MP4(SDTQ) total energy             -574.422093963082

 Timing summary (sec):

 STEP                 CPU(USER)    SYS     CPU(TOT)    WALL
 Transformation        103.72     10.76    114.48    115.40
 CCSD iterations       584.94      8.19    593.13    165.11
 Triples              3799.07    131.65   3930.72   3406.89

 Program statistics:

 Available memory in ccsd:               393214526
 Min. memory needed in ccsd:              41224442
 Max. memory used in ccsd:                57292932
 Max. memory used in cckext:              45119201 ( 1 integral passes)



 **********************************************************************************************************************************
 DATASETS  * FILE   NREC   LENGTH (MB)   RECORD NAMES
              1      22     7424.29       500      610      700      900      950      970     1000      129      960     1100   
                                          VAR    BASINP    GEOM    SYMINP    ZMAT    AOBASIS   BASIS     P2S    ABASIS      S 
                                         1400     1410     1200     1210     1080     1600     1650     1300     1700     1380   
                                           T        V       H0       H01     AOSYM     SMH    MOLCAS    ERIS     OPER     JKOP   
                                         7000     1380(1)
                                        PAPT AO   JKOP   

              2       6        8.40       700     1000      520     2100     2101     7000   
                                         GEOM     BASIS   MCVARS     RHF      RHF     PAPT   

 PROGRAMS   *        TOTAL       MP4      PAPT    HF-SCF    HF-SCF       INT
 CPU TIMES  *      4487.62   4082.76    221.58     16.45    101.89     64.82
 REAL TIME  *      4129.53 SEC
 DISK USED  *        21.64 GB
 **********************************************************************************************************************************

 Dump information in style XML to xml output                                                                      

 Orbitals will not be exported.

 **********************************************************************************************************************************

 MP4/cc-pVTZ energy=   -574.422093963082

             MP4            PAPT          HF-SCF          HF-SCF
   -574.42209396   -574.34364416   -573.13329109   -573.13329109
 **********************************************************************************************************************************
 Molpro calculation terminated
