
 Working directory              : /var/folders/2v/xbgp75_9785319ghcgb4zr4r0000gp/T//molpro.jTwpZTXVtv/
 Global scratch directory       : /var/folders/2v/xbgp75_9785319ghcgb4zr4r0000gp/T//molpro.jTwpZTXVtv/
 Wavefunction directory         : /Users/sacpjk/wfu/
 Main file repository           : /var/folders/2v/xbgp75_9785319ghcgb4zr4r0000gp/T//molpro.jTwpZTXVtv/

 id        : peterk

 Nodes                        nprocs
 Cardiff-University-G34YLXT77Y    1
 GA implementation: MPI file
 GA implementation (serial work in mppx): MPI file

 Using customized tuning parameters: mindgm=1; mindgv=20; mindgc=4; mindgr=1; noblas=0; minvec=7
 default implementation of scratch files=df  


 Variables initialized (1032), CPU time= 0.00 sec
 
 symmetry,nosym
 
 
 geometry={
 7
  n          0.417200135251   -0.477271134948   -0.662731774095
  h          0.321512727175   -1.446102175141   -0.386878863336
  h         -0.171939531839   -0.363837067214   -1.477491632290
  c         -0.066245324842    0.390808478814    0.417645924696
  h          0.037904429088    1.427874118971    0.109793626562
  h         -1.104073161745    0.217404506673    0.708776063553
  h          0.565640726860    0.251123272951    1.290886655016
 }
 basis=aug-cc-pVDZ
 
 
 
 hf
 
 
 
 {put,xml;noorbitals,nobasis}
 Commands initialized (841), CPU time= 0.01 sec, 704 directives.
 Default parameters read. Elapsed time= 0.07 sec

 Checking input...
 Passed
1


                                         ***  PROGRAM SYSTEM MOLPRO  ***
                                       Copyright, TTI GmbH Stuttgart, 2015
                                    Version 2023.1 linked Tue Jun  6 09:54:11 2023


 **********************************************************************************************************************************
 LABEL *                                                                                                                                                                 
  64 bit serial version                                                                  DATE: 08-Jun-23          TIME: 21:49:07  
 **********************************************************************************************************************************

 SHA1:             8ebb0dd001088a5c915591db1a321413035db0b1
 **********************************************************************************************************************************

 Memory per process:       805 MW
 Total memory per node:   1074 MW
 Total GA space:           268 MW

 GA preallocation disabled
 GA check enabled

 Variable memory set to 805.3 MW

 ZSYMEL=NOSYM


 Geometry recognized as XYZ

 SETTING BASIS          =    AUG-CC-PVDZ


 Recomputing integrals since basis changed


 Using spherical harmonics

 Library entry N      S aug-cc-pVDZ          selected for orbital group  1
 Library entry N      P aug-cc-pVDZ          selected for orbital group  1
 Library entry N      D aug-cc-pVDZ          selected for orbital group  1
 Library entry H      S aug-cc-pVDZ          selected for orbital group  2
 Library entry H      P aug-cc-pVDZ          selected for orbital group  2
 Library entry C      S aug-cc-pVDZ          selected for orbital group  3
 Library entry C      P aug-cc-pVDZ          selected for orbital group  3
 Library entry C      D aug-cc-pVDZ          selected for orbital group  3


 PROGRAM * SEWARD (Integral evaluation for generally contracted gaussian basis sets)     Author: Roland Lindh, 1990

 Geometry written to block  1 of record 700


 Point group  C1  



 ATOMIC COORDINATES

 NR  ATOM    CHARGE       X              Y              Z

   1  N       7.00    0.788393995   -0.901911732   -1.252381547
   2  H       1.00    0.607571000   -2.732737059   -0.731095095
   3  H       1.00   -0.324918625   -0.687552411   -2.792054536
   4  C       6.00   -0.125185521    0.738520992    0.789236415
   5  H       1.00    0.071628990    2.698291025    0.207479884
   6  H       1.00   -2.086395897    0.410834976    1.339392644
   7  H       1.00    1.068906059    0.474554209    2.439422236

 Bond lengths in Bohr (Angstrom)

 1-2  1.912160532  1-3  1.912068990  1-4  2.773779183  4-5  2.053746624  4-6  2.063103522
     ( 1.011871777)     ( 1.011823335)     ( 1.467820732)     ( 1.086795910)     ( 1.091747367)

 4-7  2.053934373
     ( 1.086895263)

 Bond angles

  1-4-5  108.92232449   1-4-6  114.54691082   1-4-7  108.89704666   2-1-3  105.77144000

  2-1-4  109.53896727   3-1-4  109.54911814   5-4-6  108.55407821   5-4-7  107.12795867

  6-4-7  108.54184764

 NUCLEAR CHARGE:                   18
 NUMBER OF PRIMITIVE AOS:         129
 NUMBER OF SYMMETRY AOS:          125
 NUMBER OF CONTRACTIONS:           91   (   91A   )
 NUMBER OF INNER CORE ORBITALS:     0   (    0A   )
 NUMBER OF OUTER CORE ORBITALS:     2   (    2A   )
 NUMBER OF VALENCE ORBITALS:       13   (   13A   )


 NUCLEAR REPULSION ENERGY   42.04336543

 Eigenvalues of metric

         1 0.509E-03 0.629E-03 0.711E-03 0.849E-03 0.124E-02 0.131E-02 0.296E-02 0.448E-02


 Contracted 2-electron integrals neglected if value below      1.0D-11
 AO integral compression algorithm  1   Integral accuracy      1.0D-11

     48.234 MB (compressed) written to integral file ( 56.7%)


 NUMBER OF SORTED TWO-ELECTRON INTEGRALS:    8763391.     BUFFER LENGTH:  32768
 NUMBER OF SEGMENTS:   1  SEGMENT LENGTH:    8763391      RECORD LENGTH: 524288

 Memory used in sort:       9.32 MW

 SORT1 READ    10676406. AND WROTE     8692393. INTEGRALS IN     25 RECORDS. CPU TIME:     0.06 SEC, REAL TIME:     0.10 SEC
 SORT2 READ     8692393. AND WROTE     8763391. INTEGRALS IN    184 RECORDS. CPU TIME:     0.10 SEC, REAL TIME:     0.12 SEC

 FILE SIZES:   FILE 1:    78.6 MBYTE,  FILE 4:   104.9 MBYTE,   TOTAL:    183.6 MBYTE

 OPERATOR DM      FOR CENTER  0  COORDINATES:    0.000000    0.000000    0.000000


 **********************************************************************************************************************************
 DATASETS  * FILE   NREC   LENGTH (MB)   RECORD NAMES
              1      19       67.57       500      610      700      900      950      970     1000      129      960     1100   
                                          VAR    BASINP    GEOM    SYMINP    ZMAT    AOBASIS   BASIS     P2S    ABASIS      S 
                                         1400     1410     1200     1210     1080     1600     1650     1300     1700   
                                           T        V       H0       H01     AOSYM     SMH    MOLCAS    ERIS     OPER   

 PROGRAMS   *        TOTAL       INT
 CPU TIMES  *         0.59      0.49
 REAL TIME  *         0.98 SEC
 DISK USED  *       175.49 MB
 **********************************************************************************************************************************


 Program * Restricted Hartree-Fock

 Orbital guess generated from atomic densities. Full valence occupancy:   15

 Initial occupancy:   9

 NELEC=   18   SYM=1   MS2= 0   THRE=1.0D-08   THRD=3.2D-06   THRG=3.2D-06  HFMA2=F  DIIS_START=2   DIIS_MAX=10   DIIS_INCORE=F

 Level shifts:    0.00 (CLOSED)    0.00 (OPEN)    0.30 (GAP_MIN)

 ITER           ETOT              DE          GRAD        DDIFF     DIIS  NEXP   TIME(IT)  TIME(TOT)  DIAG
   1      -95.20184773     -95.20184773     0.00D+00     0.86D-01     0     0       0.03      0.07    start
   2      -95.22669725      -0.02484952     0.55D-02     0.93D-02     1     0       0.04      0.11    diag
   3      -95.23013707      -0.00343982     0.22D-02     0.28D-02     2     0       0.03      0.14    diag
   4      -95.23063854      -0.00050147     0.68D-03     0.11D-02     3     0       0.04      0.18    diag
   5      -95.23066130      -0.00002276     0.13D-03     0.21D-03     4     0       0.04      0.22    diag
   6      -95.23066277      -0.00000147     0.29D-04     0.58D-04     5     0       0.04      0.26    diag
   7      -95.23066287      -0.00000010     0.82D-05     0.15D-04     6     0       0.03      0.29    diag
   8      -95.23066288      -0.00000001     0.22D-05     0.63D-05     7     0       0.04      0.33    fixocc
   9      -95.23066288      -0.00000000     0.56D-06     0.15D-05     8     0       0.03      0.36    diag
  10      -95.23066288      -0.00000000     0.11D-06     0.23D-06     0     0       0.04      0.40    diag/orth

 Final occupancy:   9

 !RHF STATE 1.1 Energy                -95.230662883365
  RHF One-electron energy            -211.357756110266
  RHF Two-electron energy              74.083727792595
  RHF Kinetic energy                   95.082800112185
  RHF Nuclear energy                   42.043365434307
  RHF Virial quotient                  -1.001555094833

 !RHF STATE 1.1 Dipole moment          -0.54368471    -0.13276665     0.11447074
 Dipole moment /Debye                  -1.38190869    -0.33745917     0.29095559

 Orbital energies:

           1.1          2.1          3.1          4.1          5.1          6.1          7.1          8.1          9.1         10.1
    -15.548410   -11.247669    -1.171678    -0.897717    -0.661466    -0.603589    -0.555377    -0.516719    -0.392524     0.035759

          11.1
      0.051472


 HOMO      9.1    -0.392524 =     -10.6811eV
 LUMO     10.1     0.035759 =       0.9730eV
 LUMO-HOMO         0.428283 =      11.6542eV

 Orbitals saved in record  2100.2


 **********************************************************************************************************************************
 DATASETS  * FILE   NREC   LENGTH (MB)   RECORD NAMES
              1      19       67.57       500      610      700      900      950      970     1000      129      960     1100   
                                          VAR    BASINP    GEOM    SYMINP    ZMAT    AOBASIS   BASIS     P2S    ABASIS      S 
                                         1400     1410     1200     1210     1080     1600     1650     1300     1700   
                                           T        V       H0       H01     AOSYM     SMH    MOLCAS    ERIS     OPER   

              2       4        0.61       700     1000      520     2100   
                                         GEOM     BASIS   MCVARS     RHF  

 PROGRAMS   *        TOTAL    HF-SCF       INT
 CPU TIMES  *         0.99      0.40      0.49
 REAL TIME  *         1.55 SEC
 DISK USED  *       175.49 MB
 **********************************************************************************************************************************

 Dump information in style XML to xml output                                                                      

 Orbitals will not be exported.

 **********************************************************************************************************************************

 HF/aug-cc-pVDZ energy=    -95.230662883365

          HF-SCF
    -95.23066288
 **********************************************************************************************************************************
 Molpro calculation terminated
