
 Working directory              : /tmp/peterk/molpro.D8a44cnGZi/
 Global scratch directory       : /tmp/peterk/molpro.D8a44cnGZi/
 Wavefunction directory         : /home/peterk/wfu/
 Main file repository           : /tmp/peterk/molpro.D8a44cnGZi/

 id        : peterk

 Nodes     nprocs
 marat        1
 GA implementation: MPI file
 GA implementation (serial work in mppx): MPI file

 Using customized tuning parameters: mindgm=1; mindgv=20; mindgc=4; mindgr=1; noblas=0; minvec=7
 default implementation of scratch files=df  


 Variables initialized (1032), CPU time= 0.00 sec
 
 core,small
 angstrom
 
 geometry={
 C;O,C,1.12887680
 }
 basis=cc-pCV5Z
 
 
 
 hf; ccsd
 
 
 
 {put,xml;noorbitals,nobasis}
 Commands initialized (841), CPU time= 0.01 sec, 708 directives.
 Default parameters read. Elapsed time= 0.05 sec

 Checking input...
 Passed
1


                                         ***  PROGRAM SYSTEM MOLPRO  ***
                                       Copyright, TTI GmbH Stuttgart, 2015
                                    Version 2023.1 linked Sat Jun 10 08:01:27 2023


 **********************************************************************************************************************************
 LABEL *                                                                                                                                                                 
  (16 PROC) 64 bit serial version                                                        DATE: 12-Jun-23          TIME: 11:46:05  
 **********************************************************************************************************************************

 SHA1:             8376d659ba1296ca7ee514c57770fe2c96af278c
 **********************************************************************************************************************************

 Memory per process:      1074 MW
 Total memory per node:   1074 MW

 GA preallocation disabled
 GA check disabled

 Variable memory set to 1073.7 MW

 ZUNIT=ANG

 SETTING BASIS          =    CC-PCV5Z


 Recomputing integrals since basis changed


 Using spherical harmonics

 Library entry C      S cc-pCV5Z             selected for orbital group  1
 Library entry C      P cc-pCV5Z             selected for orbital group  1
 Library entry C      D cc-pCV5Z             selected for orbital group  1
 Library entry C      F cc-pCV5Z             selected for orbital group  1
 Library entry C      G cc-pCV5Z             selected for orbital group  1
 Library entry C      H cc-pCV5Z             selected for orbital group  1
 Library entry O      S cc-pCV5Z             selected for orbital group  2
 Library entry O      P cc-pCV5Z             selected for orbital group  2
 Library entry O      D cc-pCV5Z             selected for orbital group  2
 Library entry O      F cc-pCV5Z             selected for orbital group  2
 Library entry O      G cc-pCV5Z             selected for orbital group  2
 Library entry O      H cc-pCV5Z             selected for orbital group  2


 PROGRAM * SEWARD (Integral evaluation for generally contracted gaussian basis sets)     Author: Roland Lindh, 1990

 Geometry written to block  1 of record 700

 Orientation using atomic masses  
 Molecule type: Linear
 Symmetry elements: X,Y
 Rotational constants:      57.8043525     57.8043525      0.0000000 GHz  (calculated with average atomic masses)

 Point group  C2v 



 ATOMIC COORDINATES

 NR  ATOM    CHARGE       X              Y              Z

   1  C       6.00    0.000000000    0.000000000   -1.218511971
   2  O       8.00    0.000000000    0.000000000    0.914756009

 Bond lengths in Bohr (Angstrom)

 1-2  2.133267980
     ( 1.128876800)

 NUCLEAR CHARGE:                   14
 NUMBER OF PRIMITIVE AOS:         424
 NUMBER OF SYMMETRY AOS:          324
 NUMBER OF CONTRACTIONS:          290   (  110A1  +   70B1  +   70B2  +   40A2  )
 NUMBER OF INNER CORE ORBITALS:     0   (    0A1  +    0B1  +    0B2  +    0A2  )
 NUMBER OF OUTER CORE ORBITALS:     2   (    2A1  +    0B1  +    0B2  +    0A2  )
 NUMBER OF VALENCE ORBITALS:        8   (    4A1  +    2B1  +    2B2  +    0A2  )


 NUCLEAR REPULSION ENERGY   22.50068929

 EXTRA SYMMETRY OF AOS IN SYMMETRY 1:   1 1 1 1 1 1 1 1 1 1   1 1 1 1 1 1 1 1 1 1   2 1 2 1 2 1 2 1 2 1   2 1 2 1 2 1 2 1 2 1
                                        2 1 2 1 3 2 1 3 2 1   3 2 2 3 1 1 1 1 1 1   1 1 1 1 1 1 1 1 1 1   1 1 1 1 1 2 1 2 1 2
                                        1 2 1 2 1 2 1 2 1 2   1 2 1 2 1 2 1 2 1 3   2 1 3 2 1 3 2 2 3 1
 EXTRA SYMMETRY OF AOS IN SYMMETRY 2:   1 1 1 1 1 1 1 1 1 1   1 1 1 1 1 1 1 2 1 2   1 2 1 2 1 2 1 2 1 2   1 2 1 2 3 1 1 1 1 1
                                        1 1 1 1 1 1 1 1 1 1   1 1 2 1 2 1 2 1 2 1   2 1 2 1 2 1 2 1 2 3
 EXTRA SYMMETRY OF AOS IN SYMMETRY 3:   1 1 1 1 1 1 1 1 1 1   1 1 1 1 1 1 1 2 1 2   1 2 1 2 1 2 1 2 1 2   1 2 1 2 3 1 1 1 1 1
                                        1 1 1 1 1 1 1 1 1 1   1 1 2 1 2 1 2 1 2 1   2 1 2 1 2 1 2 1 2 3
 EXTRA SYMMETRY OF AOS IN SYMMETRY 4:   1 1 1 1 1 1 1 1 1 1   1 1 1 2 1 2 1 2 2 1   1 1 1 1 1 1 1 1 1 1   1 1 1 2 1 2 1 2 2 1

 Eigenvalues of metric

         1 0.256E-05 0.335E-05 0.479E-04 0.160E-03 0.357E-03 0.386E-03 0.528E-03 0.877E-03
         2 0.390E-03 0.501E-03 0.614E-03 0.635E-02 0.213E-01 0.294E-01 0.319E-01 0.401E-01
         3 0.390E-03 0.501E-03 0.614E-03 0.635E-02 0.213E-01 0.294E-01 0.319E-01 0.401E-01
         4 0.161E-01 0.446E-01 0.628E-01 0.818E-01 0.146E+00 0.151E+00 0.165E+00 0.263E+00


 Contracted 2-electron integrals neglected if value below      1.0D-12
 AO integral compression algorithm  1   Integral accuracy      1.0D-12

     742.130 MB (compressed) written to integral file ( 33.5%)


 NUMBER OF SORTED TWO-ELECTRON INTEGRALS:  226628610.     BUFFER LENGTH:  32768
 NUMBER OF SEGMENTS:  15  SEGMENT LENGTH:   15998430      RECORD LENGTH: 524288

 Memory used in sort:      16.56 MW

 SORT1 READ   277277018. AND WROTE   128235290. INTEGRALS IN    375 RECORDS. CPU TIME:     3.50 SEC, REAL TIME:     4.78 SEC
 SORT2 READ   128235290. AND WROTE   226628610. INTEGRALS IN   2831 RECORDS. CPU TIME:     2.59 SEC, REAL TIME:     3.18 SEC

 FILE SIZES:   FILE 1:   774.0 MBYTE,  FILE 4:  1572.9 MBYTE,   TOTAL:   2346.9 MBYTE

 OPERATOR DM      FOR CENTER  0  COORDINATES:    0.000000    0.000000    0.000000


 **********************************************************************************************************************************
 DATASETS  * FILE   NREC   LENGTH (MB)   RECORD NAMES
              1      19      602.73       500      610      700      900      950      970     1000      129      960     1100   
                                          VAR    BASINP    GEOM    SYMINP    ZMAT    AOBASIS   BASIS     P2S    ABASIS      S 
                                         1400     1410     1200     1210     1080     1600     1650     1300     1700   
                                           T        V       H0       H01     AOSYM     SMH    MOLCAS    ERIS     OPER   

 PROGRAMS   *        TOTAL       INT
 CPU TIMES  *        56.64     56.53
 REAL TIME  *        60.12 SEC
 DISK USED  *         2.19 GB
 **********************************************************************************************************************************


 Program * Restricted Hartree-Fock

 Orbital guess generated from atomic densities. Full valence occupancy:    6   2   2   0

 Initial occupancy:   5   1   1   0

 NELEC=   14   SYM=1   MS2= 0   THRE=1.0D-08   THRD=3.2D-06   THRG=3.2D-06  HFMA2=F  DIIS_START=2   DIIS_MAX=10   DIIS_INCORE=F

 Level shifts:    0.00 (CLOSED)    0.00 (OPEN)    0.30 (GAP_MIN)

 ITER           ETOT              DE          GRAD        DDIFF     DIIS  NEXP   TIME(IT)  TIME(TOT)  DIAG
   1     -112.77005887    -112.77005887     0.00D+00     0.46D-01     0     0       0.65      1.24    start
   2     -112.78250652      -0.01244765     0.62D-02     0.60D-02     1     0       0.66      1.90    diag
   3     -112.79027662      -0.00777010     0.42D-02     0.21D-02     2     0       0.64      2.54    diag
   4     -112.79057879      -0.00030217     0.81D-03     0.50D-03     3     0       0.63      3.17    diag
   5     -112.79059604      -0.00001725     0.12D-03     0.22D-03     4     0       0.61      3.78    diag
   6     -112.79059715      -0.00000110     0.27D-04     0.62D-04     5     0       0.63      4.41    diag
   7     -112.79059717      -0.00000002     0.45D-05     0.73D-05     6     0       0.61      5.02    diag
   8     -112.79059717      -0.00000000     0.94D-06     0.10D-05     7     0       0.64      5.66    fixocc
   9     -112.79059717      -0.00000000     0.22D-06     0.17D-06     0     0       0.63      6.29    diag

 Final occupancy:   5   1   1   0

 !RHF STATE 1.1 Energy               -112.790597170873
  RHF One-electron energy            -198.212866823250
  RHF Two-electron energy              62.921580362505
  RHF Kinetic energy                  112.638519985096
  RHF Nuclear energy                   22.500689289871
  RHF Virial quotient                  -1.001350134801

 !RHF STATE 1.1 Dipole moment           0.00000000     0.00000000    -0.10611669
 Dipole moment /Debye                   0.00000000     0.00000000    -0.26972173

 Orbital energies:

           1.1          2.1          3.1          4.1          5.1          6.1          7.1
    -20.664455   -11.360213    -1.520935    -0.804380    -0.554925     0.167060     0.199945

           1.2          2.2          3.2
     -0.639968     0.113415     0.239006

           1.3          2.3          3.3
     -0.639968     0.113415     0.239006

           1.4          2.4
      0.505636     1.069506


 HOMO      5.1    -0.554925 =     -15.1003eV
 LUMO      2.2     0.113415 =       3.0862eV
 LUMO-HOMO         0.668340 =      18.1865eV

 Orbitals saved in record  2100.2


 **********************************************************************************************************************************
 DATASETS  * FILE   NREC   LENGTH (MB)   RECORD NAMES
              1      19      602.73       500      610      700      900      950      970     1000      129      960     1100   
                                          VAR    BASINP    GEOM    SYMINP    ZMAT    AOBASIS   BASIS     P2S    ABASIS      S 
                                         1400     1410     1200     1210     1080     1600     1650     1300     1700   
                                           T        V       H0       H01     AOSYM     SMH    MOLCAS    ERIS     OPER   

              2       4        0.79       700     1000      520     2100   
                                         GEOM     BASIS   MCVARS     RHF  

 PROGRAMS   *        TOTAL    HF-SCF       INT
 CPU TIMES  *        62.94      6.30     56.53
 REAL TIME  *        67.14 SEC
 DISK USED  *         2.19 GB
 **********************************************************************************************************************************


 PROGRAM * CCSD (Closed-shell coupled cluster)     Authors: C. Hampel, H.-J. Werner, 1991, M. Deegan, P.J. Knowles, 1992


 CORETYPE=SMALL

 Convergence thresholds:  THRVAR = 1.00D-08  THRDEN = 1.00D-06

 Number of closed-shell orbitals:   7 (   5   1   1   0 )
 Number of external orbitals:     283 ( 105  69  69  40 )

 Molecular orbitals read from record     2100.2  Type=RHF/CANONICAL  

 Number of N-1 electron functions:               7
 Number of N-2 electron functions:              28
 Number of singly external CSFs:               663
 Number of doubly external CSFs:            517997
 Total number of CSFs:                      518661

 Length of J-op  integral file:               0.00 MB
 Length of K-op  integral file:               1.68 MB
 Length of 3-ext integral record:             0.00 MB

 Integral transformation finished. Total CPU:   2.53 sec, npass=  1  Memory used:   6.67 MW

 Reference energy:                   -112.79059717

 MP2 singlet pair energy:              -0.34521603
 MP2 triplet pair energy:              -0.16051574
 MP2 correlation energy:               -0.50573177
 MP2 total energy:                   -113.29632894

 SCS-MP2 correlation energy:           -0.51413570   (PS=  1.200000  PT=  0.333333)
 SCS-MP2 total energy:               -113.30473287

 ITER.      SQ.NORM     CORR.ENERGY   TOTAL ENERGY   ENERGY CHANGE        DEN1      VAR(S)    VAR(P)  DIIS     TIME  TIME/IT
   1      1.10229379    -0.50548682  -113.29608399     0.00024496     0.01594997  0.40D-02  0.30D-02  1  1    68.31     2.55
   2      1.11185795    -0.50452289  -113.29512006     0.00096393    -0.01198917  0.62D-04  0.43D-03  2  2    70.82     2.60
   3      1.11583089    -0.50479037  -113.29538754    -0.00026748    -0.00142077  0.77D-04  0.39D-04  3  3    73.29     2.63
   4      1.11826479    -0.50459455  -113.29519172     0.00019582    -0.00109947  0.45D-05  0.40D-05  4  4    75.84     2.67
   5      1.11903283    -0.50457353  -113.29517070     0.00002102    -0.00025064  0.60D-06  0.36D-06  5  5    78.38     2.69
   6      1.11919284    -0.50456230  -113.29515947     0.00001123    -0.00001614  0.29D-07  0.28D-07  6  6    80.96     2.70
   7      1.11921241    -0.50456142  -113.29515859     0.00000088    -0.00000023  0.35D-08  0.26D-08  6  1    83.36     2.68
   8      1.11921735    -0.50455989  -113.29515706     0.00000153    -0.00000150  0.16D-09  0.21D-09  6  2    85.76     2.67
   9      1.11921819    -0.50455963  -113.29515680     0.00000027     0.00000015  0.15D-10  0.17D-10  6  3    88.17     2.66
  10      1.11921841    -0.50455957  -113.29515674     0.00000006    -0.00000004  0.84D-12  0.13D-11  6  4    90.67     2.66

 Norm of t1 vector:      0.08098150      S-energy:     0.00000009      T1 diagnostic:  0.01530406
                                                                       D1 diagnostic:  0.03782852
                                                                       D2 diagnostic:  0.15945136 (internal)


 RESULTS
 =======

  Reference energy                   -112.790597170873

  Correlated core orbitals:             1.1       2.1
  Orbital energies:                   -20.6645  -11.3602

  CCSD core-core energy                -0.082535042908
  CCSD core-valence energy             -0.034056124893
  CCSD valence correlation energy      -0.387968398919

  CCSD singlet pair energy             -0.364192566768
  CCSD triplet pair energy             -0.140367093209
  CCSD correlation energy              -0.504559566720

 !CCSD total energy                  -113.295156737593

 Timing summary (sec):

 STEP                 CPU(USER)    SYS     CPU(TOT)    WALL
 Transformation          2.55      0.46      3.01      3.01
 CCSD iterations        88.14      1.81     89.95     26.62

 Program statistics:

 Available memory in ccsd:              1073741623
 Min. memory needed in ccsd:               1645939
 Max. memory used in ccsd:                 2081623
 Max. memory used in cckext:               2493500 (10 integral passes)



 **********************************************************************************************************************************
 DATASETS  * FILE   NREC   LENGTH (MB)   RECORD NAMES
              1      20      764.96       500      610      700      900      950      970     1000      129      960     1100   
                                          VAR    BASINP    GEOM    SYMINP    ZMAT    AOBASIS   BASIS     P2S    ABASIS      S 
                                         1400     1410     1200     1210     1080     1600     1650     1300     1700     1380   
                                           T        V       H0       H01     AOSYM     SMH    MOLCAS    ERIS     OPER     JKOP   

              2       4        0.79       700     1000      520     2100   
                                         GEOM     BASIS   MCVARS     RHF  

 PROGRAMS   *        TOTAL      CCSD    HF-SCF       INT
 CPU TIMES  *        90.32     27.38      6.30     56.53
 REAL TIME  *        96.82 SEC
 DISK USED  *         2.19 GB
 **********************************************************************************************************************************

 Dump information in style XML to xml output                                                                      

 Orbitals will not be exported.

 **********************************************************************************************************************************

 CCSD/cc-pCV5Z energy=   -113.295156737593

            CCSD          HF-SCF
   -113.29515674   -112.79059717
 **********************************************************************************************************************************
 Molpro calculation terminated
