
 Working directory              : /var/folders/2v/xbgp75_9785319ghcgb4zr4r0000gp/T//molpro.tvr27vxv3G/
 Global scratch directory       : /var/folders/2v/xbgp75_9785319ghcgb4zr4r0000gp/T//molpro.tvr27vxv3G/
 Wavefunction directory         : /Users/sacpjk/wfu/
 Main file repository           : /var/folders/2v/xbgp75_9785319ghcgb4zr4r0000gp/T//molpro.tvr27vxv3G/

 id        : peterk

 Nodes                        nprocs
 Cardiff-University-G34YLXT77Y    1
 GA implementation: MPI file
 GA implementation (serial work in mppx): MPI file

 Using customized tuning parameters: mindgm=1; mindgv=20; mindgc=4; mindgr=1; noblas=0; minvec=7
 default implementation of scratch files=df  


 Variables initialized (1037), CPU time= 0.01 sec
 
 symmetry,nosym
 
 
 geometry={
 15
  c         -0.229401415863   -0.511489757080    1.911948217716
  h          0.830221507792   -0.436497182116    1.681262709762
  h         -0.456793433104   -1.518543546161    2.253731820877
  h         -0.474724617927    0.171366517018    2.721845733409
  c         -1.120031782123   -0.193983184151    0.732149327679
  o         -2.342420646795   -0.221576018914    0.822213133681
  n         -0.458517144910    0.117041642661   -0.412739437064
  h          0.548711828246    0.117879558850   -0.408559862332
  c         -1.163220748890    0.443539649843   -1.630472700318
  h         -2.225468745770    0.370390506687   -1.418572339089
  h         -0.935401706776    1.456408698943   -1.960013485146
  h         -0.910722883901   -0.250889109954   -2.430503225191
  o          2.597680295940    0.135039093705   -0.526996327265
  h          3.162657580160   -0.577919527129   -0.832195733378
  h          3.177431914185    0.899232657906   -0.503097833394
 }
 basis=aug-cc-pVTZ
 
 
 
 hf; mp4; counterpoise
 
 
 
 {put,xml;noorbitals,nobasis}
 Commands initialized (841), CPU time= 0.00 sec, 716 directives.
 Default parameters read. Elapsed time= 0.10 sec

 Checking input...
 Passed
1


                                         ***  PROGRAM SYSTEM MOLPRO  ***
                                       Copyright, TTI GmbH Stuttgart, 2015
                                    Version 2023.1 linked Fri Jul  7 12:12:39 2023


 **********************************************************************************************************************************
 LABEL *                                                                                                                                                                 
  64 bit serial version                                                                  DATE: 08-Jul-23          TIME: 21:58:40  
 **********************************************************************************************************************************

 SHA1:             0fe2fddcc441eb00bb4c7ecb49b93e22d4ddc339
 **********************************************************************************************************************************

 Memory per process:       393 MW
 Total memory per node:    524 MW
 Total GA space:           131 MW

 GA preallocation disabled
 GA check enabled

 Variable memory set to 393.2 MW

 ZSYMEL=NOSYM


 Geometry recognized as XYZ

 SETTING BASIS          =    AUG-CC-PVTZ


 Recomputing integrals since basis changed


 Using spherical harmonics

 Library entry C      S aug-cc-pVTZ          selected for orbital group  1
 Library entry C      P aug-cc-pVTZ          selected for orbital group  1
 Library entry C      D aug-cc-pVTZ          selected for orbital group  1
 Library entry C      F aug-cc-pVTZ          selected for orbital group  1
 Library entry H      S aug-cc-pVTZ          selected for orbital group  2
 Library entry H      P aug-cc-pVTZ          selected for orbital group  2
 Library entry H      D aug-cc-pVTZ          selected for orbital group  2
 Library entry O      S aug-cc-pVTZ          selected for orbital group  4
 Library entry O      P aug-cc-pVTZ          selected for orbital group  4
 Library entry O      D aug-cc-pVTZ          selected for orbital group  4
 Library entry O      F aug-cc-pVTZ          selected for orbital group  4
 Library entry N      S aug-cc-pVTZ          selected for orbital group  5
 Library entry N      P aug-cc-pVTZ          selected for orbital group  5
 Library entry N      D aug-cc-pVTZ          selected for orbital group  5
 Library entry N      F aug-cc-pVTZ          selected for orbital group  5


 PROGRAM * SEWARD (Integral evaluation for generally contracted gaussian basis sets)     Author: Roland Lindh, 1990

 Geometry written to block  1 of record 700


 Point group  C1  



 ATOMIC COORDINATES

 NR  ATOM    CHARGE       X              Y              Z

   1  C       6.00   -0.433505849   -0.966575556    3.613058496
   2  H       1.00    1.568891273   -0.824860128    3.177126065
   3  H       1.00   -0.863214484   -2.869631411    4.258935900
   4  H       1.00   -0.897099512    0.323835784    5.143542990
   5  C       6.00   -2.116553319   -0.366575091    1.383561712
   6  O       8.00   -4.426533491   -0.418717992    1.553757639
   7  N       7.00   -0.866471827    0.221176650   -0.779964497
   8  H       1.00    1.036915077    0.222760082   -0.772066245
   9  C       6.00   -2.198168638    0.838168464   -3.081146857
  10  H       1.00   -4.205526428    0.699936617   -2.680713209
  11  H       1.00   -1.767653042    2.752213567   -3.703888687
  12  H       1.00   -1.721016826   -0.474111705   -4.592985441
  13  O       8.00    4.908904319    0.255186903   -0.995878727
  14  H       1.00    5.976556652   -1.092109628   -1.572622018
  15  H       1.00    6.004476097    1.699303446   -0.950717119

 Bond lengths in Bohr (Angstrom)

 1-2  2.054194386  1-3  2.055098225  1-4  2.054863328  1-5  2.857149849  5-6  2.316828421
     ( 1.087032856)     ( 1.087511147)     ( 1.087386845)     ( 1.511938588)     ( 1.226012802)

  5- 7  2.566905043   7- 8  1.903403950   7- 9  2.729383731   9-10  2.051570240   9-11  2.058329352
       ( 1.358347651)       ( 1.007237993)       ( 1.444327670)       ( 1.085644218)       ( 1.089220986)

  9-12  2.058010932  13-14  1.813207730  13-15  1.813226318
       ( 1.089052485)       ( 0.959508210)       ( 0.959518046)

 Bond angles

  1-5-6  121.68673501   1-5-7  114.76561876   2-1-3  109.53613120   2-1-4  109.55165806

  2-1-5  113.21157163   3-1-4  107.47361178   3-1-5  108.45340172   4-1-5  108.44650049

  5- 7- 8  118.92656064   5- 7- 9  121.65278092   6- 5- 7  123.54762817   7- 9-10  107.31367469

  7- 9-11  111.29936160   7- 9-12  111.22895924   8- 7- 9  119.42062152  10- 9-11  109.04787910

 10- 9-12  109.10347795  11- 9-12  108.79598226  14-13-15  104.11910811

 NUCLEAR CHARGE:                   50
 NUMBER OF PRIMITIVE AOS:         645
 NUMBER OF SYMMETRY AOS:          573
 NUMBER OF CONTRACTIONS:          483   (  483A   )
 NUMBER OF INNER CORE ORBITALS:     0   (    0A   )
 NUMBER OF OUTER CORE ORBITALS:     6   (    6A   )
 NUMBER OF VALENCE ORBITALS:       33   (   33A   )


 NUCLEAR REPULSION ENERGY  243.51194113


 Eigenvalues of metric

         1 0.105E-04 0.121E-04 0.155E-04 0.241E-04 0.267E-04 0.295E-04 0.365E-04 0.505E-04


 Contracted 2-electron integrals neglected if value below      1.0D-12
 AO integral compression algorithm  1   Integral accuracy      1.0D-12

     25267.798 MB (compressed) written to integral file ( 43.2%)


 NUMBER OF SORTED TWO-ELECTRON INTEGRALS: 6831226941.     BUFFER LENGTH:  32768
 NUMBER OF SEGMENTS: 143  SEGMENT LENGTH:   47999545      RECORD LENGTH: 262144

 Memory used in sort:      48.29 MW

 SORT1 READ  7318818882. AND WROTE  5912897034. INTEGRALS IN  33905 RECORDS. CPU TIME:    51.85 SEC, REAL TIME:    66.80 SEC
 SORT2 READ  5912897034. AND WROTE  6831226941. INTEGRALS IN  96389 RECORDS. CPU TIME:    29.73 SEC, REAL TIME:    76.29 SEC

 FILE SIZES:   FILE 1: 25306.6 MBYTE,  FILE 4: 71104.0 MBYTE,   TOTAL:  96410.6 MBYTE

 OPERATOR DM      FOR CENTER  0  COORDINATES:    0.000000    0.000000    0.000000


 **********************************************************************************************************************************
 DATASETS  * FILE   NREC   LENGTH (MB)   RECORD NAMES
              1      19    22580.07       500      610      700      900      950      970     1000      129      960     1100   
                                          VAR    BASINP    GEOM    SYMINP    ZMAT    AOBASIS   BASIS     P2S    ABASIS      S 
                                         1400     1410     1200     1210     1080     1600     1650     1300     1700   
                                           T        V       H0       H01     AOSYM     SMH    MOLCAS    ERIS     OPER   

 PROGRAMS   *        TOTAL       INT
 CPU TIMES  *       194.95    194.87
 REAL TIME  *       265.55 SEC
 DISK USED  *        89.79 GB
 **********************************************************************************************************************************


 Program * Restricted Hartree-Fock

 Orbital guess generated from atomic densities. Full valence occupancy:   39

 Initial occupancy:  25

 NELEC=   50   SYM=1   MS2= 0   THRE=1.0D-08   THRD=3.2D-06   THRG=3.2D-06  HFMA2=F  DIIS_START=2   DIIS_MAX=10   DIIS_INCORE=F

 Level shifts:    0.00 (CLOSED)    0.00 (OPEN)    0.30 (GAP_MIN)

 ITER           ETOT              DE          GRAD        DDIFF     DIIS  NEXP   TIME(IT)  TIME(TOT)  DIAG
   1     -323.02770257    -323.02770257     0.00D+00     0.29D-01     0     0      23.09     45.02    start
   2     -323.11804301      -0.09034045     0.35D-02     0.42D-02     1     0      23.46     68.48    diag
   3     -323.16558447      -0.04754145     0.25D-02     0.16D-02     2     0      23.24     91.72    diag
   4     -323.16813522      -0.00255076     0.40D-03     0.44D-03     3     0      24.37    116.09    diag
   5     -323.16848622      -0.00035100     0.15D-03     0.16D-03     4     0      23.38    139.47    diag
   6     -323.16853762      -0.00005140     0.47D-04     0.60D-04     5     0      23.37    162.84    diag
   7     -323.16854666      -0.00000904     0.17D-04     0.27D-04     6     0      23.15    185.99    diag
   8     -323.16854807      -0.00000141     0.67D-05     0.99D-05     7     0      23.17    209.16    fixocc
   9     -323.16854829      -0.00000022     0.24D-05     0.47D-05     8     0      23.50    232.66    diag
  10     -323.16854830      -0.00000001     0.64D-06     0.12D-05     9     0      23.18    255.84    diag/orth
  11     -323.16854830      -0.00000000     0.26D-06     0.32D-06     9     0      23.64    279.48    diag
  12     -323.16854830      -0.00000000     0.72D-07     0.11D-06     0     0      23.47    302.95    diag

 Final occupancy:  25

 !RHF STATE 1.1 Energy               -323.168548301680
  RHF One-electron energy            -924.524344745460
  RHF Two-electron energy             357.843855312009
  RHF Kinetic energy                  322.726182356029
  RHF Nuclear energy                  243.511941131770
  RHF Virial quotient                  -1.001370716012

 !RHF STATE 1.1 Dipole moment           2.64373017     0.16508911    -0.66282244
 Dipole moment /Debye                   6.71969184     0.41961465    -1.68472660

 Orbital energies:

           1.1          2.1          3.1          4.1          5.1          6.1          7.1          8.1          9.1         10.1
    -20.600791   -20.494544   -15.564181   -11.330616   -11.241478   -11.219125    -1.388047    -1.356777    -1.211844    -1.002760

          11.1         12.1         13.1         14.1         15.1         16.1         17.1         18.1         19.1         20.1
     -0.916290    -0.772844    -0.749938    -0.675928    -0.639977    -0.622787    -0.617324    -0.572702    -0.562464    -0.548046

          21.1         22.1         23.1         24.1         25.1         26.1         27.1
     -0.535791    -0.527203    -0.489094    -0.404444    -0.373322     0.013144     0.034701


 HOMO     25.1    -0.373322 =     -10.1586eV
 LUMO     26.1     0.013144 =       0.3577eV
 LUMO-HOMO         0.386466 =      10.5163eV

 Orbitals saved in record  2100.2


 **********************************************************************************************************************************
 DATASETS  * FILE   NREC   LENGTH (MB)   RECORD NAMES
              1      19    22580.07       500      610      700      900      950      970     1000      129      960     1100   
                                          VAR    BASINP    GEOM    SYMINP    ZMAT    AOBASIS   BASIS     P2S    ABASIS      S 
                                         1400     1410     1200     1210     1080     1600     1650     1300     1700   
                                           T        V       H0       H01     AOSYM     SMH    MOLCAS    ERIS     OPER   

              2       4        4.25       700     1000      520     2100   
                                         GEOM     BASIS   MCVARS     RHF  

 PROGRAMS   *        TOTAL    HF-SCF       INT
 CPU TIMES  *       497.90    302.95    194.87
 REAL TIME  *       600.31 SEC
 DISK USED  *        89.79 GB
 **********************************************************************************************************************************


 PROGRAM * MP4 (Closed-shell)     Authors: C. Hampel, H.-J. Werner, 1991, M. Deegan, P.J. Knowles, 1992


 Convergence thresholds:  THRVAR = 1.00D-08  THRDEN = 1.00D-06

 MP4(T)     terms to be evaluated (factor= 0.000)


 Number of core orbitals:           6 (   6 )
 Number of closed-shell orbitals:  19 (  19 )
 Number of external orbitals:     458 ( 458 )

 Molecular orbitals read from record     2100.2  Type=RHF/CANONICAL  

 Number of N-1 electron functions:              19
 Number of N-2 electron functions:             190
 Number of singly external CSFs:              8702
 Number of doubly external CSFs:          37866753
 Total number of CSFs:                    37875456

 Length of J-op  integral file:               0.00 MB
 Length of K-op  integral file:              16.08 MB

 For full I/O caching in triples, increase memory by 1763.36 Mwords to 2156.63 Mwords.

 Multipassing necessary in transformation. To avoid, increase memory by 811.79 Mwords.

 Integral transformation finished. Total CPU: 297.50 sec, npass=  4  Memory used: 371.92 MW

 Reference energy:                   -323.16854830

                        CORR.ENERGY   TOTAL ENERGY   ENERGY CHANGE
 MP2:                   -1.23974666  -324.40829496    -1.23974666

 SCS-MP2 correlation energy:           -1.22824871   (PS=  1.200000  PT=  0.333333)
 SCS-MP2 total energy:               -324.39679701

 MP3(D):                -1.26560299  -324.43415129    -0.02585633
 MP4(DQ):               -1.26367182  -324.43222012     0.00193116
 MP4(SDQ):              -1.27591788  -324.44446619    -0.01224606

 Norm of t1 vector:      0.09667462      S-energy:    -0.01224606      T1 diagnostic:  0.01108934

   CPU time for triples:   2099.56 sec for i =  1 - 13 / 19 (~  33.7 % done)
   CPU time for triples:   2511.55 sec for i = 14 - 17 / 19 (~  72.6 % done)
   CPU time for triples:   1780.52 sec for i = 18 - 19 / 19 (  100.0 % done)

 Total CPU time for triples:   6391.63 sec


 RESULTS
 =======

  Reference energy                   -323.168548301678
  MP4(SDQ) singlet pair energy         -0.848405924847
  MP4(SDQ) triplet pair energy         -0.415265897055
  MP4(SDQ) correlation energy          -1.275917884011

  Triples contribution                 -0.057221753407
  Total correlation energy             -1.333139637418

  MP4(SDQ) total energy              -324.444466185690
 !MP4(SDTQ) total energy             -324.501687939096

 Timing summary (sec):

 STEP                 CPU(USER)    SYS     CPU(TOT)    WALL
 Transformation        299.16     26.62    325.78    316.89
 CCSD iterations       737.61      8.40    746.01    193.73
 Triples              6391.63    191.31   6582.94  11238.45

 Program statistics:

 Available memory in ccsd:               393214531
 Min. memory needed in ccsd:              88598334
 Max. memory used in ccsd:               124029705
 Max. memory used in cckext:              90829265 ( 1 integral passes)



 **********************************************************************************************************************************
 DATASETS  * FILE   NREC   LENGTH (MB)   RECORD NAMES
              1      20    30069.67       500      610      700      900      950      970     1000      129      960     1100   
                                          VAR    BASINP    GEOM    SYMINP    ZMAT    AOBASIS   BASIS     P2S    ABASIS      S 
                                         1400     1410     1200     1210     1080     1600     1650     1300     1700     1380   
                                           T        V       H0       H01     AOSYM     SMH    MOLCAS    ERIS     OPER     JKOP   

              2       4        4.25       700     1000      520     2100   
                                         GEOM     BASIS   MCVARS     RHF  

 PROGRAMS   *        TOTAL       MP4    HF-SCF       INT
 CPU TIMES  *      7428.33   6930.43    302.95    194.87
 REAL TIME  *     12349.47 SEC
 DISK USED  *        89.79 GB
 **********************************************************************************************************************************

 Counterpoise: absolute minimum monomer separation=    -1.000 Bragg radius scale factor=     1.400 Number of monomers= 2

 Counterpoise  MP4  energy

 Running default procedure: HF-SCF000  MP4

 Assignment of unique atoms to monomers:
1-15     1     1     1     1     1     1     1     1     1     1     1     1     2     2     2

 *** Long output written to logfile /Users/sacpjk/current/PAPT/S66/9b67ebd9/16.molpro/run/1.molpro/1.log ***


 Description                       ENERGY          ENERGR          ENERGC
 Raw                        -324.50168794   -323.16854830   -324.44446619
 Dimer basis, monomer 1     -248.14958356   -247.10261046   -248.10237815
 Dimer basis, monomer 2      -76.34422850    -76.06052472    -76.33466732
 Monomer basis, monomer 1   -248.14913566   -247.10253308   -248.10196106
 Monomer basis, monomer 2    -76.34365920    -76.06042499    -76.33414803
 Counterpoise correction       0.00101720      0.00017711      0.00093638
 Counterpoise corrected     -324.50067074   -323.16837119   -324.44352981


 **********************************************************************************************************************************
 DATASETS  * FILE   NREC   LENGTH (MB)   RECORD NAMES
              1      18       37.00       500      610      700      900      950      970     1000      129      960     1100   
                                          VAR    BASINP    GEOM    SYMINP    ZMAT    AOBASIS   BASIS     P2S    ABASIS      S 
                                         1400     1410     1200     1210     1080     1600     1650     1700   
                                           T        V       H0       H01     AOSYM     SMH    MOLCAS    OPER   

              2      12       24.93       700     1000      520     2100     2101     2102      701     1001     2103      702   
                                         GEOM     BASIS   MCVARS     RHF      RHF      RHF     GEOM     BASIS     RHF     GEOM   
                                         1002     2104   
                                         BASIS     RHF  

 PROGRAMS   *        TOTALCOUNTERPOI    HF-SCF       INT       MP4    HF-SCF       INT       MP4    HF-SCF       INT       MP4
 CPU TIMES  *     13682.96      0.48      0.46      0.33   1725.78    130.63     84.14    155.67    232.12      0.11   3629.60
 REAL TIME  *     36844.74 SEC
 DISK USED  *        89.79 GB
 **********************************************************************************************************************************

 Dump information in style XML to xml output                                                                      

 Orbitals will not be exported.

 **********************************************************************************************************************************

 MP4/aug-cc-pVTZ energy=   -324.500670743302

             MP4          HF-SCF             MP4          HF-SCF             MP4          HF-SCF             MP4          HF-SCF
    -76.34365920    -76.06042499   -248.14913566   -247.10253308    -76.34422850    -76.06052472   -248.14958356   -247.10261046
 **********************************************************************************************************************************
 Molpro calculation terminated
