
 Working directory              : /var/folders/2v/xbgp75_9785319ghcgb4zr4r0000gp/T//molpro.M4DQNDvuMC/
 Global scratch directory       : /var/folders/2v/xbgp75_9785319ghcgb4zr4r0000gp/T//molpro.M4DQNDvuMC/
 Wavefunction directory         : /Users/sacpjk/wfu/
 Main file repository           : /var/folders/2v/xbgp75_9785319ghcgb4zr4r0000gp/T//molpro.M4DQNDvuMC/

 id        : peterk

 Nodes                        nprocs
 Cardiff-University-G34YLXT77Y    1
 GA implementation: MPI file
 GA implementation (serial work in mppx): MPI file

 Using customized tuning parameters: mindgm=1; mindgv=20; mindgc=4; mindgr=1; noblas=0; minvec=7
 default implementation of scratch files=df  


 Variables initialized (1032), CPU time= 0.00 sec
 
 symmetry,nosym
 
 
 geometry={
 13
  n         -1.561581233218   -0.576912082023   -0.788367630087
  h         -0.571181756010   -0.789127207935   -0.816440103170
  h         -2.036568808421   -1.466458411756   -0.711532449360
  c         -1.843912492193    0.224839935233    0.399867016764
  h         -2.909756621017    0.439148249798    0.449654467683
  h         -1.548919569505   -0.228821022088    1.351838920679
  h         -1.331135739425    1.181261637184    0.315438988676
  o          1.616329513774   -0.580544257817   -0.717544959141
  h          1.898355632744   -0.210595493004   -1.557409039450
  c          2.002243361437    0.331040002870    0.301891202844
  h          1.679060312631   -0.098592669806    1.244957746889
  h          3.083298599779    0.470123471759    0.340931169682
  h          1.523768799743    1.304637847904    0.186714667674
 }
 basis=aug-cc-pVDZ
 
 
 
 hf; mp3
 
 
 
 {put,xml;noorbitals,nobasis}
 Commands initialized (841), CPU time= 0.00 sec, 704 directives.
 Default parameters read. Elapsed time= 0.08 sec

 Checking input...
 Passed
1


                                         ***  PROGRAM SYSTEM MOLPRO  ***
                                       Copyright, TTI GmbH Stuttgart, 2015
                                    Version 2023.1 linked Tue Jun  6 09:54:11 2023


 **********************************************************************************************************************************
 LABEL *                                                                                                                                                                 
  64 bit serial version                                                                  DATE: 08-Jun-23          TIME: 21:50:03  
 **********************************************************************************************************************************

 SHA1:             8ebb0dd001088a5c915591db1a321413035db0b1
 **********************************************************************************************************************************

 Memory per process:       805 MW
 Total memory per node:   1074 MW
 Total GA space:           268 MW

 GA preallocation disabled
 GA check enabled

 Variable memory set to 805.3 MW

 ZSYMEL=NOSYM


 Geometry recognized as XYZ

 SETTING BASIS          =    AUG-CC-PVDZ


 Recomputing integrals since basis changed


 Using spherical harmonics

 Library entry N      S aug-cc-pVDZ          selected for orbital group  1
 Library entry N      P aug-cc-pVDZ          selected for orbital group  1
 Library entry N      D aug-cc-pVDZ          selected for orbital group  1
 Library entry H      S aug-cc-pVDZ          selected for orbital group  2
 Library entry H      P aug-cc-pVDZ          selected for orbital group  2
 Library entry C      S aug-cc-pVDZ          selected for orbital group  3
 Library entry C      P aug-cc-pVDZ          selected for orbital group  3
 Library entry C      D aug-cc-pVDZ          selected for orbital group  3
 Library entry O      S aug-cc-pVDZ          selected for orbital group  5
 Library entry O      P aug-cc-pVDZ          selected for orbital group  5
 Library entry O      D aug-cc-pVDZ          selected for orbital group  5


 PROGRAM * SEWARD (Integral evaluation for generally contracted gaussian basis sets)     Author: Roland Lindh, 1990

 Geometry written to block  1 of record 700


 Point group  C1  



 ATOMIC COORDINATES

 NR  ATOM    CHARGE       X              Y              Z

   1  N       7.00   -2.950960852   -1.090205833   -1.489798906
   2  H       1.00   -1.079377086   -1.491234300   -1.542848192
   3  H       1.00   -3.848557282   -2.771204771   -1.344601458
   4  C       6.00   -3.484489608    0.424885899    0.755639148
   5  H       1.00   -5.498643103    0.829869920    0.849723795
   6  H       1.00   -2.927033775   -0.432409063    2.554605325
   7  H       1.00   -2.515481982    2.232260976    0.596093298
   8  O       8.00    3.054420108   -1.097069650   -1.355963455
   9  H       1.00    3.587372233   -0.397967805   -2.943076549
  10  C       6.00    3.783691588    0.625574942    0.570491693
  11  H       1.00    3.172964138   -0.186313144    2.352629178
  12  H       1.00    5.826589914    0.888404606    0.644266538
  13  H       1.00    2.879505709    2.465408224    0.352839585

 Bond lengths in Bohr (Angstrom)

 1-2  1.914801256  1-3  1.911156477  1-4  2.760823781  4-5  2.056618166  4-6  2.069297215
     ( 1.013269188)     ( 1.011340454)     ( 1.460965028)     ( 1.088315465)     ( 1.095024929)

  4- 7  2.056948061   8- 9  1.814306846   8-10  2.685250588  10-11  2.051381071  10-12  2.061056945
       ( 1.088490038)       ( 0.960089836)       ( 1.420973417)       ( 1.085544114)       ( 1.090664366)

 10-13  2.061531240
       ( 1.090915352)

 Bond angles

  1-4-5  109.54406629   1-4-6  115.31871979   1-4-7  109.15197352   2-1-3  106.07836563

  2-1-4  109.04774565   3-1-4  109.27730371   5-4-6  107.79679288   5-4-7  106.97091570

  6- 4- 7  107.73101274   8-10-11  106.76853260   8-10-12  112.12813205   8-10-13  112.18950395

  9- 8-10  107.49423241  11-10-12  108.32856604  11-10-13  108.32203169  12-10-13  108.94776655

 NUCLEAR CHARGE:                   36
 NUMBER OF PRIMITIVE AOS:         247
 NUMBER OF SYMMETRY AOS:          239
 NUMBER OF CONTRACTIONS:          173   (  173A   )
 NUMBER OF INNER CORE ORBITALS:     0   (    0A   )
 NUMBER OF OUTER CORE ORBITALS:     4   (    4A   )
 NUMBER OF VALENCE ORBITALS:       25   (   25A   )


 NUCLEAR REPULSION ENERGY  129.31867320


 Eigenvalues of metric

         1 0.277E-03 0.345E-03 0.444E-03 0.480E-03 0.598E-03 0.681E-03 0.701E-03 0.744E-03


 Contracted 2-electron integrals neglected if value below      1.0D-11
 AO integral compression algorithm  1   Integral accuracy      1.0D-11

     495.452 MB (compressed) written to integral file ( 48.8%)


 NUMBER OF SORTED TWO-ELECTRON INTEGRALS:  113273826.     BUFFER LENGTH:  32768
 NUMBER OF SEGMENTS:   8  SEGMENT LENGTH:   15999503      RECORD LENGTH: 524288

 Memory used in sort:      16.56 MW

 SORT1 READ   126980582. AND WROTE   109512568. INTEGRALS IN    317 RECORDS. CPU TIME:     0.91 SEC, REAL TIME:     1.25 SEC
 SORT2 READ   109512568. AND WROTE   113273826. INTEGRALS IN   1890 RECORDS. CPU TIME:     0.77 SEC, REAL TIME:     1.05 SEC

 FILE SIZES:   FILE 1:   526.8 MBYTE,  FILE 4:  1329.7 MBYTE,   TOTAL:   1856.4 MBYTE

 OPERATOR DM      FOR CENTER  0  COORDINATES:    0.000000    0.000000    0.000000


 **********************************************************************************************************************************
 DATASETS  * FILE   NREC   LENGTH (MB)   RECORD NAMES
              1      19      457.32       500      610      700      900      950      970     1000      129      960     1100   
                                          VAR    BASINP    GEOM    SYMINP    ZMAT    AOBASIS   BASIS     P2S    ABASIS      S 
                                         1400     1410     1200     1210     1080     1600     1650     1300     1700   
                                           T        V       H0       H01     AOSYM     SMH    MOLCAS    ERIS     OPER   

 PROGRAMS   *        TOTAL       INT
 CPU TIMES  *         4.43      4.33
 REAL TIME  *         5.81 SEC
 DISK USED  *         1.73 GB
 **********************************************************************************************************************************


 Program * Restricted Hartree-Fock

 Orbital guess generated from atomic densities. Full valence occupancy:   29

 Initial occupancy:  18

 NELEC=   36   SYM=1   MS2= 0   THRE=1.0D-08   THRD=3.2D-06   THRG=3.2D-06  HFMA2=F  DIIS_START=2   DIIS_MAX=10   DIIS_INCORE=F

 Level shifts:    0.00 (CLOSED)    0.00 (OPEN)    0.30 (GAP_MIN)

 ITER           ETOT              DE          GRAD        DDIFF     DIIS  NEXP   TIME(IT)  TIME(TOT)  DIAG
   1     -210.23345234    -210.23345234     0.00D+00     0.65D-01     0     0       0.56      1.03    start
   2     -210.28421929      -0.05076695     0.44D-02     0.74D-02     1     0       0.46      1.49    diag
   3     -210.29301607      -0.00879678     0.20D-02     0.23D-02     2     0       0.61      2.10    diag
   4     -210.29406479      -0.00104872     0.54D-03     0.82D-03     3     0       0.53      2.63    diag
   5     -210.29411817      -0.00005338     0.11D-03     0.19D-03     4     0       0.51      3.14    diag
   6     -210.29412238      -0.00000421     0.32D-04     0.52D-04     5     0       0.59      3.73    diag
   7     -210.29412286      -0.00000048     0.98D-05     0.17D-04     6     0       0.51      4.24    diag
   8     -210.29412289      -0.00000003     0.20D-05     0.47D-05     7     0       0.55      4.79    fixocc
   9     -210.29412289      -0.00000000     0.71D-06     0.15D-05     8     0       0.52      5.31    diag
  10     -210.29412289      -0.00000000     0.18D-06     0.31D-06     0     0       0.55      5.86    diag/orth

 Final occupancy:  18

 !RHF STATE 1.1 Energy               -210.294122893930
  RHF One-electron energy            -542.091168712864
  RHF Two-electron energy             202.478372616162
  RHF Kinetic energy                  210.004146974417
  RHF Nuclear energy                  129.318673202772
  RHF Virial quotient                  -1.001380810444

 !RHF STATE 1.1 Dipole moment           0.67509696     0.30777091     0.35146254
 Dipole moment /Debye                   1.71592531     0.78227563     0.89332868

 Orbital energies:

           1.1          2.1          3.1          4.1          5.1          6.1          7.1          8.1          9.1         10.1
    -20.579809   -15.529761   -11.285756   -11.238224    -1.373493    -1.158157    -0.936628    -0.885704    -0.703393    -0.654472

          11.1         12.1         13.1         14.1         15.1         16.1         17.1         18.1         19.1         20.1
     -0.625222    -0.604732    -0.590175    -0.543404    -0.517014    -0.504082    -0.459654    -0.377518     0.033105     0.045289


 HOMO     18.1    -0.377518 =     -10.2728eV
 LUMO     19.1     0.033105 =       0.9008eV
 LUMO-HOMO         0.410622 =      11.1736eV

 Orbitals saved in record  2100.2


 **********************************************************************************************************************************
 DATASETS  * FILE   NREC   LENGTH (MB)   RECORD NAMES
              1      19      457.32       500      610      700      900      950      970     1000      129      960     1100   
                                          VAR    BASINP    GEOM    SYMINP    ZMAT    AOBASIS   BASIS     P2S    ABASIS      S 
                                         1400     1410     1200     1210     1080     1600     1650     1300     1700   
                                           T        V       H0       H01     AOSYM     SMH    MOLCAS    ERIS     OPER   

              2       4        1.05       700     1000      520     2100   
                                         GEOM     BASIS   MCVARS     RHF  

 PROGRAMS   *        TOTAL    HF-SCF       INT
 CPU TIMES  *        10.29      5.86      4.33
 REAL TIME  *        13.06 SEC
 DISK USED  *         1.73 GB
 **********************************************************************************************************************************


 PROGRAM * MP3 (Closed-shell)     Authors: C. Hampel, H.-J. Werner, 1991, M. Deegan, P.J. Knowles, 1992


 Convergence thresholds:  THRVAR = 1.00D-08  THRDEN = 1.00D-06

 Number of core orbitals:           4 (   4 )
 Number of closed-shell orbitals:  14 (  14 )
 Number of external orbitals:     155 ( 155 )

 Molecular orbitals read from record     2100.2  Type=RHF/CANONICAL  

 Number of N-1 electron functions:              14
 Number of N-2 electron functions:             105
 Number of singly external CSFs:              2170
 Number of doubly external CSFs:           2355535
 Total number of CSFs:                     2357706

 Length of J-op  integral file:               0.00 MB
 Length of K-op  integral file:               2.12 MB

 Integral transformation finished. Total CPU:   1.03 sec, npass=  1  Memory used:   5.84 MW

 Reference energy:                   -210.29412289

                        CORR.ENERGY   TOTAL ENERGY   ENERGY CHANGE
 MP2:                   -0.70646466  -211.00058755    -0.70646466

 SCS-MP2 correlation energy:           -0.70404285   (PS=  1.200000  PT=  0.333333)
 SCS-MP2 total energy:               -210.99816574

 MP3(D):                -0.74916382  -211.04328672    -0.04269916



 RESULTS
 =======

  Reference energy                   -210.294122893931
  MP3 singlet pair energy              -0.513523923698
  MP3 triplet pair energy              -0.235639898131
  MP3 correlation energy               -0.749163821829

 !MP3 total energy                   -211.043286715759

 Timing summary (sec):

 STEP                 CPU(USER)    SYS     CPU(TOT)    WALL
 Transformation          1.09      0.09      1.18      1.24
 CCSD iterations        14.66      0.10     14.76      4.58

 Program statistics:

 Available memory in ccsd:               805305566
 Min. memory needed in ccsd:               6056485
 Max. memory used in ccsd:                 8162274
 Max. memory used in cckext:               6601310 ( 1 integral passes)



 **********************************************************************************************************************************
 DATASETS  * FILE   NREC   LENGTH (MB)   RECORD NAMES
              1      20      493.81       500      610      700      900      950      970     1000      129      960     1100   
                                          VAR    BASINP    GEOM    SYMINP    ZMAT    AOBASIS   BASIS     P2S    ABASIS      S 
                                         1400     1410     1200     1210     1080     1600     1650     1300     1700     1380   
                                           T        V       H0       H01     AOSYM     SMH    MOLCAS    ERIS     OPER     JKOP   

              2       4        1.05       700     1000      520     2100   
                                         GEOM     BASIS   MCVARS     RHF  

 PROGRAMS   *        TOTAL       MP3    HF-SCF       INT
 CPU TIMES  *        15.67      5.38      5.86      4.33
 REAL TIME  *        18.99 SEC
 DISK USED  *         1.73 GB
 **********************************************************************************************************************************

 Dump information in style XML to xml output                                                                      

 Orbitals will not be exported.

 **********************************************************************************************************************************

 MP3/aug-cc-pVDZ energy=   -211.043286715759

             MP3          HF-SCF
   -211.04328672   -210.29412289
 **********************************************************************************************************************************
 Molpro calculation terminated
