
 Working directory              : /var/folders/2v/xbgp75_9785319ghcgb4zr4r0000gp/T//molpro.352sghVgrz/
 Global scratch directory       : /var/folders/2v/xbgp75_9785319ghcgb4zr4r0000gp/T//molpro.352sghVgrz/
 Wavefunction directory         : /Users/sacpjk/wfu/
 Main file repository           : /var/folders/2v/xbgp75_9785319ghcgb4zr4r0000gp/T//molpro.352sghVgrz/

 id        : peterk

 Nodes                        nprocs
 Cardiff-University-G34YLXT77Y    1
 GA implementation: MPI file
 GA implementation (serial work in mppx): MPI file

 Using customized tuning parameters: mindgm=1; mindgv=20; mindgc=4; mindgr=1; noblas=0; minvec=7
 default implementation of scratch files=df  


 Variables initialized (1032), CPU time= 0.00 sec
 
 symmetry,nosym
 
 
 geometry={
 6
  o         -1.692967873638   -0.055792648846    0.005566286146
  h         -2.012965043629    0.847043389039   -0.015864689617
  h         -0.733250757415    0.042389103344    0.000843023067
  o          1.230099247645    0.026984399092   -0.003755499652
  h          1.606720862419   -0.411395666637    0.762368881989
  h          1.602363564566   -0.449228575938   -0.749158001985
 }
 basis=aug-cc-pVDZ
 
 
 
 hf; mp3
 
 
 
 {put,xml;noorbitals,nobasis}
 Commands initialized (841), CPU time= 0.01 sec, 704 directives.
 Default parameters read. Elapsed time= 0.07 sec

 Checking input...
 Passed
1


                                         ***  PROGRAM SYSTEM MOLPRO  ***
                                       Copyright, TTI GmbH Stuttgart, 2015
                                    Version 2023.1 linked Tue Jun  6 09:54:11 2023


 **********************************************************************************************************************************
 LABEL *                                                                                                                                                                 
  64 bit serial version                                                                  DATE: 08-Jun-23          TIME: 21:50:05  
 **********************************************************************************************************************************

 SHA1:             8ebb0dd001088a5c915591db1a321413035db0b1
 **********************************************************************************************************************************

 Memory per process:       805 MW
 Total memory per node:   1074 MW
 Total GA space:           268 MW

 GA preallocation disabled
 GA check enabled

 Variable memory set to 805.3 MW

 ZSYMEL=NOSYM


 Geometry recognized as XYZ

 SETTING BASIS          =    AUG-CC-PVDZ


 Recomputing integrals since basis changed


 Using spherical harmonics

 Library entry O      S aug-cc-pVDZ          selected for orbital group  1
 Library entry O      P aug-cc-pVDZ          selected for orbital group  1
 Library entry O      D aug-cc-pVDZ          selected for orbital group  1
 Library entry H      S aug-cc-pVDZ          selected for orbital group  2
 Library entry H      P aug-cc-pVDZ          selected for orbital group  2


 PROGRAM * SEWARD (Integral evaluation for generally contracted gaussian basis sets)     Author: Roland Lindh, 1990

 Geometry written to block  1 of record 700


 Point group  C1  



 ATOMIC COORDINATES

 NR  ATOM    CHARGE       X              Y              Z

   1  O       8.00   -3.199245619   -0.105432826    0.010518756
   2  H       1.00   -3.803952631    1.600680021   -0.029979918
   3  H       1.00   -1.385643112    0.080103796    0.001593083
   4  O       8.00    2.324550684    0.050993124   -0.007096866
   5  H       1.00    3.036262389   -0.777425139    1.440668393
   6  H       1.00    3.028028289   -0.848918976   -1.415703448

 Bond lengths in Bohr (Angstrom)

 1-2  1.810561173  1-3  1.823090113  4-5  1.813514437  4-6  1.813531095
     ( 0.958107711)     ( 0.964737741)     ( 0.959670512)     ( 0.959679327)

 Bond angles

  2-1-3  103.66482512   5-4-6  103.95523304

 NUCLEAR CHARGE:                   20
 NUMBER OF PRIMITIVE AOS:         118
 NUMBER OF SYMMETRY AOS:          114
 NUMBER OF CONTRACTIONS:           82   (   82A   )
 NUMBER OF INNER CORE ORBITALS:     0   (    0A   )
 NUMBER OF OUTER CORE ORBITALS:     2   (    2A   )
 NUMBER OF VALENCE ORBITALS:       12   (   12A   )


 NUCLEAR REPULSION ENERGY   36.51369360

 Eigenvalues of metric

         1 0.167E-02 0.216E-02 0.263E-02 0.288E-02 0.629E-02 0.909E-02 0.114E-01 0.154E-01


 Contracted 2-electron integrals neglected if value below      1.0D-11
 AO integral compression algorithm  1   Integral accuracy      1.0D-11

     29.098 MB (compressed) written to integral file ( 50.4%)


 NUMBER OF SORTED TWO-ELECTRON INTEGRALS:    5791906.     BUFFER LENGTH:  32768
 NUMBER OF SEGMENTS:   1  SEGMENT LENGTH:    5791906      RECORD LENGTH: 524288

 Memory used in sort:       6.35 MW

 SORT1 READ     7252644. AND WROTE     5663220. INTEGRALS IN     17 RECORDS. CPU TIME:     0.05 SEC, REAL TIME:     0.07 SEC
 SORT2 READ     5663220. AND WROTE     5791906. INTEGRALS IN    111 RECORDS. CPU TIME:     0.08 SEC, REAL TIME:     0.11 SEC

 FILE SIZES:   FILE 1:    59.4 MBYTE,  FILE 4:    71.4 MBYTE,   TOTAL:    130.8 MBYTE

 OPERATOR DM      FOR CENTER  0  COORDINATES:    0.000000    0.000000    0.000000


 **********************************************************************************************************************************
 DATASETS  * FILE   NREC   LENGTH (MB)   RECORD NAMES
              1      19       51.50       500      610      700      900      950      970     1000      129      960     1100   
                                          VAR    BASINP    GEOM    SYMINP    ZMAT    AOBASIS   BASIS     P2S    ABASIS      S 
                                         1400     1410     1200     1210     1080     1600     1650     1300     1700   
                                           T        V       H0       H01     AOSYM     SMH    MOLCAS    ERIS     OPER   

 PROGRAMS   *        TOTAL       INT
 CPU TIMES  *         0.47      0.36
 REAL TIME  *         0.86 SEC
 DISK USED  *       125.15 MB
 **********************************************************************************************************************************


 Program * Restricted Hartree-Fock

 Orbital guess generated from atomic densities. Full valence occupancy:   14

 Initial occupancy:  10

 NELEC=   20   SYM=1   MS2= 0   THRE=1.0D-08   THRD=3.2D-06   THRG=3.2D-06  HFMA2=F  DIIS_START=2   DIIS_MAX=10   DIIS_INCORE=F

 Level shifts:    0.00 (CLOSED)    0.00 (OPEN)    0.30 (GAP_MIN)

 ITER           ETOT              DE          GRAD        DDIFF     DIIS  NEXP   TIME(IT)  TIME(TOT)  DIAG
   1     -152.02147010    -152.02147010     0.00D+00     0.11D+00     0     0       0.02      0.05    start
   2     -152.07105911      -0.04958901     0.10D-01     0.18D-01     1     0       0.03      0.08    diag
   3     -152.08810331      -0.01704421     0.59D-02     0.61D-02     2     0       0.03      0.11    diag
   4     -152.08848118      -0.00037786     0.65D-03     0.10D-02     3     0       0.02      0.13    diag
   5     -152.08850961      -0.00002843     0.15D-03     0.27D-03     4     0       0.03      0.16    diag
   6     -152.08851112      -0.00000151     0.33D-04     0.61D-04     5     0       0.03      0.19    diag
   7     -152.08851130      -0.00000018     0.15D-04     0.19D-04     6     0       0.03      0.22    diag
   8     -152.08851132      -0.00000002     0.31D-05     0.69D-05     7     0       0.02      0.24    fixocc
   9     -152.08851132      -0.00000000     0.49D-06     0.10D-05     8     0       0.03      0.27    diag
  10     -152.08851132      -0.00000000     0.86D-07     0.13D-06     0     0       0.03      0.30    diag/orth

 Final occupancy:  10

 !RHF STATE 1.1 Energy               -152.088511321976
  RHF One-electron energy            -282.242462874695
  RHF Two-electron energy              93.640257950493
  RHF Kinetic energy                  151.857925767336
  RHF Nuclear energy                   36.513693602226
  RHF Virial quotient                  -1.001518429502

 !RHF STATE 1.1 Dipole moment           1.14306801     0.03814875    -0.00367268
 Dipole moment /Debye                   2.90538909     0.09696444    -0.00933501

 Orbital energies:

           1.1          2.1          3.1          4.1          5.1          6.1          7.1          8.1          9.1         10.1
    -20.602784   -20.545951    -1.383099    -1.325609    -0.742008    -0.693806    -0.616212    -0.559759    -0.531459    -0.480285

          11.1         12.1
      0.027856     0.054933


 HOMO     10.1    -0.480285 =     -13.0692eV
 LUMO     11.1     0.027856 =       0.7580eV
 LUMO-HOMO         0.508141 =      13.8272eV

 Orbitals saved in record  2100.2


 **********************************************************************************************************************************
 DATASETS  * FILE   NREC   LENGTH (MB)   RECORD NAMES
              1      19       51.50       500      610      700      900      950      970     1000      129      960     1100   
                                          VAR    BASINP    GEOM    SYMINP    ZMAT    AOBASIS   BASIS     P2S    ABASIS      S 
                                         1400     1410     1200     1210     1080     1600     1650     1300     1700   
                                           T        V       H0       H01     AOSYM     SMH    MOLCAS    ERIS     OPER   

              2       4        0.57       700     1000      520     2100   
                                         GEOM     BASIS   MCVARS     RHF  

 PROGRAMS   *        TOTAL    HF-SCF       INT
 CPU TIMES  *         0.77      0.31      0.36
 REAL TIME  *         1.28 SEC
 DISK USED  *       125.15 MB
 **********************************************************************************************************************************


 PROGRAM * MP3 (Closed-shell)     Authors: C. Hampel, H.-J. Werner, 1991, M. Deegan, P.J. Knowles, 1992


 Convergence thresholds:  THRVAR = 1.00D-08  THRDEN = 1.00D-06

 Number of core orbitals:           2 (   2 )
 Number of closed-shell orbitals:   8 (   8 )
 Number of external orbitals:      72 (  72 )

 Molecular orbitals read from record     2100.2  Type=RHF/CANONICAL  

 Number of N-1 electron functions:               8
 Number of N-2 electron functions:              36
 Number of singly external CSFs:               576
 Number of doubly external CSFs:            166176
 Total number of CSFs:                      166753

 Length of J-op  integral file:               0.00 MB
 Length of K-op  integral file:               0.52 MB

 Integral transformation finished. Total CPU:   0.05 sec, npass=  1  Memory used:   0.58 MW

 Reference energy:                   -152.08851132

                        CORR.ENERGY   TOTAL ENERGY   ENERGY CHANGE
 MP2:                   -0.44147703  -152.52998835    -0.44147703

 SCS-MP2 correlation energy:           -0.43184178   (PS=  1.200000  PT=  0.333333)
 SCS-MP2 total energy:               -152.52035310

 MP3(D):                -0.45075033  -152.53926165    -0.00927330



 RESULTS
 =======

  Reference energy                   -152.088511321977
  MP3 singlet pair energy              -0.295523567115
  MP3 triplet pair energy              -0.155226764360
  MP3 correlation energy               -0.450750331475

 !MP3 total energy                   -152.539261653452

 Timing summary (sec):

 STEP                 CPU(USER)    SYS     CPU(TOT)    WALL
 Transformation          0.06      0.01      0.07      0.11
 CCSD iterations         1.06      0.01      1.07      0.28

 Program statistics:

 Available memory in ccsd:               805306102
 Min. memory needed in ccsd:                527149
 Max. memory used in ccsd:                  660557
 Max. memory used in cckext:                560342 ( 1 integral passes)



 **********************************************************************************************************************************
 DATASETS  * FILE   NREC   LENGTH (MB)   RECORD NAMES
              1      20       54.39       500      610      700      900      950      970     1000      129      960     1100   
                                          VAR    BASINP    GEOM    SYMINP    ZMAT    AOBASIS   BASIS     P2S    ABASIS      S 
                                         1400     1410     1200     1210     1080     1600     1650     1300     1700     1380   
                                           T        V       H0       H01     AOSYM     SMH    MOLCAS    ERIS     OPER     JKOP   

              2       4        0.57       700     1000      520     2100   
                                         GEOM     BASIS   MCVARS     RHF  

 PROGRAMS   *        TOTAL       MP3    HF-SCF       INT
 CPU TIMES  *         1.04      0.26      0.31      0.36
 REAL TIME  *         1.74 SEC
 DISK USED  *       125.15 MB
 **********************************************************************************************************************************

 Dump information in style XML to xml output                                                                      

 Orbitals will not be exported.

 **********************************************************************************************************************************

 MP3/aug-cc-pVDZ energy=   -152.539261653452

             MP3          HF-SCF
   -152.53926165   -152.08851132
 **********************************************************************************************************************************
 Molpro calculation terminated
