
 Working directory              : /var/folders/2v/xbgp75_9785319ghcgb4zr4r0000gp/T//molpro.kxeXTeTP27/
 Global scratch directory       : /var/folders/2v/xbgp75_9785319ghcgb4zr4r0000gp/T//molpro.kxeXTeTP27/
 Wavefunction directory         : /Users/sacpjk/wfu/
 Main file repository           : /var/folders/2v/xbgp75_9785319ghcgb4zr4r0000gp/T//molpro.kxeXTeTP27/

 id        : peterk

 Nodes                        nprocs
 Cardiff-University-G34YLXT77Y    1
 GA implementation: MPI file
 GA implementation (serial work in mppx): MPI file

 Using customized tuning parameters: mindgm=1; mindgv=20; mindgc=4; mindgr=1; noblas=0; minvec=7
 default implementation of scratch files=df  


 Variables initialized (1032), CPU time= 0.00 sec
 
 symmetry,nosym
 
 
 geometry={
           14
     C          1.43362384     -0.07172340      0.68200097
     C          1.43362384     -0.07172340     -0.68200097
     C         -0.96582917      0.17183310     -1.19958151
     N         -1.34265896     -0.30734576      0.00000000
     C         -0.96582917      0.17183310      1.19958151
     H          1.47349709     -0.99649735      1.24415492
     H          1.65932559      0.82721106      1.24287663
     H          1.47349709     -0.99649735     -1.24415492
     H          1.65932559      0.82721106     -1.24287663
     H         -0.81622705      1.23706676     -1.28551375
     H         -1.29551941     -0.37599263     -2.07048102
     H         -1.63508282     -1.27644933      0.00000000
     H         -0.81622705      1.23706676      1.28551375
     H         -1.29551941     -0.37599263      2.07048102
 }
 basis=cc-pVDZ
 
 
 
 hf; hf; papt; mp4
 
 
 
 {put,xml;noorbitals,nobasis}
 Commands initialized (841), CPU time= 0.01 sec, 704 directives.
 Default parameters read. Elapsed time= 1.15 sec

 Checking input...
 Passed
1


                                         ***  PROGRAM SYSTEM MOLPRO  ***
                                       Copyright, TTI GmbH Stuttgart, 2015
                                    Version 2023.1 linked Tue Jun  6 09:54:11 2023


 **********************************************************************************************************************************
 LABEL *                                                                                                                                                                 
  64 bit serial version                                                                  DATE: 11-Jun-23          TIME: 14:04:54  
 **********************************************************************************************************************************

 SHA1:             8ebb0dd001088a5c915591db1a321413035db0b1
 **********************************************************************************************************************************

 Memory per process:       393 MW
 Total memory per node:    524 MW
 Total GA space:           131 MW

 GA preallocation disabled
 GA check enabled

 Variable memory set to 393.2 MW

 ZSYMEL=NOSYM


 Geometry recognized as XYZ

 SETTING BASIS          =    CC-PVDZ


 Recomputing integrals since basis changed


 Using spherical harmonics

 Library entry C      S cc-pVDZ              selected for orbital group  1
 Library entry C      P cc-pVDZ              selected for orbital group  1
 Library entry C      D cc-pVDZ              selected for orbital group  1
 Library entry N      S cc-pVDZ              selected for orbital group  2
 Library entry N      P cc-pVDZ              selected for orbital group  2
 Library entry N      D cc-pVDZ              selected for orbital group  2
 Library entry H      S cc-pVDZ              selected for orbital group  4
 Library entry H      P cc-pVDZ              selected for orbital group  4


 PROGRAM * SEWARD (Integral evaluation for generally contracted gaussian basis sets)     Author: Roland Lindh, 1990

 Geometry written to block  1 of record 700


 Point group  C1  



 ATOMIC COORDINATES

 NR  ATOM    CHARGE       X              Y              Z

   1  C       6.00    2.709156423   -0.135537583    1.288795050
   2  C       6.00    2.709156423   -0.135537583   -1.288795050
   3  C       6.00   -1.825152614    0.324717498   -2.266880518
   4  N       7.00   -2.537257713   -0.580799312    0.000000000
   5  C       6.00   -1.825152614    0.324717498    2.266880518
   6  H       1.00    2.784505946   -1.883107075    2.351112055
   7  H       1.00    3.135670917    1.563202351    2.348696437
   8  H       1.00    2.784505946   -1.883107075   -2.351112055
   9  H       1.00    3.135670917    1.563202351   -2.348696437
  10  H       1.00   -1.542445580    2.337717374   -2.429268917
  11  H       1.00   -2.448176874   -0.710523096   -3.912642074
  12  H       1.00   -3.089858721   -2.412139646    0.000000000
  13  H       1.00   -1.542445580    2.337717374    2.429268917
  14  H       1.00   -2.448176874   -0.710523096    3.912642074

 Bond lengths in Bohr (Angstrom)

 1-2  2.577590100  1-6  2.046507782  1-7  2.047198800  2-8  2.046507782  2-9  2.047198800
     ( 1.364001940)     ( 1.082965280)     ( 1.083330951)     ( 1.082965280)     ( 1.083330951)

  3- 4  2.542794063   3-10  2.039230679   3-11  2.041669271   4- 5  2.542794063   4-12  1.912897094
       ( 1.345588670)       ( 1.079114403)       ( 1.080404851)       ( 1.345588670)       ( 1.012261549)

  5-13  2.039230679   5-14  2.041669271
       ( 1.079114403)       ( 1.080404851)

 Bond angles

  1-2-8  121.27107569   1-2-9  121.18027576   2-1-6  121.27107569   2-1-7  121.18027576

  3- 4- 5  126.12266296   3- 4-12  114.95010854   4- 3-10  117.47399518   4- 3-11  116.91018999

  4- 5-13  117.47399518   4- 5-14  116.91018999   5- 4-12  114.95010854   6- 1- 7  115.60465742

  8- 2- 9  115.60465742  10- 3-11  118.59714253  13- 5-14  118.59714253

 NUCLEAR CHARGE:                   40
 NUMBER OF PRIMITIVE AOS:         198
 NUMBER OF SYMMETRY AOS:          193
 NUMBER OF CONTRACTIONS:          115   (  115A   )
 NUMBER OF INNER CORE ORBITALS:     0   (    0A   )
 NUMBER OF OUTER CORE ORBITALS:     5   (    5A   )
 NUMBER OF VALENCE ORBITALS:       29   (   29A   )


 NUCLEAR REPULSION ENERGY  174.97760959


 Eigenvalues of metric

         1 0.277E-02 0.565E-02 0.711E-02 0.129E-01 0.141E-01 0.179E-01 0.194E-01 0.202E-01


 Contracted 2-electron integrals neglected if value below      1.0D-11
 AO integral compression algorithm  1   Integral accuracy      1.0D-11

     97.255 MB (compressed) written to integral file ( 50.5%)


 NUMBER OF SORTED TWO-ELECTRON INTEGRALS:   22247785.     BUFFER LENGTH:  32768
 NUMBER OF SEGMENTS:   2  SEGMENT LENGTH:   15997996      RECORD LENGTH: 524288

 Memory used in sort:      16.56 MW

 SORT1 READ    24038957. AND WROTE    21638217. INTEGRALS IN     63 RECORDS. CPU TIME:     0.18 SEC, REAL TIME:     0.23 SEC
 SORT2 READ    21638217. AND WROTE    22247785. INTEGRALS IN    371 RECORDS. CPU TIME:     0.18 SEC, REAL TIME:     0.23 SEC

 FILE SIZES:   FILE 1:   128.0 MBYTE,  FILE 4:   264.3 MBYTE,   TOTAL:    392.3 MBYTE

 OPERATOR DM      FOR CENTER  0  COORDINATES:    0.000000    0.000000    0.000000


 **********************************************************************************************************************************
 DATASETS  * FILE   NREC   LENGTH (MB)   RECORD NAMES
              1      19      112.98       500      610      700      900      950      970     1000      129      960     1100   
                                          VAR    BASINP    GEOM    SYMINP    ZMAT    AOBASIS   BASIS     P2S    ABASIS      S 
                                         1400     1410     1200     1210     1080     1600     1650     1300     1700   
                                           T        V       H0       H01     AOSYM     SMH    MOLCAS    ERIS     OPER   

 PROGRAMS   *        TOTAL       INT
 CPU TIMES  *         1.46      1.36
 REAL TIME  *         4.95 SEC
 DISK USED  *       374.67 MB
 **********************************************************************************************************************************


 Program * Restricted Hartree-Fock

 Orbital guess generated from atomic densities. Full valence occupancy:   34

 Initial occupancy:  20

 NELEC=   40   SYM=1   MS2= 0   THRE=1.0D-08   THRD=3.2D-06   THRG=3.2D-06  HFMA2=F  DIIS_START=2   DIIS_MAX=10   DIIS_INCORE=F

 Level shifts:    0.00 (CLOSED)    0.00 (OPEN)    0.30 (GAP_MIN)

 ITER           ETOT              DE          GRAD        DDIFF     DIIS  NEXP   TIME(IT)  TIME(TOT)  DIAG
   1     -210.94044116    -210.94044116     0.00D+00     0.97D-01     0     0       0.09      0.18    start
   2     -210.99947069      -0.05902954     0.50D-02     0.11D-01     1     0       0.10      0.28    diag
   3     -211.01319994      -0.01372925     0.27D-02     0.43D-02     2     0       0.10      0.38    diag
   4     -211.01459419      -0.00139424     0.67D-03     0.14D-02     3     0       0.09      0.47    diag
   5     -211.01467690      -0.00008271     0.16D-03     0.30D-03     4     0       0.09      0.56    diag
   6     -211.01469444      -0.00001754     0.54D-04     0.13D-03     5     0       0.10      0.66    diag
   7     -211.01469848      -0.00000404     0.19D-04     0.65D-04     6     0       0.10      0.76    diag
   8     -211.01469929      -0.00000081     0.97D-05     0.36D-04     7     0       0.09      0.85    fixocc
   9     -211.01469935      -0.00000006     0.30D-05     0.94D-05     8     0       0.09      0.94    diag
  10     -211.01469936      -0.00000001     0.94D-06     0.32D-05     9     0       0.10      1.04    diag/orth
  11     -211.01469936      -0.00000000     0.20D-06     0.63D-06     9     0       0.09      1.13    diag
  12     -211.01469936      -0.00000000     0.42D-07     0.94D-07     0     0       0.09      1.22    diag

 Final occupancy:  20

 !RHF STATE 1.1 Energy               -211.014699359397
  RHF One-electron energy            -630.839245446776
  RHF Two-electron energy             244.846936500516
  RHF Kinetic energy                  210.626417019464
  RHF Nuclear energy                  174.977609586863
  RHF Virial quotient                  -1.001843464583

 !RHF STATE 1.1 Dipole moment          -0.77595719    -0.32821884     0.00000000
 Dipole moment /Debye                  -1.97228646    -0.83424908     0.00000000

 Orbital energies:

           1.1          2.1          3.1          4.1          5.1          6.1          7.1          8.1          9.1         10.1
    -15.641824   -11.249071   -11.249023   -11.206710   -11.205323    -1.280111    -0.995152    -0.958977    -0.836187    -0.765319

          11.1         12.1         13.1         14.1         15.1         16.1         17.1         18.1         19.1         20.1
     -0.708632    -0.642332    -0.606828    -0.555272    -0.553611    -0.547970    -0.533664    -0.473542    -0.318563    -0.244577

          21.1         22.1
      0.144506     0.170186


 HOMO     20.1    -0.244577 =      -6.6553eV
 LUMO     21.1     0.144506 =       3.9322eV
 LUMO-HOMO         0.389084 =      10.5875eV

 Orbitals saved in record  2100.2


 **********************************************************************************************************************************
 DATASETS  * FILE   NREC   LENGTH (MB)   RECORD NAMES
              1      19      112.98       500      610      700      900      950      970     1000      129      960     1100   
                                          VAR    BASINP    GEOM    SYMINP    ZMAT    AOBASIS   BASIS     P2S    ABASIS      S 
                                         1400     1410     1200     1210     1080     1600     1650     1300     1700   
                                           T        V       H0       H01     AOSYM     SMH    MOLCAS    ERIS     OPER   

              2       4        0.81       700     1000      520     2100   
                                         GEOM     BASIS   MCVARS     RHF  

 PROGRAMS   *        TOTAL    HF-SCF       INT
 CPU TIMES  *         2.69      1.23      1.36
 REAL TIME  *         7.29 SEC
 DISK USED  *       374.67 MB
 **********************************************************************************************************************************


 Program * Restricted Hartree-Fock

 Molecular orbitals read from record     2100.2  Type=RHF/CANONICAL  

 Initial occupancy:  20

 NELEC=   40   SYM=1   MS2= 0   THRE=1.0D-08   THRD=3.2D-06   THRG=3.2D-06  HFMA2=F  DIIS_START=2   DIIS_MAX=10   DIIS_INCORE=F

 Level shifts:    0.00 (CLOSED)    0.00 (OPEN)    0.30 (GAP_MIN)

 ITER           ETOT              DE          GRAD        DDIFF     DIIS  NEXP   TIME(IT)  TIME(TOT)  DIAG
   1     -211.01469936    -211.01469936     0.00D+00     0.10D+00     0     0       0.09      0.10    start
   2     -211.01469936      -0.00000000     0.17D-07     0.37D-07     1     0       0.10      0.20    diag

 Final occupancy:  20

 !RHF STATE 1.1 Energy               -211.014699359399
  RHF One-electron energy            -630.839243126418
  RHF Two-electron energy             244.846934180156
  RHF Kinetic energy                  210.626415590308
  RHF Nuclear energy                  174.977609586863
  RHF Virial quotient                  -1.001843471380

 !RHF STATE 1.1 Dipole moment          -0.77595749    -0.32821825    -0.00000000
 Dipole moment /Debye                  -1.97228722    -0.83424758    -0.00000000

 Orbital energies:

           1.1          2.1          3.1          4.1          5.1          6.1          7.1          8.1          9.1         10.1
    -15.641823   -11.249071   -11.249023   -11.206710   -11.205322    -1.280110    -0.995152    -0.958977    -0.836187    -0.765319

          11.1         12.1         13.1         14.1         15.1         16.1         17.1         18.1         19.1         20.1
     -0.708632    -0.642332    -0.606828    -0.555272    -0.553611    -0.547970    -0.533663    -0.473542    -0.318563    -0.244577

          21.1         22.1
      0.144506     0.170186


 HOMO     20.1    -0.244577 =      -6.6553eV
 LUMO     21.1     0.144506 =       3.9322eV
 LUMO-HOMO         0.389084 =      10.5875eV

 Orbitals saved in record  2101.2


 **********************************************************************************************************************************
 DATASETS  * FILE   NREC   LENGTH (MB)   RECORD NAMES
              1      19      112.98       500      610      700      900      950      970     1000      129      960     1100   
                                          VAR    BASINP    GEOM    SYMINP    ZMAT    AOBASIS   BASIS     P2S    ABASIS      S 
                                         1400     1410     1200     1210     1080     1600     1650     1300     1700   
                                           T        V       H0       H01     AOSYM     SMH    MOLCAS    ERIS     OPER   

              2       5        1.26       700     1000      520     2100     2101   
                                         GEOM     BASIS   MCVARS     RHF      RHF  

 PROGRAMS   *        TOTAL    HF-SCF    HF-SCF       INT
 CPU TIMES  *         2.89      0.20      1.23      1.36
 REAL TIME  *         7.90 SEC
 DISK USED  *       374.67 MB
 **********************************************************************************************************************************


 PROGRAM * PAPT (Closed-shell)     Authors: C. Hampel, H.-J. Werner, 1991, P.J. Knowles, 2021


 Convergence thresholds:  THRVAR = 1.00D-08  THRDEN = 1.00D-06

 Number of core orbitals:           5 (   5 )
 Number of closed-shell orbitals:  15 (  15 )
 Number of external orbitals:      95 (  95 )

 Molecular orbitals read from record     2101.2  Type=RHF/CANONICAL  

 Number of N-1 electron functions:              15
 Number of N-2 electron functions:             120
 Number of singly external CSFs:              1425
 Number of doubly external CSFs:           1016025
 Total number of CSFs:                     1017451

 Length of J-op  integral file:               0.00 MB
 Length of K-op  integral file:               0.97 MB

 Integral transformation finished. Total CPU:   0.24 sec, npass=  1  Memory used:   2.90 MW

 Reference energy:                   -211.01469936

                        CORR.ENERGY   TOTAL ENERGY   ENERGY CHANGE
 MP2:                   -0.77100633  -211.78570569    -0.77100633

 SCS-MP2 correlation energy:           -0.76138185   (PS=  1.200000  PT=  0.333333)
 SCS-MP2 total energy:               -211.77608121
 Iteration:   1     0.3188D+00
 Iteration:   2     0.4349D+01
 Iteration:   3     0.9673D-01
 Iteration:   4     0.1662D+00
 Iteration:   5     0.3792D-01
 Iteration:   6     0.5054D-01
 Iteration:   7     0.3020D-01
 Iteration:   8     0.1037D-01
 Iteration:   9     0.1509D-01
 Iteration:  10     0.5722D-02
 Iteration:  11     0.2554D-02
 Iteration:  12     0.2286D-01
 Iteration:  13     0.6993D-03
 Iteration:  14     0.1037D-02
 Iteration:  15     0.4068D-03
 Iteration:  16     0.1661D-03
 Iteration:  17     0.1427D-02
 Iteration:  18     0.7995D-04
 PAPT operator written to  7000.1
 PAPT orbitals and eigenvalues written to  7000.2

 MP3(D):                -0.80973417  -211.82443353    -0.03872784



 RESULTS
 =======

  Reference energy                   -211.014699359398
  MP3 singlet pair energy              -0.547666663311
  MP3 triplet pair energy              -0.262067506589
  MP3 correlation energy               -0.809734169900

 !MP3 total energy                   -211.824433529298

 Timing summary (sec):

 STEP                 CPU(USER)    SYS     CPU(TOT)    WALL
 Transformation          0.26      0.03      0.29      0.43
 CCSD iterations         6.87      0.11      6.98      5.30

 Program statistics:

 Available memory in ccsd:               393215080
 Min. memory needed in ccsd:               2710169
 Max. memory used in ccsd:                 3596219
 Max. memory used in cckext:               3347913 ( 1 integral passes)



 **********************************************************************************************************************************
 DATASETS  * FILE   NREC   LENGTH (MB)   RECORD NAMES
              1      21      131.45       500      610      700      900      950      970     1000      129      960     1100   
                                          VAR    BASINP    GEOM    SYMINP    ZMAT    AOBASIS   BASIS     P2S    ABASIS      S 
                                         1400     1410     1200     1210     1080     1600     1650     1300     1700     1380   
                                           T        V       H0       H01     AOSYM     SMH    MOLCAS    ERIS     OPER     JKOP   
                                         7000   
                                        PAPT AO    

              2       6        1.67       700     1000      520     2100     2101     7000   
                                         GEOM     BASIS   MCVARS     RHF      RHF     PAPT   

 PROGRAMS   *        TOTAL      PAPT    HF-SCF    HF-SCF       INT
 CPU TIMES  *         7.04      4.15      0.20      1.23      1.36
 REAL TIME  *        13.88 SEC
 DISK USED  *       374.67 MB
 **********************************************************************************************************************************


 PROGRAM * MP4 (Closed-shell)     Authors: C. Hampel, H.-J. Werner, 1991, M. Deegan, P.J. Knowles, 1992


 Convergence thresholds:  THRVAR = 1.00D-08  THRDEN = 1.00D-06

 MP4(T)     terms to be evaluated (factor= 0.000)


 Number of core orbitals:           5 (   5 )
 Number of closed-shell orbitals:  15 (  15 )
 Number of external orbitals:      95 (  95 )

 Molecular orbitals read from record     7000.2  Type=PAPT/CANONICAL (state 1.1)

 Number of N-1 electron functions:              15
 Number of N-2 electron functions:             120
 Number of singly external CSFs:              1425
 Number of doubly external CSFs:           1016025
 Total number of CSFs:                     1017451

 Length of J-op  integral file:               0.00 MB
 Length of K-op  integral file:               0.97 MB

 Memory could be reduced to 17.70 Mwords without degradation in triples

 Integral transformation finished. Total CPU:   0.59 sec, npass=  1  Memory used:  15.17 MW
 Orbital energies read from record       7000.2  Type=PAPT/CANONICAL (state 1.1)

 Reference energy:                   -211.01469936

                        CORR.ENERGY   TOTAL ENERGY   ENERGY CHANGE
 MP2:                   -0.81924122  -211.83394058    -0.81924122

 SCS-MP2 correlation energy:           -0.81487929   (PS=  1.200000  PT=  0.333333)
 SCS-MP2 total energy:               -211.82957865

 MP3(D):                -0.81953061  -211.83422997    -0.00028939
 MP4(DQ):               -0.81077026  -211.82546962     0.00876035
 MP4(SDQ):              -0.81645659  -211.83115594    -0.00568633

 Norm of t1 vector:      0.06341774      S-energy:    -0.00568633      T1 diagnostic:  0.00818720

 Largest off-diagonal element in interal  block of Fock matrix:  0.12D+00
 Largest off-diagonal element in external block of Fock matrix:  0.14D+00


 Total CPU time for triples:     12.01 sec


 RESULTS
 =======

  Reference energy                   -211.014699359398
  MP4(SDQ) singlet pair energy         -0.549473424392
  MP4(SDQ) triplet pair energy         -0.261296835035
  MP4(SDQ) correlation energy          -0.816456585265

  Triples contribution                 -0.037853737021
  Total correlation energy             -0.854310322285

  MP4(SDQ) total energy              -211.831155944663
 !MP4(SDTQ) total energy             -211.869009681683

 Timing summary (sec):

 STEP                 CPU(USER)    SYS     CPU(TOT)    WALL
 Transformation          0.71      0.08      0.79      1.44
 CCSD iterations         8.97      0.04      9.01      2.15
 Triples                12.01      0.75     12.76     13.18

 Program statistics:

 Available memory in ccsd:               393215080
 Min. memory needed in ccsd:               2710169
 Max. memory used in ccsd:                 3596219
 Max. memory used in cckext:               3347913 ( 1 integral passes)



 **********************************************************************************************************************************
 DATASETS  * FILE   NREC   LENGTH (MB)   RECORD NAMES
              1      22      181.02       500      610      700      900      950      970     1000      129      960     1100   
                                          VAR    BASINP    GEOM    SYMINP    ZMAT    AOBASIS   BASIS     P2S    ABASIS      S 
                                         1400     1410     1200     1210     1080     1600     1650     1300     1700     1380   
                                           T        V       H0       H01     AOSYM     SMH    MOLCAS    ERIS     OPER     JKOP   
                                         7000     1380(1)
                                        PAPT AO   JKOP   

              2       6        1.67       700     1000      520     2100     2101     7000   
                                         GEOM     BASIS   MCVARS     RHF      RHF     PAPT   

 PROGRAMS   *        TOTAL       MP4      PAPT    HF-SCF    HF-SCF       INT
 CPU TIMES  *        21.59     14.54      4.15      0.20      1.23      1.36
 REAL TIME  *        30.94 SEC
 DISK USED  *       374.67 MB
 **********************************************************************************************************************************

 Dump information in style XML to xml output                                                                      

 Orbitals will not be exported.

 **********************************************************************************************************************************

 MP4/cc-pVDZ energy=   -211.869009681683

             MP4            PAPT          HF-SCF          HF-SCF
   -211.86900968   -211.82443353   -211.01469936   -211.01469936
 **********************************************************************************************************************************
 Molpro calculation terminated
