
 Working directory              : /var/folders/2v/xbgp75_9785319ghcgb4zr4r0000gp/T//molpro.FhIposweCj/
 Global scratch directory       : /var/folders/2v/xbgp75_9785319ghcgb4zr4r0000gp/T//molpro.FhIposweCj/
 Wavefunction directory         : /Users/sacpjk/wfu/
 Main file repository           : /var/folders/2v/xbgp75_9785319ghcgb4zr4r0000gp/T//molpro.FhIposweCj/

 id        : peterk

 Nodes                        nprocs
 Cardiff-University-G34YLXT77Y    1
 GA implementation: MPI file
 GA implementation (serial work in mppx): MPI file

 Using customized tuning parameters: mindgm=1; mindgv=20; mindgc=4; mindgr=1; noblas=0; minvec=7
 default implementation of scratch files=df  


 Variables initialized (1032), CPU time= 0.00 sec
 
 symmetry,nosym
 
 
 geometry={
            6
     F          0.00000000      0.00000000     -1.79137135
     C          0.00000000      0.00000000     -0.36561703
     H         -0.51179113      0.88644824     -0.01758668
     H         -0.51179113     -0.88644824     -0.01758668
     H          1.02358226      0.00000000     -0.01758668
     F          0.00000000      0.00000000      2.20974841
 }
 basis=cc-pVTZ
 
 charge=-1
 
 hf; ccsd
 
 
 
 {put,xml;noorbitals,nobasis}
 Commands initialized (841), CPU time= 0.01 sec, 704 directives.
 Default parameters read. Elapsed time= 0.33 sec

 Checking input...
 Passed
1


                                         ***  PROGRAM SYSTEM MOLPRO  ***
                                       Copyright, TTI GmbH Stuttgart, 2015
                                    Version 2023.1 linked Tue Jun  6 09:54:11 2023


 **********************************************************************************************************************************
 LABEL *                                                                                                                                                                 
  64 bit serial version                                                                  DATE: 09-Jun-23          TIME: 15:35:09  
 **********************************************************************************************************************************

 SHA1:             8ebb0dd001088a5c915591db1a321413035db0b1
 **********************************************************************************************************************************

 Memory per process:       805 MW
 Total memory per node:   1074 MW
 Total GA space:           268 MW

 GA preallocation disabled
 GA check enabled

 Variable memory set to 805.3 MW

 ZSYMEL=NOSYM


 Geometry recognized as XYZ

 SETTING BASIS          =    CC-PVTZ
 SETTING CHARGE         =        -1.00000000                                  


 Recomputing integrals since basis changed


 Using spherical harmonics

 Library entry F      S cc-pVTZ              selected for orbital group  1
 Library entry F      P cc-pVTZ              selected for orbital group  1
 Library entry F      D cc-pVTZ              selected for orbital group  1
 Library entry F      F cc-pVTZ              selected for orbital group  1
 Library entry C      S cc-pVTZ              selected for orbital group  2
 Library entry C      P cc-pVTZ              selected for orbital group  2
 Library entry C      D cc-pVTZ              selected for orbital group  2
 Library entry C      F cc-pVTZ              selected for orbital group  2
 Library entry H      S cc-pVTZ              selected for orbital group  3
 Library entry H      P cc-pVTZ              selected for orbital group  3
 Library entry H      D cc-pVTZ              selected for orbital group  3


 PROGRAM * SEWARD (Integral evaluation for generally contracted gaussian basis sets)     Author: Roland Lindh, 1990

 Geometry written to block  1 of record 700


 Point group  C1  



 ATOMIC COORDINATES

 NR  ATOM    CHARGE       X              Y              Z

   1  F       9.00    0.000000000    0.000000000   -3.385201239
   2  C       6.00    0.000000000    0.000000000   -0.690916053
   3  H       1.00   -0.967145069    1.675144397   -0.033234009
   4  H       1.00   -0.967145069   -1.675144397   -0.033234009
   5  H       1.00    1.934290137    0.000000000   -0.033234009
   6  F       9.00    0.000000000    0.000000000    4.175819299

 Bond lengths in Bohr (Angstrom)

 1-2  2.694285186  2-3  2.043042831  2-4  2.043042831  2-5  2.043042831
     ( 1.425754320)     ( 1.081131707)     ( 1.081131707)     ( 1.081131707)

 Bond angles

  1-2-3  108.77865447   1-2-4  108.77865447   1-2-5  108.77865447   3-2-4  110.15481872

  3-2-5  110.15481872   4-2-5  110.15481872

 NUCLEAR CHARGE:                   27
 NUMBER OF PRIMITIVE AOS:         192
 NUMBER OF SYMMETRY AOS:          174
 NUMBER OF CONTRACTIONS:          132   (  132A   )
 NUMBER OF INNER CORE ORBITALS:     0   (    0A   )
 NUMBER OF OUTER CORE ORBITALS:     3   (    3A   )
 NUMBER OF VALENCE ORBITALS:       15   (   15A   )


 NUCLEAR REPULSION ENERGY   64.36223019


 Eigenvalues of metric

         1 0.121E-02 0.187E-02 0.187E-02 0.316E-02 0.530E-02 0.104E-01 0.104E-01 0.120E-01


 Contracted 2-electron integrals neglected if value below      1.0D-11
 AO integral compression algorithm  1   Integral accuracy      1.0D-11

     111.149 MB (compressed) written to integral file ( 32.4%)


 NUMBER OF SORTED TWO-ELECTRON INTEGRALS:   38531031.     BUFFER LENGTH:  32768
 NUMBER OF SEGMENTS:   3  SEGMENT LENGTH:   15998004      RECORD LENGTH: 524288

 Memory used in sort:      16.56 MW

 SORT1 READ    42815559. AND WROTE    24956734. INTEGRALS IN     73 RECORDS. CPU TIME:     0.24 SEC, REAL TIME:     0.32 SEC
 SORT2 READ    24956734. AND WROTE    38531031. INTEGRALS IN    424 RECORDS. CPU TIME:     0.29 SEC, REAL TIME:     0.37 SEC

 FILE SIZES:   FILE 1:   141.9 MBYTE,  FILE 4:   306.2 MBYTE,   TOTAL:    448.1 MBYTE

 OPERATOR DM      FOR CENTER  0  COORDINATES:    0.000000    0.000000    0.000000


 **********************************************************************************************************************************
 DATASETS  * FILE   NREC   LENGTH (MB)   RECORD NAMES
              1      19      120.69       500      610      700      900      950      970     1000      129      960     1100   
                                          VAR    BASINP    GEOM    SYMINP    ZMAT    AOBASIS   BASIS     P2S    ABASIS      S 
                                         1400     1410     1200     1210     1080     1600     1650     1300     1700   
                                           T        V       H0       H01     AOSYM     SMH    MOLCAS    ERIS     OPER   

 PROGRAMS   *        TOTAL       INT
 CPU TIMES  *         1.50      1.41
 REAL TIME  *         2.92 SEC
 DISK USED  *       427.80 MB
 **********************************************************************************************************************************


 Program * Restricted Hartree-Fock

 Orbital guess generated from atomic densities. Full valence occupancy:   18

 Initial occupancy:  14

 NELEC=   28   SYM=1   MS2= 0   THRE=1.0D-08   THRD=3.2D-06   THRG=3.2D-06  HFMA2=F  DIIS_START=2   DIIS_MAX=10   DIIS_INCORE=F

 Level shifts:    0.00 (CLOSED)    0.00 (OPEN)    0.30 (GAP_MIN)

 ITER           ETOT              DE          GRAD        DDIFF     DIIS  NEXP   TIME(IT)  TIME(TOT)  DIAG
   1     -238.44097730    -238.44097730     0.00D+00     0.78D-01     0     0       0.17      0.33    start
   2     -238.50692146      -0.06594416     0.93D-02     0.12D-01     1     0       0.16      0.49    diag
   3     -238.54607690      -0.03915544     0.69D-02     0.47D-02     2     0       0.17      0.66    diag
   4     -238.54652527      -0.00044837     0.41D-03     0.57D-03     3     0       0.17      0.83    diag
   5     -238.54655471      -0.00002944     0.10D-03     0.17D-03     4     0       0.17      1.00    diag
   6     -238.54655730      -0.00000259     0.41D-04     0.46D-04     5     0       0.17      1.17    diag
   7     -238.54655757      -0.00000027     0.12D-04     0.18D-04     6     0       0.18      1.35    diag
   8     -238.54655759      -0.00000002     0.26D-05     0.53D-05     7     0       0.17      1.52    fixocc
   9     -238.54655759      -0.00000000     0.89D-06     0.16D-05     8     0       0.17      1.69    diag
  10     -238.54655759      -0.00000000     0.22D-06     0.33D-06     0     0       0.17      1.86    diag/orth

 Final occupancy:  14

 !RHF STATE 1.1 Energy               -238.546557589668
  RHF One-electron energy            -467.917370840598
  RHF Two-electron energy             165.008583056878
  RHF Kinetic energy                  238.608252270551
  RHF Nuclear energy                   64.362230194053
  RHF Virial quotient                  -0.999741439450

 !RHF STATE 1.1 Dipole moment           0.00000000    -0.00000000    -2.63226025
 Dipole moment /Debye                   0.00000000    -0.00000000    -6.69053821

 Orbital energies:

           1.1          2.1          3.1          4.1          5.1          6.1          7.1          8.1          9.1         10.1
    -26.091887   -25.805926   -11.106600    -1.395934    -1.072018    -0.758799    -0.505331    -0.505331    -0.479646    -0.345848

          11.1         12.1         13.1         14.1         15.1         16.1
     -0.345848    -0.179321    -0.179321    -0.178299     0.322249     0.400007


 HOMO     14.1    -0.178299 =      -4.8518eV
 LUMO     15.1     0.322249 =       8.7689eV
 LUMO-HOMO         0.500548 =      13.6206eV

 Orbitals saved in record  2100.2


 **********************************************************************************************************************************
 DATASETS  * FILE   NREC   LENGTH (MB)   RECORD NAMES
              1      19      120.69       500      610      700      900      950      970     1000      129      960     1100   
                                          VAR    BASINP    GEOM    SYMINP    ZMAT    AOBASIS   BASIS     P2S    ABASIS      S 
                                         1400     1410     1200     1210     1080     1600     1650     1300     1700   
                                           T        V       H0       H01     AOSYM     SMH    MOLCAS    ERIS     OPER   

              2       4        0.75       700     1000      520     2100   
                                         GEOM     BASIS   MCVARS     RHF  

 PROGRAMS   *        TOTAL    HF-SCF       INT
 CPU TIMES  *         3.37      1.87      1.41
 REAL TIME  *         5.38 SEC
 DISK USED  *       427.80 MB
 **********************************************************************************************************************************


 PROGRAM * CCSD (Closed-shell coupled cluster)     Authors: C. Hampel, H.-J. Werner, 1991, M. Deegan, P.J. Knowles, 1992


 Convergence thresholds:  THRVAR = 1.00D-08  THRDEN = 1.00D-06

 Number of core orbitals:           3 (   3 )
 Number of closed-shell orbitals:  11 (  11 )
 Number of external orbitals:     118 ( 118 )

 Molecular orbitals read from record     2100.2  Type=RHF/CANONICAL  

 Number of N-1 electron functions:              11
 Number of N-2 electron functions:              66
 Number of singly external CSFs:              1298
 Number of doubly external CSFs:            843051
 Total number of CSFs:                      844350

 Length of J-op  integral file:               0.00 MB
 Length of K-op  integral file:               1.26 MB
 Length of 3-ext integral record:             0.00 MB

 Integral transformation finished. Total CPU:   0.75 sec, npass=  1  Memory used:  16.20 MW

 Reference energy:                   -238.54655759

 MP2 singlet pair energy:              -0.44709049
 MP2 triplet pair energy:              -0.26214123
 MP2 correlation energy:               -0.70923172
 MP2 total energy:                   -239.25578931

 SCS-MP2 correlation energy:           -0.69961869   (PS=  1.200000  PT=  0.333333)
 SCS-MP2 total energy:               -239.24617628

 ITER.      SQ.NORM     CORR.ENERGY   TOTAL ENERGY   ENERGY CHANGE        DEN1      VAR(S)    VAR(P)  DIIS     TIME  TIME/IT
   1      1.15300671    -0.72313856  -239.26969615    -0.01390684     0.00177405  0.29D-02  0.24D-02  1  1     5.40     1.32
   2      1.16262838    -0.72342731  -239.26998490    -0.00028876    -0.01318938  0.21D-04  0.36D-03  2  2     6.81     1.48
   3      1.16617221    -0.72367293  -239.27023051    -0.00024561    -0.00208068  0.78D-04  0.19D-04  3  3     8.04     1.44
   4      1.16730724    -0.72359436  -239.27015195     0.00007857    -0.00060280  0.70D-05  0.36D-05  4  4     9.32     1.44
   5      1.16788105    -0.72357341  -239.27013100     0.00002095    -0.00019516  0.20D-05  0.44D-06  5  5    10.75     1.49
   6      1.16805796    -0.72356975  -239.27012734     0.00000366    -0.00002165  0.58D-06  0.62D-07  6  6    12.10     1.51
   7      1.16815134    -0.72356299  -239.27012058     0.00000675    -0.00000497  0.35D-07  0.20D-07  6  1    13.47     1.53
   8      1.16818286    -0.72356021  -239.27011780     0.00000278    -0.00000868  0.69D-08  0.21D-08  6  2    14.74     1.54
   9      1.16818592    -0.72356048  -239.27011807    -0.00000027     0.00000207  0.76D-09  0.36D-09  6  3    16.18     1.56
  10      1.16818979    -0.72355998  -239.27011757     0.00000049    -0.00000120  0.18D-09  0.54D-10  6  4    17.67     1.57

 Norm of t1 vector:      0.07199158      S-energy:     0.00000043      T1 diagnostic:  0.01085314
                                                                       D1 diagnostic:  0.03392572
                                                                       D2 diagnostic:  0.13352978 (internal)


 RESULTS
 =======

  Reference energy                   -238.546557589668
  CCSD singlet pair energy             -0.487963088927
  CCSD triplet pair energy             -0.235597321997
  CCSD correlation energy              -0.723559981205

 !CCSD total energy                  -239.270117570873

 Timing summary (sec):

 STEP                 CPU(USER)    SYS     CPU(TOT)    WALL
 Transformation          0.77      0.08      0.85      0.97
 CCSD iterations        16.93      0.81     17.74     15.95

 Program statistics:

 Available memory in ccsd:               805305870
 Min. memory needed in ccsd:               2323550
 Max. memory used in ccsd:                 3052168
 Max. memory used in cckext:               2474458 (10 integral passes)



 **********************************************************************************************************************************
 DATASETS  * FILE   NREC   LENGTH (MB)   RECORD NAMES
              1      20      203.68       500      610      700      900      950      970     1000      129      960     1100   
                                          VAR    BASINP    GEOM    SYMINP    ZMAT    AOBASIS   BASIS     P2S    ABASIS      S 
                                         1400     1410     1200     1210     1080     1600     1650     1300     1700     1380   
                                           T        V       H0       H01     AOSYM     SMH    MOLCAS    ERIS     OPER     JKOP   

              2       4        0.75       700     1000      520     2100   
                                         GEOM     BASIS   MCVARS     RHF  

 PROGRAMS   *        TOTAL      CCSD    HF-SCF       INT
 CPU TIMES  *        17.63     14.26      1.87      1.41
 REAL TIME  *        22.51 SEC
 DISK USED  *       427.80 MB
 **********************************************************************************************************************************

 Dump information in style XML to xml output                                                                      

 Orbitals will not be exported.

 **********************************************************************************************************************************

 CCSD/cc-pVTZ energy=   -239.270117570873

            CCSD          HF-SCF
   -239.27011757   -238.54655759
 **********************************************************************************************************************************
 Molpro calculation terminated
