
 Working directory              : /var/folders/2v/xbgp75_9785319ghcgb4zr4r0000gp/T//molpro.rh9u4nlSil/
 Global scratch directory       : /var/folders/2v/xbgp75_9785319ghcgb4zr4r0000gp/T//molpro.rh9u4nlSil/
 Wavefunction directory         : /Users/sacpjk/wfu/
 Main file repository           : /var/folders/2v/xbgp75_9785319ghcgb4zr4r0000gp/T//molpro.rh9u4nlSil/

 id        : peterk

 Nodes                        nprocs
 Cardiff-University-G34YLXT77Y    1
 GA implementation: MPI file
 GA implementation (serial work in mppx): MPI file

 Using customized tuning parameters: mindgm=1; mindgv=20; mindgc=4; mindgr=1; noblas=0; minvec=7
 default implementation of scratch files=df  


 Variables initialized (1032), CPU time= 0.00 sec
 
 symmetry,nosym
 
 
 geometry={
 3
  o         -0.394046989281    0.000456398284    0.000000000000
  h          0.196175230311   -0.755723382026    0.000000000000
  h          0.197871758917    0.755266983742    0.000000000000
 }
 basis=aug-cc-pVTZ
 
 
 
 hf; ccsd(t)
 
 
 
 {put,xml;noorbitals,nobasis}
 Commands initialized (841), CPU time= 0.00 sec, 704 directives.
 Default parameters read. Elapsed time= 1.49 sec

 Checking input...
 Passed
1


                                         ***  PROGRAM SYSTEM MOLPRO  ***
                                       Copyright, TTI GmbH Stuttgart, 2015
                                    Version 2023.1 linked Tue Jun  6 09:54:11 2023


 **********************************************************************************************************************************
 LABEL *                                                                                                                                                                 
  64 bit serial version                                                                  DATE: 09-Jun-23          TIME: 02:24:51  
 **********************************************************************************************************************************

 SHA1:             8ebb0dd001088a5c915591db1a321413035db0b1
 **********************************************************************************************************************************

 Memory per process:       805 MW
 Total memory per node:   1074 MW
 Total GA space:           268 MW

 GA preallocation disabled
 GA check enabled

 Variable memory set to 805.3 MW

 ZSYMEL=NOSYM


 Geometry recognized as XYZ

 SETTING BASIS          =    AUG-CC-PVTZ


 Recomputing integrals since basis changed


 Using spherical harmonics

 Library entry O      S aug-cc-pVTZ          selected for orbital group  1
 Library entry O      P aug-cc-pVTZ          selected for orbital group  1
 Library entry O      D aug-cc-pVTZ          selected for orbital group  1
 Library entry O      F aug-cc-pVTZ          selected for orbital group  1
 Library entry H      S aug-cc-pVTZ          selected for orbital group  2
 Library entry H      P aug-cc-pVTZ          selected for orbital group  2
 Library entry H      D aug-cc-pVTZ          selected for orbital group  2


 PROGRAM * SEWARD (Integral evaluation for generally contracted gaussian basis sets)     Author: Roland Lindh, 1990

 Geometry written to block  1 of record 700


 Point group  C1  



 ATOMIC COORDINATES

 NR  ATOM    CHARGE       X              Y              Z

   1  O       8.00   -0.744640890    0.000862468    0.000000000
   2  H       1.00    0.370717458   -1.428110218    0.000000000
   3  H       1.00    0.373923432    1.427247750    0.000000000

 Bond lengths in Bohr (Angstrom)

 1-2  1.812729208  1-3  1.812666852
     ( 0.959254986)     ( 0.959221989)

 Bond angles

  2-1-3  103.92346879

 NUCLEAR CHARGE:                   10
 NUMBER OF PRIMITIVE AOS:         121
 NUMBER OF SYMMETRY AOS:          108
 NUMBER OF CONTRACTIONS:           92   (   92A   )
 NUMBER OF INNER CORE ORBITALS:     0   (    0A   )
 NUMBER OF OUTER CORE ORBITALS:     1   (    1A   )
 NUMBER OF VALENCE ORBITALS:        6   (    6A   )


 NUCLEAR REPULSION ENERGY    9.17684040

 EXTRA SYMMETRY OF AOS IN SYMMETRY 1:   1 1 1 1 1 1 1 2 1 1   2 1 1 2 1 1 2 1 1 2   1 2 1 1 2 1 2 1 1 2   1 2 1 1 2 1 2 1 2 1
                                        1 2 1 2 1 2 1 1 1 1   1 1 2 1 1 2 1 1 2 1   1 2 1 2 1 1 2 1 2 1   1 1 1 1 1 2 1 1 2 1
                                        1 2 1 1 2 1 2 1 1 2   1 2

 Eigenvalues of metric

         1 0.386E-03 0.396E-03 0.166E-02 0.187E-02 0.322E-02 0.507E-02 0.561E-02 0.598E-02


 Contracted 2-electron integrals neglected if value below      1.0D-11
 AO integral compression algorithm  1   Integral accuracy      1.0D-11

     28.574 MB (compressed) written to integral file ( 30.2%)


 NUMBER OF SORTED TWO-ELECTRON INTEGRALS:    9152781.     BUFFER LENGTH:  32768
 NUMBER OF SEGMENTS:   1  SEGMENT LENGTH:    9152781      RECORD LENGTH: 524288

 Memory used in sort:       9.71 MW

 SORT1 READ    11938930. AND WROTE     4389791. INTEGRALS IN     13 RECORDS. CPU TIME:     0.05 SEC, REAL TIME:     0.06 SEC
 SORT2 READ     4389791. AND WROTE     9152781. INTEGRALS IN    109 RECORDS. CPU TIME:     0.08 SEC, REAL TIME:     0.10 SEC

 FILE SIZES:   FILE 1:    58.9 MBYTE,  FILE 4:    54.6 MBYTE,   TOTAL:    113.5 MBYTE

 OPERATOR DM      FOR CENTER  0  COORDINATES:    0.000000    0.000000    0.000000


 **********************************************************************************************************************************
 DATASETS  * FILE   NREC   LENGTH (MB)   RECORD NAMES
              1      19       49.51       500      610      700      900      950      970     1000      129      960     1100   
                                          VAR    BASINP    GEOM    SYMINP    ZMAT    AOBASIS   BASIS     P2S    ABASIS      S 
                                         1400     1410     1200     1210     1080     1600     1650     1300     1700   
                                           T        V       H0       H01     AOSYM     SMH    MOLCAS    ERIS     OPER   

 PROGRAMS   *        TOTAL       INT
 CPU TIMES  *         0.45      0.36
 REAL TIME  *         5.48 SEC
 DISK USED  *       108.61 MB
 **********************************************************************************************************************************


 Program * Restricted Hartree-Fock

 Orbital guess generated from atomic densities. Full valence occupancy:    7

 Initial occupancy:   5

 NELEC=   10   SYM=1   MS2= 0   THRE=1.0D-08   THRD=3.2D-06   THRG=3.2D-06  HFMA2=F  DIIS_START=2   DIIS_MAX=10   DIIS_INCORE=F

 Level shifts:    0.00 (CLOSED)    0.00 (OPEN)    0.30 (GAP_MIN)

 ITER           ETOT              DE          GRAD        DDIFF     DIIS  NEXP   TIME(IT)  TIME(TOT)  DIAG
   1      -76.02253251     -76.02253251     0.00D+00     0.67D-01     0     0       0.04      0.07    start
   2      -76.04934842      -0.02681591     0.10D-01     0.11D-01     1     0       0.04      0.11    diag
   3      -76.06022754      -0.01087912     0.64D-02     0.39D-02     2     0       0.04      0.15    diag
   4      -76.06040900      -0.00018146     0.60D-03     0.51D-03     3     0       0.04      0.19    diag
   5      -76.06042678      -0.00001779     0.16D-03     0.15D-03     4     0       0.04      0.23    diag
   6      -76.06042779      -0.00000101     0.30D-04     0.37D-04     5     0       0.03      0.26    diag
   7      -76.06042784      -0.00000005     0.58D-05     0.98D-05     6     0       0.04      0.30    diag
   8      -76.06042784      -0.00000000     0.11D-05     0.17D-05     7     0       0.04      0.34    fixocc
   9      -76.06042784      -0.00000000     0.13D-06     0.14D-06     0     0       0.03      0.37    diag

 Final occupancy:   5

 !RHF STATE 1.1 Energy                -76.060427841665
  RHF One-electron energy            -123.009552981575
  RHF Two-electron energy              37.772284743616
  RHF Kinetic energy                   75.951824920053
  RHF Nuclear energy                    9.176840396294
  RHF Virial quotient                  -1.001429892195

 !RHF STATE 1.1 Dipole moment           0.78445917    -0.00090274    -0.00000000
 Dipole moment /Debye                   1.99389632    -0.00229454    -0.00000000

 Orbital energies:

           1.1          2.1          3.1          4.1          5.1          6.1          7.1
    -20.567803    -1.352995    -0.715599    -0.585722    -0.510370     0.029381     0.047713


 HOMO      5.1    -0.510370 =     -13.8879eV
 LUMO      6.1     0.029381 =       0.7995eV
 LUMO-HOMO         0.539751 =      14.6874eV

 Orbitals saved in record  2100.2


 **********************************************************************************************************************************
 DATASETS  * FILE   NREC   LENGTH (MB)   RECORD NAMES
              1      19       49.51       500      610      700      900      950      970     1000      129      960     1100   
                                          VAR    BASINP    GEOM    SYMINP    ZMAT    AOBASIS   BASIS     P2S    ABASIS      S 
                                         1400     1410     1200     1210     1080     1600     1650     1300     1700   
                                           T        V       H0       H01     AOSYM     SMH    MOLCAS    ERIS     OPER   

              2       4        0.55       700     1000      520     2100   
                                         GEOM     BASIS   MCVARS     RHF  

 PROGRAMS   *        TOTAL    HF-SCF       INT
 CPU TIMES  *         0.82      0.38      0.36
 REAL TIME  *         8.38 SEC
 DISK USED  *       108.61 MB
 **********************************************************************************************************************************


 PROGRAM * CCSD (Closed-shell coupled cluster)     Authors: C. Hampel, H.-J. Werner, 1991, M. Deegan, P.J. Knowles, 1992


 Convergence thresholds:  THRVAR = 1.00D-08  THRDEN = 1.00D-06

 CCSD(T)     terms to be evaluated (factor= 1.000)


 Number of core orbitals:           1 (   1 )
 Number of closed-shell orbitals:   4 (   4 )
 Number of external orbitals:      87 (  87 )

 Molecular orbitals read from record     2100.2  Type=RHF/CANONICAL  

 Number of N-1 electron functions:               4
 Number of N-2 electron functions:              10
 Number of singly external CSFs:               348
 Number of doubly external CSFs:             60726
 Total number of CSFs:                       61075

 Length of J-op  integral file:               0.00 MB
 Length of K-op  integral file:               0.64 MB
 Length of 3-ext integral record:             0.00 MB

 Memory could be reduced to 4.57 Mwords without degradation in triples

 Integral transformation finished. Total CPU:   0.08 sec, npass=  1  Memory used:   2.30 MW

 Reference energy:                    -76.06042784

 MP2 singlet pair energy:              -0.17077660
 MP2 triplet pair energy:              -0.09777757
 MP2 correlation energy:               -0.26855416
 MP2 total energy:                    -76.32898200

 SCS-MP2 correlation energy:           -0.26577129   (PS=  1.200000  PT=  0.333333)
 SCS-MP2 total energy:                -76.32619913

 ITER.      SQ.NORM     CORR.ENERGY   TOTAL ENERGY   ENERGY CHANGE        DEN1      VAR(S)    VAR(P)  DIIS     TIME  TIME/IT
   1      1.06300640    -0.27287627   -76.33330411    -0.00432210     0.00122133  0.88D-03  0.96D-03  1  1     1.10     0.15
   2      1.06667891    -0.27317406   -76.33360191    -0.00029780    -0.00478161  0.11D-04  0.12D-03  2  2     1.16     0.11
   3      1.06802187    -0.27324981   -76.33367765    -0.00007574    -0.00087961  0.11D-04  0.52D-05  3  3     1.22     0.12
   4      1.06846299    -0.27324272   -76.33367056     0.00000709    -0.00020503  0.45D-06  0.61D-06  4  4     1.29     0.12
   5      1.06855852    -0.27323976   -76.33366760     0.00000296    -0.00002982  0.14D-06  0.37D-07  5  5     1.35     0.12
   6      1.06859196    -0.27323641   -76.33366425     0.00000335    -0.00000692  0.10D-07  0.22D-08  6  6     1.41     0.11
   7      1.06859781    -0.27323617   -76.33366401     0.00000023    -0.00000067  0.67D-09  0.38D-09  6  1     1.47     0.11
   8      1.06859874    -0.27323615   -76.33366399     0.00000002     0.00000038  0.88D-10  0.32D-10  6  2     1.54     0.12

 Norm of t1 vector:      0.04010553      S-energy:    -0.00000017      T1 diagnostic:  0.01002638
                                                                       D1 diagnostic:  0.02128830
                                                                       D2 diagnostic:  0.12708951 (internal)


 Total CPU time for triples:      0.23 sec


 RESULTS
 =======

  Reference energy                    -76.060427841665
  CCSD singlet pair energy             -0.186398586422
  CCSD triplet pair energy             -0.086837398172
  CCSD correlation energy              -0.273236150889

  Triples (T) contribution             -0.008648522181
  Total correlation energy             -0.281884673070

  CCSD total energy                   -76.333663992554
  CCSD[T] energy                      -76.342634042766
  CCSD-T energy                       -76.342139402951
 !CCSD(T) total energy                -76.342312514735

 Timing summary (sec):

 STEP                 CPU(USER)    SYS     CPU(TOT)    WALL
 Transformation          0.08      0.01      0.09      0.33
 CCSD iterations         1.47      0.06      1.53      1.44
 Triples                 0.23      0.01      0.24      0.26

 Program statistics:

 Available memory in ccsd:               805306299
 Min. memory needed in ccsd:                288418
 Max. memory used in ccsd:                  330600
 Max. memory used in cckext:                241058 ( 8 integral passes)



 **********************************************************************************************************************************
 DATASETS  * FILE   NREC   LENGTH (MB)   RECORD NAMES
              1      20       60.78       500      610      700      900      950      970     1000      129      960     1100   
                                          VAR    BASINP    GEOM    SYMINP    ZMAT    AOBASIS   BASIS     P2S    ABASIS      S 
                                         1400     1410     1200     1210     1080     1600     1650     1300     1700     1380   
                                           T        V       H0       H01     AOSYM     SMH    MOLCAS    ERIS     OPER     JKOP   

              2       4        0.55       700     1000      520     2100   
                                         GEOM     BASIS   MCVARS     RHF  

 PROGRAMS   *        TOTAL   CCSD(T)    HF-SCF       INT
 CPU TIMES  *         1.66      0.83      0.38      0.36
 REAL TIME  *        11.51 SEC
 DISK USED  *       108.61 MB
 **********************************************************************************************************************************

 Dump information in style XML to xml output                                                                      

 Orbitals will not be exported.

 **********************************************************************************************************************************

 CCSD(T)/aug-cc-pVTZ energy=    -76.342312514735

         CCSD(T)          HF-SCF
    -76.34231251    -76.06042784
 **********************************************************************************************************************************
 Molpro calculation terminated
