
 Working directory              : /var/folders/2v/xbgp75_9785319ghcgb4zr4r0000gp/T//molpro.rg71euAa8s/
 Global scratch directory       : /var/folders/2v/xbgp75_9785319ghcgb4zr4r0000gp/T//molpro.rg71euAa8s/
 Wavefunction directory         : /Users/sacpjk/wfu/
 Main file repository           : /var/folders/2v/xbgp75_9785319ghcgb4zr4r0000gp/T//molpro.rg71euAa8s/

 id        : peterk

 Nodes                        nprocs
 Cardiff-University-G34YLXT77Y    1
 GA implementation: MPI file
 GA implementation (serial work in mppx): MPI file

 Using customized tuning parameters: mindgm=1; mindgv=20; mindgc=4; mindgr=1; noblas=0; minvec=7
 default implementation of scratch files=df  


 Variables initialized (1037), CPU time= 0.00 sec
 
 symmetry,nosym
 
 
 geometry={
 12
  c          0.515412733288   -0.473460405067    1.756757393235
  h          1.575035656996   -0.398467830102    1.526071885281
  h          0.288020716047   -1.480514194147    2.098540996396
  h          0.270089531224    0.209395869031    2.566654908928
  c         -0.375217632919   -0.155953832138    0.576958503198
  o         -1.597606497592   -0.183546666900    0.667022309200
  n          0.286297004241    0.155070994674   -0.567930261545
  h          1.293525977450    0.155908910863   -0.563750686813
  c         -0.418406599686    0.481569001856   -1.785663524799
  h         -1.480654596566    0.408419858701   -1.573763163570
  h         -0.190587557573    1.494438050957   -2.115204309627
  h         -0.165908734698   -0.212859757941   -2.585694049672
 }
 basis=aug-cc-pVDZ
 
 
 
 hf; ccsd
 
 
 
 {put,xml;noorbitals,nobasis}
 Commands initialized (841), CPU time= 0.01 sec, 716 directives.
 Default parameters read. Elapsed time= 5.20 sec

 Checking input...
 Passed
1


                                         ***  PROGRAM SYSTEM MOLPRO  ***
                                       Copyright, TTI GmbH Stuttgart, 2015
                                    Version 2023.1 linked Fri Jul 14 07:57:55 2023


 **********************************************************************************************************************************
 LABEL *                                                                                                                                                                 
  64 bit serial version                                                                  DATE: 15-Jul-23          TIME: 16:42:15  
 **********************************************************************************************************************************

 SHA1:             8f90ea6339eadc8ec4622dc21e4296b0c92029f5
 **********************************************************************************************************************************

 Memory per process:      1573 MW
 Total memory per node:   2097 MW
 Total GA space:           524 MW

 GA preallocation disabled
 GA check enabled

 Variable memory set to 1572.9 MW

 ZSYMEL=NOSYM


 Geometry recognized as XYZ

 SETTING BASIS          =    AUG-CC-PVDZ


 Recomputing integrals since basis changed


 Using spherical harmonics

 Library entry C      S aug-cc-pVDZ          selected for orbital group  1
 Library entry C      P aug-cc-pVDZ          selected for orbital group  1
 Library entry C      D aug-cc-pVDZ          selected for orbital group  1
 Library entry H      S aug-cc-pVDZ          selected for orbital group  2
 Library entry H      P aug-cc-pVDZ          selected for orbital group  2
 Library entry O      S aug-cc-pVDZ          selected for orbital group  4
 Library entry O      P aug-cc-pVDZ          selected for orbital group  4
 Library entry O      D aug-cc-pVDZ          selected for orbital group  4
 Library entry N      S aug-cc-pVDZ          selected for orbital group  5
 Library entry N      P aug-cc-pVDZ          selected for orbital group  5
 Library entry N      D aug-cc-pVDZ          selected for orbital group  5


 PROGRAM * SEWARD (Integral evaluation for generally contracted gaussian basis sets)     Author: Roland Lindh, 1990

 Geometry written to block  1 of record 700


 Point group  C1  



 ATOMIC COORDINATES

 NR  ATOM    CHARGE       X              Y              Z

   1  C       6.00    0.973988907   -0.894710496    3.319790341
   2  H       1.00    2.976386028   -0.752995068    2.883857910
   3  H       1.00    0.544280272   -2.797766351    3.965667744
   4  H       1.00    0.510395243    0.395700844    4.850274834
   5  C       6.00   -0.709058563   -0.294710031    1.090293556
   6  O       8.00   -3.019038735   -0.346852932    1.260489483
   7  N       7.00    0.541022928    0.293041710   -1.073232652
   8  H       1.00    2.444409832    0.294625142   -1.065334401
   9  C       6.00   -0.790673882    0.910033524   -3.374415013
  10  H       1.00   -2.798031673    0.771801677   -2.973981364
  11  H       1.00   -0.360158287    2.824078627   -3.997156843
  12  H       1.00   -0.313522070   -0.402246645   -4.886253596

 Bond lengths in Bohr (Angstrom)

 1-2  2.054194387  1-3  2.055098225  1-4  2.054863328  1-5  2.857149849  5-6  2.316828421
     ( 1.087032856)     ( 1.087511147)     ( 1.087386845)     ( 1.511938588)     ( 1.226012802)

  5- 7  2.566905043   7- 8  1.903403950   7- 9  2.729383731   9-10  2.051570240   9-11  2.058329352
       ( 1.358347651)       ( 1.007237993)       ( 1.444327670)       ( 1.085644218)       ( 1.089220986)

  9-12  2.058010932
       ( 1.089052485)

 Bond angles

  1-5-6  121.68673501   1-5-7  114.76561876   2-1-3  109.53613120   2-1-4  109.55165806

  2-1-5  113.21157163   3-1-4  107.47361178   3-1-5  108.45340172   4-1-5  108.44650049

  5- 7- 8  118.92656063   5- 7- 9  121.65278092   6- 5- 7  123.54762817   7- 9-10  107.31367468

  7- 9-11  111.29936160   7- 9-12  111.22895924   8- 7- 9  119.42062152  10- 9-11  109.04787910

 10- 9-12  109.10347795  11- 9-12  108.79598226

 NUCLEAR CHARGE:                   40
 NUMBER OF PRIMITIVE AOS:         262
 NUMBER OF SYMMETRY AOS:          252
 NUMBER OF CONTRACTIONS:          178   (  178A   )
 NUMBER OF INNER CORE ORBITALS:     0   (    0A   )
 NUMBER OF OUTER CORE ORBITALS:     5   (    5A   )
 NUMBER OF VALENCE ORBITALS:       27   (   27A   )


 NUCLEAR REPULSION ENERGY  180.57089710

