
 Working directory              : /var/folders/2v/xbgp75_9785319ghcgb4zr4r0000gp/T//molpro.IjUGlnKZJz/
 Global scratch directory       : /var/folders/2v/xbgp75_9785319ghcgb4zr4r0000gp/T//molpro.IjUGlnKZJz/
 Wavefunction directory         : /Users/sacpjk/wfu/
 Main file repository           : /var/folders/2v/xbgp75_9785319ghcgb4zr4r0000gp/T//molpro.IjUGlnKZJz/

 id        : peterk

 Nodes                        nprocs
 Cardiff-University-G34YLXT77Y    1
 GA implementation: MPI file
 GA implementation (serial work in mppx): MPI file

 Using customized tuning parameters: mindgm=1; mindgv=20; mindgc=4; mindgr=1; noblas=0; minvec=7
 default implementation of scratch files=df  


 Variables initialized (1032), CPU time= 0.00 sec
 
 symmetry,nosym
 
 
 geometry={
           10
     H          1.88187897     -0.99345935     -0.43554356
     C          1.06487468     -0.51861718      0.11906264
     C         -1.06559108     -0.51780918     -0.11929244
     C          0.68378954      0.84034730     -0.08393443
     C         -0.68289794      0.84086830      0.08354363
     H         -1.88269037     -0.99191235      0.43581176
     H         -1.33865918      1.64958959      0.40321074
     H          0.87072861     -0.97895635      1.08054498
     H         -0.87195801     -0.97868835     -1.08060578
     H          1.34052478      1.64863759     -0.40279754
 }
 basis=cc-pVTZ
 
 
 
 hf; hf; papt; mp3
 
 
 
 {put,xml;noorbitals,nobasis}
 Commands initialized (841), CPU time= 0.01 sec, 704 directives.
 Default parameters read. Elapsed time= 0.83 sec

 Checking input...
 Passed
1


                                         ***  PROGRAM SYSTEM MOLPRO  ***
                                       Copyright, TTI GmbH Stuttgart, 2015
                                    Version 2023.1 linked Tue Jun  6 09:54:11 2023


 **********************************************************************************************************************************
 LABEL *                                                                                                                                                                 
  64 bit serial version                                                                  DATE: 11-Jun-23          TIME: 13:14:06  
 **********************************************************************************************************************************

 SHA1:             8ebb0dd001088a5c915591db1a321413035db0b1
 **********************************************************************************************************************************

 Memory per process:       393 MW
 Total memory per node:    524 MW
 Total GA space:           131 MW

 GA preallocation disabled
 GA check enabled

 Variable memory set to 393.2 MW

 ZSYMEL=NOSYM


 Geometry recognized as XYZ

 SETTING BASIS          =    CC-PVTZ


 Recomputing integrals since basis changed


 Using spherical harmonics

 Library entry H      S cc-pVTZ              selected for orbital group  1
 Library entry H      P cc-pVTZ              selected for orbital group  1
 Library entry H      D cc-pVTZ              selected for orbital group  1
 Library entry C      S cc-pVTZ              selected for orbital group  2
 Library entry C      P cc-pVTZ              selected for orbital group  2
 Library entry C      D cc-pVTZ              selected for orbital group  2
 Library entry C      F cc-pVTZ              selected for orbital group  2


 PROGRAM * SEWARD (Integral evaluation for generally contracted gaussian basis sets)     Author: Roland Lindh, 1990

 Geometry written to block  1 of record 700


 Point group  C1  



 ATOMIC COORDINATES

 NR  ATOM    CHARGE       X              Y              Z

   1  H       1.00    3.556235853   -1.877366087   -0.823058044
   2  C       6.00    2.012321502   -0.980044434    0.224995781
   3  C       6.00   -2.013675302   -0.978517535   -0.225430040
   4  C       6.00    1.292174957    1.588026247   -0.158613085
   5  C       6.00   -1.290490078    1.589010794    0.157874580
   6  H       1.00   -3.557769177   -1.874442681    0.823564868
   7  H       1.00   -2.529699224    3.117272543    0.761957869
   8  H       1.00    1.645438602   -1.849959389    2.041934078
   9  H       1.00   -1.647761831   -1.849452943   -2.042048973
  10  H       1.00    2.533224697    3.115473524   -0.761177034

 Bond lengths in Bohr (Angstrom)

 1-2  2.070573470  2-4  2.694578599  2-8  2.047588793  3-5  2.694832281  3-6  2.070579165
     ( 1.095700294)     ( 1.425909588)     ( 1.083537327)     ( 1.426043830)     ( 1.095703308)

  3- 9  2.047565750   4- 5  2.601984646   4-10  2.058247545   5- 7  2.058188501
       ( 1.083525133)       ( 1.376910978)       ( 1.089177695)       ( 1.089146450)

 Bond angles

  1- 2- 4  122.70014707   1- 2- 8  113.49295204   2- 4- 5  104.37798640   2- 4-10  126.00104993

  3-5-4  104.40096593   3-5-7  125.98838878   4-2-8  118.90391924   4-5-7  129.31603499

  5- 3- 6  122.70521280   5- 3- 9  118.91386203   5- 4-10  129.33217381   6- 3- 9  113.49676599

 NUCLEAR CHARGE:                   30
 NUMBER OF PRIMITIVE AOS:         290
 NUMBER OF SYMMETRY AOS:          264
 NUMBER OF CONTRACTIONS:          204   (  204A   )
 NUMBER OF INNER CORE ORBITALS:     0   (    0A   )
 NUMBER OF OUTER CORE ORBITALS:     4   (    4A   )
 NUMBER OF VALENCE ORBITALS:       22   (   22A   )


 NUCLEAR REPULSION ENERGY  109.59304390


 Eigenvalues of metric

         1 0.230E-03 0.880E-03 0.120E-02 0.124E-02 0.126E-02 0.133E-02 0.143E-02 0.152E-02


 Contracted 2-electron integrals neglected if value below      1.0D-11
 AO integral compression algorithm  1   Integral accuracy      1.0D-11

     896.532 MB (compressed) written to integral file ( 47.0%)


 NUMBER OF SORTED TWO-ELECTRON INTEGRALS:  218624505.     BUFFER LENGTH:  32768
 NUMBER OF SEGMENTS:  14  SEGMENT LENGTH:   15999503      RECORD LENGTH: 524288

 Memory used in sort:      16.56 MW

 SORT1 READ   238370566. AND WROTE   208055758. INTEGRALS IN    601 RECORDS. CPU TIME:     1.69 SEC, REAL TIME:     2.44 SEC
 SORT2 READ   208055758. AND WROTE   218624505. INTEGRALS IN   3420 RECORDS. CPU TIME:     1.29 SEC, REAL TIME:     1.75 SEC

 FILE SIZES:   FILE 1:   928.2 MBYTE,  FILE 4:  2520.8 MBYTE,   TOTAL:   3449.1 MBYTE

 OPERATOR DM      FOR CENTER  0  COORDINATES:    0.000000    0.000000    0.000000


 **********************************************************************************************************************************
 DATASETS  * FILE   NREC   LENGTH (MB)   RECORD NAMES
              1      19      815.91       500      610      700      900      950      970     1000      129      960     1100   
                                          VAR    BASINP    GEOM    SYMINP    ZMAT    AOBASIS   BASIS     P2S    ABASIS      S 
                                         1400     1410     1200     1210     1080     1600     1650     1300     1700   
                                           T        V       H0       H01     AOSYM     SMH    MOLCAS    ERIS     OPER   

 PROGRAMS   *        TOTAL       INT
 CPU TIMES  *         8.41      8.30
 REAL TIME  *        12.78 SEC
 DISK USED  *         3.21 GB
 **********************************************************************************************************************************


 Program * Restricted Hartree-Fock

 Orbital guess generated from atomic densities. Full valence occupancy:   26

 Initial occupancy:  15

 NELEC=   30   SYM=1   MS2= 0   THRE=1.0D-08   THRD=3.2D-06   THRG=3.2D-06  HFMA2=F  DIIS_START=2   DIIS_MAX=10   DIIS_INCORE=F

 Level shifts:    0.00 (CLOSED)    0.00 (OPEN)    0.30 (GAP_MIN)

 ITER           ETOT              DE          GRAD        DDIFF     DIIS  NEXP   TIME(IT)  TIME(TOT)  DIAG
   1     -154.83623032    -154.83623032     0.00D+00     0.51D-01     0     0       0.94      1.81    start
   2     -154.87499558      -0.03876526     0.32D-02     0.47D-02     1     0       0.96      2.77    diag
   3     -154.88031676      -0.00532119     0.13D-02     0.14D-02     2     0       0.95      3.72    diag
   4     -154.88118504      -0.00086828     0.43D-03     0.64D-03     3     0       0.98      4.70    diag
   5     -154.88121151      -0.00002647     0.70D-04     0.12D-03     4     0       0.89      5.59    diag
   6     -154.88121733      -0.00000582     0.28D-04     0.60D-04     5     0       0.96      6.55    diag
   7     -154.88121858      -0.00000125     0.10D-04     0.24D-04     6     0       1.08      7.63    diag
   8     -154.88121881      -0.00000023     0.36D-05     0.10D-04     7     0       1.01      8.64    fixocc
   9     -154.88121884      -0.00000002     0.11D-05     0.34D-05     8     0       0.94      9.58    diag
  10     -154.88121884      -0.00000000     0.32D-06     0.85D-06     9     0       0.98     10.56    diag/orth
  11     -154.88121884      -0.00000000     0.11D-06     0.22D-06     0     0       0.99     11.55    diag

 Final occupancy:  15

 !RHF STATE 1.1 Energy               -154.881218839807
  RHF One-electron energy            -424.672359315316
  RHF Two-electron energy             160.198096579186
  RHF Kinetic energy                  154.588827202786
  RHF Nuclear energy                  109.593043896324
  RHF Virial quotient                  -1.001891415067

 !RHF STATE 1.1 Dipole moment          -0.00005170    -0.09333514     0.00039029
 Dipole moment /Debye                  -0.00013140    -0.23723425     0.00099202

 Orbital energies:

           1.1          2.1          3.1          4.1          5.1          6.1          7.1          8.1          9.1         10.1
    -11.248335   -11.248258   -11.228544   -11.227219    -1.116744    -0.931813    -0.856168    -0.724617    -0.663834    -0.599435

          11.1         12.1         13.1         14.1         15.1         16.1         17.1
     -0.578862    -0.525414    -0.520463    -0.342096    -0.326285     0.118732     0.143094


 HOMO     15.1    -0.326285 =      -8.8787eV
 LUMO     16.1     0.118732 =       3.2309eV
 LUMO-HOMO         0.445017 =      12.1095eV

 Orbitals saved in record  2100.2


 **********************************************************************************************************************************
 DATASETS  * FILE   NREC   LENGTH (MB)   RECORD NAMES
              1      19      815.91       500      610      700      900      950      970     1000      129      960     1100   
                                          VAR    BASINP    GEOM    SYMINP    ZMAT    AOBASIS   BASIS     P2S    ABASIS      S 
                                         1400     1410     1200     1210     1080     1600     1650     1300     1700   
                                           T        V       H0       H01     AOSYM     SMH    MOLCAS    ERIS     OPER   

              2       4        1.19       700     1000      520     2100   
                                         GEOM     BASIS   MCVARS     RHF  

 PROGRAMS   *        TOTAL    HF-SCF       INT
 CPU TIMES  *        19.96     11.56      8.30
 REAL TIME  *        26.73 SEC
 DISK USED  *         3.21 GB
 **********************************************************************************************************************************


 Program * Restricted Hartree-Fock

 Molecular orbitals read from record     2100.2  Type=RHF/CANONICAL  

 Initial occupancy:  15

 NELEC=   30   SYM=1   MS2= 0   THRE=1.0D-08   THRD=3.2D-06   THRG=3.2D-06  HFMA2=F  DIIS_START=2   DIIS_MAX=10   DIIS_INCORE=F

 Level shifts:    0.00 (CLOSED)    0.00 (OPEN)    0.30 (GAP_MIN)

 ITER           ETOT              DE          GRAD        DDIFF     DIIS  NEXP   TIME(IT)  TIME(TOT)  DIAG
   1     -154.88121884    -154.88121884     0.00D+00     0.52D-01     0     0       0.98      0.98    start
   2     -154.88121884      -0.00000000     0.68D-07     0.11D-06     1     0       1.00      1.98    diag

 Final occupancy:  15

 !RHF STATE 1.1 Energy               -154.881218839862
  RHF One-electron energy            -424.672355816143
  RHF Two-electron energy             160.198093079958
  RHF Kinetic energy                  154.588825705458
  RHF Nuclear energy                  109.593043896324
  RHF Virial quotient                  -1.001891424772

 !RHF STATE 1.1 Dipole moment          -0.00003994    -0.09333849     0.00038990
 Dipole moment /Debye                  -0.00010151    -0.23724277     0.00099102

 Orbital energies:

           1.1          2.1          3.1          4.1          5.1          6.1          7.1          8.1          9.1         10.1
    -11.248335   -11.248256   -11.228544   -11.227219    -1.116744    -0.931813    -0.856168    -0.724617    -0.663834    -0.599435

          11.1         12.1         13.1         14.1         15.1         16.1         17.1
     -0.578862    -0.525414    -0.520463    -0.342096    -0.326285     0.118732     0.143094


 HOMO     15.1    -0.326285 =      -8.8787eV
 LUMO     16.1     0.118732 =       3.2309eV
 LUMO-HOMO         0.445017 =      12.1095eV

 Orbitals saved in record  2101.2


 **********************************************************************************************************************************
 DATASETS  * FILE   NREC   LENGTH (MB)   RECORD NAMES
              1      19      815.91       500      610      700      900      950      970     1000      129      960     1100   
                                          VAR    BASINP    GEOM    SYMINP    ZMAT    AOBASIS   BASIS     P2S    ABASIS      S 
                                         1400     1410     1200     1210     1080     1600     1650     1300     1700   
                                           T        V       H0       H01     AOSYM     SMH    MOLCAS    ERIS     OPER   

              2       5        2.41       700     1000      520     2100     2101   
                                         GEOM     BASIS   MCVARS     RHF      RHF  

 PROGRAMS   *        TOTAL    HF-SCF    HF-SCF       INT
 CPU TIMES  *        21.95      1.99     11.56      8.30
 REAL TIME  *        29.28 SEC
 DISK USED  *         3.21 GB
 **********************************************************************************************************************************


 PROGRAM * PAPT (Closed-shell)     Authors: C. Hampel, H.-J. Werner, 1991, P.J. Knowles, 2021


 Convergence thresholds:  THRVAR = 1.00D-08  THRDEN = 1.00D-06

 Number of core orbitals:           4 (   4 )
 Number of closed-shell orbitals:  11 (  11 )
 Number of external orbitals:     189 ( 189 )

 Molecular orbitals read from record     2101.2  Type=RHF/CANONICAL  

 Number of N-1 electron functions:              11
 Number of N-2 electron functions:              66
 Number of singly external CSFs:              2079
 Number of doubly external CSFs:           2162160
 Total number of CSFs:                     2164240

 Length of J-op  integral file:               0.00 MB
 Length of K-op  integral file:               2.92 MB

 Integral transformation finished. Total CPU:   2.11 sec, npass=  1  Memory used:   5.49 MW

 Reference energy:                   -154.88121884

                        CORR.ENERGY   TOTAL ENERGY   ENERGY CHANGE
 MP2:                   -0.67705898  -155.55827782    -0.67705898

 SCS-MP2 correlation energy:           -0.67392906   (PS=  1.200000  PT=  0.333333)
 SCS-MP2 total energy:               -155.55514790
 Iteration:   1     0.3065D+00
 Iteration:   2     0.4520D+00
 Iteration:   3     0.8784D-01
 Iteration:   4     0.1120D+00
 Iteration:   5     0.3939D-01
 Iteration:   6     0.1587D-01
 Iteration:   7     0.1172D+00
 Iteration:   8     0.4089D-02
 Iteration:   9     0.3654D-02
 Iteration:  10     0.1889D-02
 Iteration:  11     0.6493D-03
 Iteration:  12     0.6841D-02
 Iteration:  13     0.2300D-03
 Iteration:  14     0.2212D-03
 Iteration:  15     0.1843D-03
 Iteration:  16     0.4851D-04
 PAPT operator written to  7000.1
 PAPT orbitals and eigenvalues written to  7000.2

 MP3(D):                -0.70244873  -155.58366757    -0.02538975



 RESULTS
 =======

  Reference energy                   -154.881218839861
  MP3 singlet pair energy              -0.479465480047
  MP3 triplet pair energy              -0.222983248059
  MP3 correlation energy               -0.702448728106

 !MP3 total energy                   -155.583667567967

 Timing summary (sec):

 STEP                 CPU(USER)    SYS     CPU(TOT)    WALL
 Transformation          2.22      0.26      2.48      3.00
 CCSD iterations        31.58      0.40     31.98     15.00

 Program statistics:

 Available memory in ccsd:               393215501
 Min. memory needed in ccsd:               5800879
 Max. memory used in ccsd:                 7702768
 Max. memory used in cckext:               5864010 ( 1 integral passes)



 **********************************************************************************************************************************
 DATASETS  * FILE   NREC   LENGTH (MB)   RECORD NAMES
              1      21      848.19       500      610      700      900      950      970     1000      129      960     1100   
                                          VAR    BASINP    GEOM    SYMINP    ZMAT    AOBASIS   BASIS     P2S    ABASIS      S 
                                         1400     1410     1200     1210     1080     1600     1650     1300     1700     1380   
                                           T        V       H0       H01     AOSYM     SMH    MOLCAS    ERIS     OPER     JKOP   
                                         7000   
                                        PAPT AO    

              2       6        3.46       700     1000      520     2100     2101     7000   
                                         GEOM     BASIS   MCVARS     RHF      RHF     PAPT   

 PROGRAMS   *        TOTAL      PAPT    HF-SCF    HF-SCF       INT
 CPU TIMES  *        33.69     11.74      1.99     11.56      8.30
 REAL TIME  *        47.51 SEC
 DISK USED  *         3.21 GB
 **********************************************************************************************************************************


 PROGRAM * MP3 (Closed-shell)     Authors: C. Hampel, H.-J. Werner, 1991, M. Deegan, P.J. Knowles, 1992


 Convergence thresholds:  THRVAR = 1.00D-08  THRDEN = 1.00D-06

 Number of core orbitals:           4 (   4 )
 Number of closed-shell orbitals:  11 (  11 )
 Number of external orbitals:     189 ( 189 )

 Molecular orbitals read from record     7000.2  Type=PAPT/CANONICAL (state 1.1)

 Number of N-1 electron functions:              11
 Number of N-2 electron functions:              66
 Number of singly external CSFs:              2079
 Number of doubly external CSFs:           2162160
 Total number of CSFs:                     2164240

 Length of J-op  integral file:               0.00 MB
 Length of K-op  integral file:               2.92 MB

 Integral transformation finished. Total CPU:   1.85 sec, npass=  1  Memory used:   5.49 MW
 Orbital energies read from record       7000.2  Type=PAPT/CANONICAL (state 1.1)

 Reference energy:                   -154.88121884

                        CORR.ENERGY   TOTAL ENERGY   ENERGY CHANGE
 MP2:                   -0.70974013  -155.59095897    -0.70974013

 SCS-MP2 correlation energy:           -0.71048442   (PS=  1.200000  PT=  0.333333)
 SCS-MP2 total energy:               -155.59170326

 MP3(D):                -0.70996488  -155.59118372    -0.00022475



 RESULTS
 =======

  Reference energy                   -154.881218839861
  MP3 singlet pair energy              -0.487554283197
  MP3 triplet pair energy              -0.222410597269
  MP3 correlation energy               -0.709964880467

 !MP3 total energy                   -155.591183720328

 Timing summary (sec):

 STEP                 CPU(USER)    SYS     CPU(TOT)    WALL
 Transformation          2.81      0.31      3.12      3.50
 CCSD iterations        37.86      0.19     38.05      4.79

 Program statistics:

 Available memory in ccsd:               393215501
 Min. memory needed in ccsd:               5800879
 Max. memory used in ccsd:                 7702768
 Max. memory used in cckext:               5864010 ( 1 integral passes)



 **********************************************************************************************************************************
 DATASETS  * FILE   NREC   LENGTH (MB)   RECORD NAMES
              1      21      848.19       500      610      700      900      950      970     1000      129      960     1100   
                                          VAR    BASINP    GEOM    SYMINP    ZMAT    AOBASIS   BASIS     P2S    ABASIS      S 
                                         1400     1410     1200     1210     1080     1600     1650     1300     1700     1380   
                                           T        V       H0       H01     AOSYM     SMH    MOLCAS    ERIS     OPER     JKOP   
                                         7000   
                                        PAPT AO    

              2       6        3.46       700     1000      520     2100     2101     7000   
                                         GEOM     BASIS   MCVARS     RHF      RHF     PAPT   

 PROGRAMS   *        TOTAL       MP3      PAPT    HF-SCF    HF-SCF       INT
 CPU TIMES  *        40.56      6.87     11.74      1.99     11.56      8.30
 REAL TIME  *        56.13 SEC
 DISK USED  *         3.21 GB
 **********************************************************************************************************************************

 Dump information in style XML to xml output                                                                      

 Orbitals will not be exported.

 **********************************************************************************************************************************

 MP3/cc-pVTZ energy=   -155.591183720328

             MP3            PAPT          HF-SCF          HF-SCF
   -155.59118372   -155.58366757   -154.88121884   -154.88121884
 **********************************************************************************************************************************
 Molpro calculation terminated
