
 Working directory              : /var/folders/2v/xbgp75_9785319ghcgb4zr4r0000gp/T//molpro.20RBvKm8mp/
 Global scratch directory       : /var/folders/2v/xbgp75_9785319ghcgb4zr4r0000gp/T//molpro.20RBvKm8mp/
 Wavefunction directory         : /Users/sacpjk/wfu/
 Main file repository           : /var/folders/2v/xbgp75_9785319ghcgb4zr4r0000gp/T//molpro.20RBvKm8mp/

 id        : peterk

 Nodes                        nprocs
 Cardiff-University-G34YLXT77Y    1
 GA implementation: MPI file
 GA implementation (serial work in mppx): MPI file

 Using customized tuning parameters: mindgm=1; mindgv=20; mindgc=4; mindgr=1; noblas=0; minvec=7
 default implementation of scratch files=df  


 Variables initialized (1032), CPU time= 0.01 sec
 
 symmetry,nosym
 
 
 geometry={
            8
     N         -0.77907197      0.10994832      0.00000000
     N         -0.03149962      0.01698457      1.22272462
     N         -0.03149962      0.01698457     -1.22272462
     H          0.73807619     -0.65953384     -1.13084901
     H          0.38903766      0.93051636     -1.38896889
     H          0.73807619     -0.65953384      1.13084901
     H          0.38903766      0.93051636      1.38896889
     H         -1.41215648     -0.68588250      0.00000000
 }
 basis=cc-pVTZ
 
 
 
 hf; hf; papt; mp2
 
 
 
 {put,xml;noorbitals,nobasis}
 Commands initialized (841), CPU time= 0.00 sec, 704 directives.
 Default parameters read. Elapsed time= 0.33 sec

 Checking input...
 Passed
1


                                         ***  PROGRAM SYSTEM MOLPRO  ***
                                       Copyright, TTI GmbH Stuttgart, 2015
                                    Version 2023.1 linked Tue Jun  6 09:54:11 2023


 **********************************************************************************************************************************
 LABEL *                                                                                                                                                                 
  64 bit serial version                                                                  DATE: 13-Jun-23          TIME: 06:14:33  
 **********************************************************************************************************************************

 SHA1:             8ebb0dd001088a5c915591db1a321413035db0b1
 **********************************************************************************************************************************

 Memory per process:       393 MW
 Total memory per node:    524 MW
 Total GA space:           131 MW

 GA preallocation disabled
 GA check enabled

 Variable memory set to 393.2 MW

 ZSYMEL=NOSYM


 Geometry recognized as XYZ

 SETTING BASIS          =    CC-PVTZ


 Recomputing integrals since basis changed


 Using spherical harmonics

 Library entry N      S cc-pVTZ              selected for orbital group  1
 Library entry N      P cc-pVTZ              selected for orbital group  1
 Library entry N      D cc-pVTZ              selected for orbital group  1
 Library entry N      F cc-pVTZ              selected for orbital group  1
 Library entry H      S cc-pVTZ              selected for orbital group  2
 Library entry H      P cc-pVTZ              selected for orbital group  2
 Library entry H      D cc-pVTZ              selected for orbital group  2


 PROGRAM * SEWARD (Integral evaluation for generally contracted gaussian basis sets)     Author: Roland Lindh, 1990

 Geometry written to block  1 of record 700


 Point group  C1  



 ATOMIC COORDINATES

 NR  ATOM    CHARGE       X              Y              Z

   1  N       7.00   -1.472232655    0.207772213    0.000000000
   2  N       7.00   -0.059525655    0.032096186    2.310614658
   3  N       7.00   -0.059525655    0.032096186   -2.310614658
   4  H       1.00    1.394761858   -1.246338328   -2.136994917
   5  H       1.00    0.735174630    1.758421075   -2.624770798
   6  H       1.00    1.394761858   -1.246338328    2.136994917
   7  H       1.00    0.735174630    1.758421075    2.624770798
   8  H       1.00   -2.668588992   -1.296130079    0.000000000

 Bond lengths in Bohr (Angstrom)

 1-2  2.713953432  1-3  2.713953432  1-8  1.921715533  2-6  1.944091250  2-7  1.926250307
     ( 1.436162308)     ( 1.436162308)     ( 1.016928066)     ( 1.028768786)     ( 1.019327765)

 3-4  1.944091250  3-5  1.926250307
     ( 1.028768786)     ( 1.019327765)

 Bond angles

  1-2-6  110.84993942   1-2-7  107.19322767   1-3-4  110.84993942   1-3-5  107.19322767

  2-1-3  116.72489227   2-1-8  105.86666820   3-1-8  105.86666820   4-3-5  107.17509527

  6-2-7  107.17509527

 NUCLEAR CHARGE:                   26
 NUMBER OF PRIMITIVE AOS:         226
 NUMBER OF SYMMETRY AOS:          206
 NUMBER OF CONTRACTIONS:          160   (  160A   )
 NUMBER OF INNER CORE ORBITALS:     0   (    0A   )
 NUMBER OF OUTER CORE ORBITALS:     3   (    3A   )
 NUMBER OF VALENCE ORBITALS:       17   (   17A   )


 NUCLEAR REPULSION ENERGY   83.69244272


 Eigenvalues of metric

         1 0.114E-02 0.114E-02 0.191E-02 0.255E-02 0.272E-02 0.342E-02 0.356E-02 0.522E-02


 Contracted 2-electron integrals neglected if value below      1.0D-11
 AO integral compression algorithm  1   Integral accuracy      1.0D-11

     353.894 MB (compressed) written to integral file ( 47.7%)


 NUMBER OF SORTED TWO-ELECTRON INTEGRALS:   82953640.     BUFFER LENGTH:  32768
 NUMBER OF SEGMENTS:   6  SEGMENT LENGTH:   15999503      RECORD LENGTH: 524288

 Memory used in sort:      16.56 MW

 SORT1 READ    92777261. AND WROTE    79990162. INTEGRALS IN    232 RECORDS. CPU TIME:     0.57 SEC, REAL TIME:     0.75 SEC
 SORT2 READ    79990162. AND WROTE    82953640. INTEGRALS IN   1350 RECORDS. CPU TIME:     0.52 SEC, REAL TIME:     0.64 SEC

 FILE SIZES:   FILE 1:   385.0 MBYTE,  FILE 4:   973.1 MBYTE,   TOTAL:   1358.1 MBYTE

 OPERATOR DM      FOR CENTER  0  COORDINATES:    0.000000    0.000000    0.000000


 **********************************************************************************************************************************
 DATASETS  * FILE   NREC   LENGTH (MB)   RECORD NAMES
              1      19      335.59       500      610      700      900      950      970     1000      129      960     1100   
                                          VAR    BASINP    GEOM    SYMINP    ZMAT    AOBASIS   BASIS     P2S    ABASIS      S 
                                         1400     1410     1200     1210     1080     1600     1650     1300     1700   
                                           T        V       H0       H01     AOSYM     SMH    MOLCAS    ERIS     OPER   

 PROGRAMS   *        TOTAL       INT
 CPU TIMES  *         3.00      2.92
 REAL TIME  *         6.03 SEC
 DISK USED  *         1.27 GB
 **********************************************************************************************************************************


 Program * Restricted Hartree-Fock

 Orbital guess generated from atomic densities. Full valence occupancy:   20

 Initial occupancy:  13

 NELEC=   26   SYM=1   MS2= 0   THRE=1.0D-08   THRD=3.2D-06   THRG=3.2D-06  HFMA2=F  DIIS_START=2   DIIS_MAX=10   DIIS_INCORE=F

 Level shifts:    0.00 (CLOSED)    0.00 (OPEN)    0.30 (GAP_MIN)

 ITER           ETOT              DE          GRAD        DDIFF     DIIS  NEXP   TIME(IT)  TIME(TOT)  DIAG
   1     -166.20010230    -166.20010230     0.00D+00     0.59D-01     0     0       0.35      0.67    start
   2     -166.23743408      -0.03733178     0.45D-02     0.57D-02     1     0       0.36      1.03    diag
   3     -166.24067089      -0.00323681     0.14D-02     0.14D-02     2     0       0.35      1.38    diag
   4     -166.24115012      -0.00047923     0.47D-03     0.52D-03     3     0       0.36      1.74    diag
   5     -166.24119574      -0.00004561     0.14D-03     0.15D-03     4     0       0.35      2.09    diag
   6     -166.24119921      -0.00000347     0.28D-04     0.45D-04     5     0       0.36      2.45    diag
   7     -166.24119957      -0.00000036     0.99D-05     0.14D-04     6     0       0.36      2.81    diag
   8     -166.24119963      -0.00000006     0.34D-05     0.72D-05     7     0       0.36      3.17    fixocc
   9     -166.24119964      -0.00000000     0.78D-06     0.19D-05     8     0       0.36      3.53    diag
  10     -166.24119964      -0.00000000     0.13D-06     0.23D-06     0     0       0.36      3.89    diag/orth

 Final occupancy:  13

 !RHF STATE 1.1 Energy               -166.241199637023
  RHF One-electron energy            -391.807223852053
  RHF Two-electron energy             141.873581499808
  RHF Kinetic energy                  165.876215039628
  RHF Nuclear energy                   83.692442715223
  RHF Virial quotient                  -1.002200343173

 !RHF STATE 1.1 Dipole moment           0.96622153    -0.16568375    -0.00000000
 Dipole moment /Debye                   2.45589018    -0.42112608    -0.00000000

 Orbital energies:

           1.1          2.1          3.1          4.1          5.1          6.1          7.1          8.1          9.1         10.1
    -15.603194   -15.574935   -15.574904    -1.306332    -1.136451    -0.958285    -0.706288    -0.655065    -0.628249    -0.622655

          11.1         12.1         13.1         14.1         15.1
     -0.457106    -0.407846    -0.398721     0.132295     0.175037


 HOMO     13.1    -0.398721 =     -10.8498eV
 LUMO     14.1     0.132295 =       3.5999eV
 LUMO-HOMO         0.531016 =      14.4497eV

 Orbitals saved in record  2100.2


 **********************************************************************************************************************************
 DATASETS  * FILE   NREC   LENGTH (MB)   RECORD NAMES
              1      19      335.59       500      610      700      900      950      970     1000      129      960     1100   
                                          VAR    BASINP    GEOM    SYMINP    ZMAT    AOBASIS   BASIS     P2S    ABASIS      S 
                                         1400     1410     1200     1210     1080     1600     1650     1300     1700   
                                           T        V       H0       H01     AOSYM     SMH    MOLCAS    ERIS     OPER   

              2       4        0.91       700     1000      520     2100   
                                         GEOM     BASIS   MCVARS     RHF  

 PROGRAMS   *        TOTAL    HF-SCF       INT
 CPU TIMES  *         6.89      3.89      2.92
 REAL TIME  *        10.78 SEC
 DISK USED  *         1.27 GB
 **********************************************************************************************************************************


 Program * Restricted Hartree-Fock

 Molecular orbitals read from record     2100.2  Type=RHF/CANONICAL  

 Initial occupancy:  13

 NELEC=   26   SYM=1   MS2= 0   THRE=1.0D-08   THRD=3.2D-06   THRG=3.2D-06  HFMA2=F  DIIS_START=2   DIIS_MAX=10   DIIS_INCORE=F

 Level shifts:    0.00 (CLOSED)    0.00 (OPEN)    0.30 (GAP_MIN)

 ITER           ETOT              DE          GRAD        DDIFF     DIIS  NEXP   TIME(IT)  TIME(TOT)  DIAG
   1     -166.24119964    -166.24119964     0.00D+00     0.62D-01     0     0       0.36      0.36    start
   2     -166.24119964      -0.00000000     0.56D-07     0.10D-06     1     0       0.36      0.72    diag

 Final occupancy:  13

 !RHF STATE 1.1 Energy               -166.241199637038
  RHF One-electron energy            -391.807225886898
  RHF Two-electron energy             141.873583534638
  RHF Kinetic energy                  165.876212542746
  RHF Nuclear energy                   83.692442715223
  RHF Virial quotient                  -1.002200358259

 !RHF STATE 1.1 Dipole moment           0.96622301    -0.16568377    -0.00000000
 Dipole moment /Debye                   2.45589393    -0.42112615    -0.00000000

 Orbital energies:

           1.1          2.1          3.1          4.1          5.1          6.1          7.1          8.1          9.1         10.1
    -15.603194   -15.574935   -15.574904    -1.306331    -1.136451    -0.958285    -0.706288    -0.655065    -0.628249    -0.622655

          11.1         12.1         13.1         14.1         15.1
     -0.457106    -0.407846    -0.398721     0.132295     0.175038


 HOMO     13.1    -0.398721 =     -10.8498eV
 LUMO     14.1     0.132295 =       3.5999eV
 LUMO-HOMO         0.531016 =      14.4497eV

 Orbitals saved in record  2101.2


 **********************************************************************************************************************************
 DATASETS  * FILE   NREC   LENGTH (MB)   RECORD NAMES
              1      19      335.59       500      610      700      900      950      970     1000      129      960     1100   
                                          VAR    BASINP    GEOM    SYMINP    ZMAT    AOBASIS   BASIS     P2S    ABASIS      S 
                                         1400     1410     1200     1210     1080     1600     1650     1300     1700   
                                           T        V       H0       H01     AOSYM     SMH    MOLCAS    ERIS     OPER   

              2       5        1.69       700     1000      520     2100     2101   
                                         GEOM     BASIS   MCVARS     RHF      RHF  

 PROGRAMS   *        TOTAL    HF-SCF    HF-SCF       INT
 CPU TIMES  *         7.62      0.73      3.89      2.92
 REAL TIME  *        11.84 SEC
 DISK USED  *         1.27 GB
 **********************************************************************************************************************************


 PROGRAM * PAPT (Closed-shell)     Authors: C. Hampel, H.-J. Werner, 1991, P.J. Knowles, 2021


 Convergence thresholds:  THRVAR = 1.00D-08  THRDEN = 1.00D-06

 Number of core orbitals:           3 (   3 )
 Number of closed-shell orbitals:  10 (  10 )
 Number of external orbitals:     147 ( 147 )

 Molecular orbitals read from record     2101.2  Type=RHF/CANONICAL  

 Number of N-1 electron functions:              10
 Number of N-2 electron functions:              55
 Number of singly external CSFs:              1470
 Number of doubly external CSFs:           1081185
 Total number of CSFs:                     1082656

 Length of J-op  integral file:               0.00 MB
 Length of K-op  integral file:               1.82 MB

 Integral transformation finished. Total CPU:   0.57 sec, npass=  1  Memory used:   2.91 MW

 Reference energy:                   -166.24119964

                        CORR.ENERGY   TOTAL ENERGY   ENERGY CHANGE
 MP2:                   -0.65095328  -166.89215292    -0.65095328

 SCS-MP2 correlation energy:           -0.64576621   (PS=  1.200000  PT=  0.333333)
 SCS-MP2 total energy:               -166.88696585
 Iteration:   1     0.1941D+00
 Iteration:   2     0.2832D+00
 Iteration:   3     0.3936D-01
 Iteration:   4     0.4335D-01
 Iteration:   5     0.1921D-01
 Iteration:   6     0.9770D-02
 Iteration:   7     0.1169D-01
 Iteration:   8     0.1754D-02
 Iteration:   9     0.2560D-02
 Iteration:  10     0.8383D-03
 Iteration:  11     0.6462D-03
 Iteration:  12     0.5346D-03
 Iteration:  13     0.1203D-03
 Iteration:  14     0.3284D-03
 Iteration:  15     0.4886D-04
 PAPT operator written to  7000.1
 PAPT orbitals and eigenvalues written to  7000.2

 MP3(D):                -0.66988298  -166.91108261    -0.01892970



 RESULTS
 =======

  Reference energy                   -166.241199637038
  MP3 singlet pair energy              -0.452772278332
  MP3 triplet pair energy              -0.217110698738
  MP3 correlation energy               -0.669882977070

 !MP3 total energy                   -166.911082614108

 Timing summary (sec):

 STEP                 CPU(USER)    SYS     CPU(TOT)    WALL
 Transformation          0.60      0.07      0.67      0.78
 CCSD iterations        10.57      0.14     10.71      3.64

 Program statistics:

 Available memory in ccsd:               393215587
 Min. memory needed in ccsd:               3016044
 Max. memory used in ccsd:                 3950009
 Max. memory used in cckext:               3046915 ( 1 integral passes)



 **********************************************************************************************************************************
 DATASETS  * FILE   NREC   LENGTH (MB)   RECORD NAMES
              1      21      352.23       500      610      700      900      950      970     1000      129      960     1100   
                                          VAR    BASINP    GEOM    SYMINP    ZMAT    AOBASIS   BASIS     P2S    ABASIS      S 
                                         1400     1410     1200     1210     1080     1600     1650     1300     1700     1380   
                                           T        V       H0       H01     AOSYM     SMH    MOLCAS    ERIS     OPER     JKOP   
                                         7000   
                                        PAPT AO    

              2       6        2.38       700     1000      520     2100     2101     7000   
                                         GEOM     BASIS   MCVARS     RHF      RHF     PAPT   

 PROGRAMS   *        TOTAL      PAPT    HF-SCF    HF-SCF       INT
 CPU TIMES  *        11.09      3.47      0.73      3.89      2.92
 REAL TIME  *        16.41 SEC
 DISK USED  *         1.27 GB
 **********************************************************************************************************************************


 PROGRAM * MP2 (Closed-shell)     Authors: C. Hampel, H.-J. Werner, 1991, M. Deegan, P.J. Knowles, 1992


 Convergence thresholds:  THRVAR = 1.00D-08  THRDEN = 1.00D-06

 Number of core orbitals:           3 (   3 )
 Number of closed-shell orbitals:  10 (  10 )
 Number of external orbitals:     147 ( 147 )

 Molecular orbitals read from record     7000.2  Type=PAPT/CANONICAL (state 1.1)

 Number of N-1 electron functions:              10
 Number of N-2 electron functions:              55
 Number of singly external CSFs:              1470
 Number of doubly external CSFs:           1081185
 Total number of CSFs:                     1082656

 Length of J-op  integral file:               0.00 MB
 Length of K-op  integral file:               1.82 MB

 Integral transformation finished. Total CPU:   0.58 sec, npass=  1  Memory used:   2.91 MW
 Orbital energies read from record       7000.2  Type=PAPT/CANONICAL (state 1.1)

 Memory needed for MP2:                      0.12 MW

 SCS-MP2 correlation energy:           -0.672472339932   (PS=  1.200000  PT=  0.333333)
 SCS-MP2 total energy:               -166.913671976970


  Reference energy                   -166.241199637038
  MP2 singlet pair energy              -0.436828901975
  MP2 triplet pair energy              -0.238303378226
  MP2 correlation energy               -0.675132280201

 !MP2 total energy                   -166.916331917238


 **********************************************************************************************************************************
 DATASETS  * FILE   NREC   LENGTH (MB)   RECORD NAMES
              1      21      352.23       500      610      700      900      950      970     1000      129      960     1100   
                                          VAR    BASINP    GEOM    SYMINP    ZMAT    AOBASIS   BASIS     P2S    ABASIS      S 
                                         1400     1410     1200     1210     1080     1600     1650     1300     1700     1380   
                                           T        V       H0       H01     AOSYM     SMH    MOLCAS    ERIS     OPER     JKOP   
                                         7000   
                                        PAPT AO    

              2       6        2.38       700     1000      520     2100     2101     7000   
                                         GEOM     BASIS   MCVARS     RHF      RHF     PAPT   

 PROGRAMS   *        TOTAL       MP2      PAPT    HF-SCF    HF-SCF       INT
 CPU TIMES  *        12.11      1.02      3.47      0.73      3.89      2.92
 REAL TIME  *        18.01 SEC
 DISK USED  *         1.27 GB
 **********************************************************************************************************************************

 Dump information in style XML to xml output                                                                      

 Orbitals will not be exported.

 **********************************************************************************************************************************

 MP2/cc-pVTZ energy=   -166.916331917238

             MP2            PAPT          HF-SCF          HF-SCF
   -166.91633192   -166.91108261   -166.24119964   -166.24119964
 **********************************************************************************************************************************
 Molpro calculation terminated
