
 Working directory              : /var/folders/2v/xbgp75_9785319ghcgb4zr4r0000gp/T//molpro.1InR0VFRiH/
 Global scratch directory       : /var/folders/2v/xbgp75_9785319ghcgb4zr4r0000gp/T//molpro.1InR0VFRiH/
 Wavefunction directory         : /Users/sacpjk/wfu/
 Main file repository           : /var/folders/2v/xbgp75_9785319ghcgb4zr4r0000gp/T//molpro.1InR0VFRiH/

 id        : peterk

 Nodes                        nprocs
 Cardiff-University-G34YLXT77Y    1
 GA implementation: MPI file
 GA implementation (serial work in mppx): MPI file

 Using customized tuning parameters: mindgm=1; mindgv=20; mindgc=4; mindgr=1; noblas=0; minvec=7
 default implementation of scratch files=df  


 Variables initialized (1032), CPU time= 0.00 sec
 
 symmetry,nosym
 
 
 geometry={
           10
     N         -0.36120484     -0.92429803      0.27257660
     N          1.02247060     -1.25862078      0.17701934
     H          1.59670310     -0.40904371      0.11357548
     H          1.13377768     -1.75855802     -0.70395977
     H         -0.50225869     -0.62945487      1.24604677
     N         -0.74206979      0.14702554     -0.61853552
     N         -0.42150018      1.48198064     -0.19308732
     H         -1.75800424      0.09952159     -0.67804120
     H         -0.51640901      1.58409122      0.82511497
     H          0.54849537      1.66735642     -0.44070935
 }
 basis=cc-pVTZ
 
 
 
 hf; mp4
 
 
 
 {put,xml;noorbitals,nobasis}
 Commands initialized (841), CPU time= 0.01 sec, 704 directives.
 Default parameters read. Elapsed time= 0.43 sec

 Checking input...
 Passed
1


                                         ***  PROGRAM SYSTEM MOLPRO  ***
                                       Copyright, TTI GmbH Stuttgart, 2015
                                    Version 2023.1 linked Tue Jun  6 09:54:11 2023


 **********************************************************************************************************************************
 LABEL *                                                                                                                                                                 
  64 bit serial version                                                                  DATE: 13-Jun-23          TIME: 00:17:42  
 **********************************************************************************************************************************

 SHA1:             8ebb0dd001088a5c915591db1a321413035db0b1
 **********************************************************************************************************************************

 Memory per process:       393 MW
 Total memory per node:    524 MW
 Total GA space:           131 MW

 GA preallocation disabled
 GA check enabled

 Variable memory set to 393.2 MW

 ZSYMEL=NOSYM


 Geometry recognized as XYZ

 SETTING BASIS          =    CC-PVTZ


 Recomputing integrals since basis changed


 Using spherical harmonics

 Library entry N      S cc-pVTZ              selected for orbital group  1
 Library entry N      P cc-pVTZ              selected for orbital group  1
 Library entry N      D cc-pVTZ              selected for orbital group  1
 Library entry N      F cc-pVTZ              selected for orbital group  1
 Library entry H      S cc-pVTZ              selected for orbital group  2
 Library entry H      P cc-pVTZ              selected for orbital group  2
 Library entry H      D cc-pVTZ              selected for orbital group  2


 PROGRAM * SEWARD (Integral evaluation for generally contracted gaussian basis sets)     Author: Roland Lindh, 1990

 Geometry written to block  1 of record 700


 Point group  C1  



 ATOMIC COORDINATES

 NR  ATOM    CHARGE       X              Y              Z

   1  N       7.00   -0.682578222   -1.746670134    0.515095122
   2  N       7.00    1.932189404   -2.378448569    0.334518071
   3  H       1.00    3.017331561   -0.772980585    0.214626552
   4  H       1.00    2.142529301   -3.323193032   -1.330291168
   5  H       1.00   -0.949131368   -1.189497312    2.354687134
   6  N       7.00   -1.402308668    0.277838004   -1.168862731
   7  N       7.00   -0.796519902    2.800537532   -0.364882153
   8  H       1.00   -3.322146540    0.188068549   -1.281312169
   9  H       1.00   -0.975871597    2.993498562    1.559241315
  10  H       1.00    1.036506030    3.150846986   -0.832819972

 Bond lengths in Bohr (Angstrom)

 1-2  2.696064132  1-5  1.940513051  1-6  2.729900945  2-3  1.941503264  2-4  1.925714095
     ( 1.426695698)     ( 1.026875284)     ( 1.444601368)     ( 1.027399282)     ( 1.019044014)

  6- 7  2.716132859   6- 8  1.925222294   7- 9  1.942074177   7-10  1.923971565
       ( 1.437315611)       ( 1.018783764)       ( 1.027701396)       ( 1.018121907)

 Bond angles

  1-2-3  110.63576547   1-2-4  106.18857567   1-6-7  116.57683676   1-6-8  105.32891587

  2-1-5  105.30743929   2-1-6  112.84032248   3-2-4  106.93267926   5-1-6  109.61061023

  6- 7- 9  111.40456527   6- 7-10  108.03562281   7- 6- 8  106.43970835   9- 7-10  108.11112034

 NUCLEAR CHARGE:                   34
 NUMBER OF PRIMITIVE AOS:         290
 NUMBER OF SYMMETRY AOS:          264
 NUMBER OF CONTRACTIONS:          204   (  204A   )
 NUMBER OF INNER CORE ORBITALS:     0   (    0A   )
 NUMBER OF OUTER CORE ORBITALS:     4   (    4A   )
 NUMBER OF VALENCE ORBITALS:       22   (   22A   )


 NUCLEAR REPULSION ENERGY  136.40566214


 Eigenvalues of metric

         1 0.869E-03 0.979E-03 0.157E-02 0.180E-02 0.246E-02 0.256E-02 0.320E-02 0.330E-02


 Contracted 2-electron integrals neglected if value below      1.0D-11
 AO integral compression algorithm  1   Integral accuracy      1.0D-11

     863.240 MB (compressed) written to integral file ( 45.0%)


 NUMBER OF SORTED TWO-ELECTRON INTEGRALS:  218624505.     BUFFER LENGTH:  32768
 NUMBER OF SEGMENTS:  14  SEGMENT LENGTH:   15999503      RECORD LENGTH: 524288

 Memory used in sort:      16.56 MW

 SORT1 READ   239598844. AND WROTE   205620052. INTEGRALS IN    595 RECORDS. CPU TIME:     1.76 SEC, REAL TIME:     2.46 SEC
 SORT2 READ   205620052. AND WROTE   218624505. INTEGRALS IN   3293 RECORDS. CPU TIME:     1.31 SEC, REAL TIME:     1.77 SEC

 FILE SIZES:   FILE 1:   894.9 MBYTE,  FILE 4:  2495.7 MBYTE,   TOTAL:   3390.6 MBYTE

 OPERATOR DM      FOR CENTER  0  COORDINATES:    0.000000    0.000000    0.000000


 **********************************************************************************************************************************
 DATASETS  * FILE   NREC   LENGTH (MB)   RECORD NAMES
              1      19      782.61       500      610      700      900      950      970     1000      129      960     1100   
                                          VAR    BASINP    GEOM    SYMINP    ZMAT    AOBASIS   BASIS     P2S    ABASIS      S 
                                         1400     1410     1200     1210     1080     1600     1650     1300     1700   
                                           T        V       H0       H01     AOSYM     SMH    MOLCAS    ERIS     OPER   

 PROGRAMS   *        TOTAL       INT
 CPU TIMES  *         8.19      8.09
 REAL TIME  *        11.55 SEC
 DISK USED  *         3.16 GB
 **********************************************************************************************************************************


 Program * Restricted Hartree-Fock

 Orbital guess generated from atomic densities. Full valence occupancy:   26

 Initial occupancy:  17

 NELEC=   34   SYM=1   MS2= 0   THRE=1.0D-08   THRD=3.2D-06   THRG=3.2D-06  HFMA2=F  DIIS_START=2   DIIS_MAX=10   DIIS_INCORE=F

 Level shifts:    0.00 (CLOSED)    0.00 (OPEN)    0.30 (GAP_MIN)

 ITER           ETOT              DE          GRAD        DDIFF     DIIS  NEXP   TIME(IT)  TIME(TOT)  DIAG
   1     -221.20305234    -221.20305234     0.00D+00     0.53D-01     0     0       0.90      1.77    start
   2     -221.25143359      -0.04838125     0.40D-02     0.50D-02     1     0       0.89      2.66    diag
   3     -221.25627169      -0.00483810     0.14D-02     0.14D-02     2     0       0.89      3.55    diag
   4     -221.25714815      -0.00087646     0.51D-03     0.53D-03     3     0       0.89      4.44    diag
   5     -221.25722387      -0.00007572     0.13D-03     0.15D-03     4     0       0.89      5.33    diag
   6     -221.25722980      -0.00000593     0.27D-04     0.47D-04     5     0       0.89      6.22    diag
   7     -221.25723042      -0.00000062     0.83D-05     0.17D-04     6     0       0.89      7.11    diag
   8     -221.25723049      -0.00000007     0.32D-05     0.57D-05     7     0       0.89      8.00    fixocc
   9     -221.25723050      -0.00000001     0.11D-05     0.19D-05     8     0       0.89      8.89    diag
  10     -221.25723050      -0.00000000     0.21D-06     0.36D-06     0     0       0.89      9.78    diag/orth

 Final occupancy:  17

 !RHF STATE 1.1 Energy               -221.257230497366
  RHF One-electron energy            -571.488853550996
  RHF Two-electron energy             213.825960915576
  RHF Kinetic energy                  220.753307823934
  RHF Nuclear energy                  136.405662138054
  RHF Virial quotient                  -1.002282741212

 !RHF STATE 1.1 Dipole moment           0.23674064     0.50019248     0.37115393
 Dipole moment /Debye                   0.60173469     1.27136246     0.94337919

 Orbital energies:

           1.1          2.1          3.1          4.1          5.1          6.1          7.1          8.1          9.1         10.1
    -15.607934   -15.607330   -15.582091   -15.573833    -1.334921    -1.215927    -1.063796    -0.931035    -0.706083    -0.688451

          11.1         12.1         13.1         14.1         15.1         16.1         17.1         18.1         19.1
     -0.673964    -0.630755    -0.603856    -0.460139    -0.430153    -0.416762    -0.391406     0.129821     0.156066


 HOMO     17.1    -0.391406 =     -10.6507eV
 LUMO     18.1     0.129821 =       3.5326eV
 LUMO-HOMO         0.521227 =      14.1833eV

 Orbitals saved in record  2100.2


 **********************************************************************************************************************************
 DATASETS  * FILE   NREC   LENGTH (MB)   RECORD NAMES
              1      19      782.61       500      610      700      900      950      970     1000      129      960     1100   
                                          VAR    BASINP    GEOM    SYMINP    ZMAT    AOBASIS   BASIS     P2S    ABASIS      S 
                                         1400     1410     1200     1210     1080     1600     1650     1300     1700   
                                           T        V       H0       H01     AOSYM     SMH    MOLCAS    ERIS     OPER   

              2       4        1.19       700     1000      520     2100   
                                         GEOM     BASIS   MCVARS     RHF  

 PROGRAMS   *        TOTAL    HF-SCF       INT
 CPU TIMES  *        17.97      9.77      8.09
 REAL TIME  *        23.06 SEC
 DISK USED  *         3.16 GB
 **********************************************************************************************************************************


 PROGRAM * MP4 (Closed-shell)     Authors: C. Hampel, H.-J. Werner, 1991, M. Deegan, P.J. Knowles, 1992


 Convergence thresholds:  THRVAR = 1.00D-08  THRDEN = 1.00D-06

 MP4(T)     terms to be evaluated (factor= 0.000)


 Number of core orbitals:           4 (   4 )
 Number of closed-shell orbitals:  13 (  13 )
 Number of external orbitals:     187 ( 187 )

 Molecular orbitals read from record     2100.2  Type=RHF/CANONICAL  

 Number of N-1 electron functions:              13
 Number of N-2 electron functions:              91
 Number of singly external CSFs:              2431
 Number of doubly external CSFs:           2956096
 Total number of CSFs:                     2958528

 Length of J-op  integral file:               0.00 MB
 Length of K-op  integral file:               2.92 MB

 Memory could be reduced to 109.03 Mwords without degradation in triples

 Integral transformation finished. Total CPU:   4.21 sec, npass=  1  Memory used:  66.89 MW

 Reference energy:                   -221.25723050

                        CORR.ENERGY   TOTAL ENERGY   ENERGY CHANGE
 MP2:                   -0.86090978  -222.11814028    -0.86090978

 SCS-MP2 correlation energy:           -0.85151072   (PS=  1.200000  PT=  0.333333)
 SCS-MP2 total energy:               -222.10874122

 MP3(D):                -0.88289064  -222.14012113    -0.02198085
 MP4(DQ):               -0.88084984  -222.13808034     0.00204080
 MP4(SDQ):              -0.88777147  -222.14500197    -0.00692163

 Norm of t1 vector:      0.06067684      S-energy:    -0.00692163      T1 diagnostic:  0.00841436


 Total CPU time for triples:    119.19 sec


 RESULTS
 =======

  Reference energy                   -221.257230497365
  MP4(SDQ) singlet pair energy         -0.590989246763
  MP4(SDQ) triplet pair energy         -0.289860593252
  MP4(SDQ) correlation energy          -0.887771469758

  Triples contribution                 -0.038490602968
  Total correlation energy             -0.926262072726

  MP4(SDQ) total energy              -222.145001967124
 !MP4(SDTQ) total energy             -222.183492570091

 Timing summary (sec):

 STEP                 CPU(USER)    SYS     CPU(TOT)    WALL
 Transformation          4.30      0.41      4.71      5.02
 CCSD iterations        25.38      0.30     25.68      8.14
 Triples               119.19      5.26    124.45    132.21

 Program statistics:

 Available memory in ccsd:               393215307
 Min. memory needed in ccsd:               7623489
 Max. memory used in ccsd:                10267091
 Max. memory used in cckext:               7974630 ( 1 integral passes)



 **********************************************************************************************************************************
 DATASETS  * FILE   NREC   LENGTH (MB)   RECORD NAMES
              1      20     1152.68       500      610      700      900      950      970     1000      129      960     1100   
                                          VAR    BASINP    GEOM    SYMINP    ZMAT    AOBASIS   BASIS     P2S    ABASIS      S 
                                         1400     1410     1200     1210     1080     1600     1650     1300     1700     1380   
                                           T        V       H0       H01     AOSYM     SMH    MOLCAS    ERIS     OPER     JKOP   

              2       4        1.19       700     1000      520     2100   
                                         GEOM     BASIS   MCVARS     RHF  

 PROGRAMS   *        TOTAL       MP4    HF-SCF       INT
 CPU TIMES  *       148.78    130.81      9.77      8.09
 REAL TIME  *       168.62 SEC
 DISK USED  *         3.16 GB
 **********************************************************************************************************************************

 Dump information in style XML to xml output                                                                      

 Orbitals will not be exported.

 **********************************************************************************************************************************

 MP4/cc-pVTZ energy=   -222.183492570091

             MP4          HF-SCF
   -222.18349257   -221.25723050
 **********************************************************************************************************************************
 Molpro calculation terminated
