
 Working directory              : /tmp/peterk/molpro.swAO5cAcux/
 Global scratch directory       : /tmp/peterk/molpro.swAO5cAcux/
 Wavefunction directory         : /home/peterk/wfu/
 Main file repository           : /tmp/peterk/molpro.swAO5cAcux/

 id        : peterk

 Nodes     nprocs
 marat        1
 GA implementation: MPI file
 GA implementation (serial work in mppx): MPI file

 Using customized tuning parameters: mindgm=1; mindgv=20; mindgc=4; mindgr=1; noblas=0; minvec=7
 default implementation of scratch files=df  


 Variables initialized (1032), CPU time= 0.00 sec
 
 core,small
 angstrom
 
 geometry={
 H1;O1,H1,0.9619;O2,O1,1.4497,H1,99.99;H2,O2,0.9619,O1,99.99,H1,112.7
 }
 basis=cc-pCV5Z
 
 
 
 hf; ccsd(t)
 
 
 
 {put,xml;noorbitals,nobasis}
 Commands initialized (841), CPU time= 0.01 sec, 708 directives.
 Default parameters read. Elapsed time= 0.05 sec

 Checking input...
 Passed
1


                                         ***  PROGRAM SYSTEM MOLPRO  ***
                                       Copyright, TTI GmbH Stuttgart, 2015
                                    Version 2023.1 linked Sat Jun 10 08:01:27 2023


 **********************************************************************************************************************************
 LABEL *                                                                                                                                                                 
  (16 PROC) 64 bit serial version                                                        DATE: 12-Jun-23          TIME: 12:50:23  
 **********************************************************************************************************************************

 SHA1:             8376d659ba1296ca7ee514c57770fe2c96af278c
 **********************************************************************************************************************************

 Memory per process:      1074 MW
 Total memory per node:   1074 MW

 GA preallocation disabled
 GA check disabled

 Variable memory set to 1073.7 MW

 ZUNIT=ANG

 SETTING BASIS          =    CC-PCV5Z


 Recomputing integrals since basis changed


 Using spherical harmonics

 Library entry H      S cc-pV5Z              selected for orbital group  1
 Library entry H      P cc-pV5Z              selected for orbital group  1
 Library entry H      D cc-pV5Z              selected for orbital group  1
 Library entry H      F cc-pV5Z              selected for orbital group  1
 Library entry H      G cc-pV5Z              selected for orbital group  1
 Library entry O      S cc-pCV5Z             selected for orbital group  2
 Library entry O      P cc-pCV5Z             selected for orbital group  2
 Library entry O      D cc-pCV5Z             selected for orbital group  2
 Library entry O      F cc-pCV5Z             selected for orbital group  2
 Library entry O      G cc-pCV5Z             selected for orbital group  2
 Library entry O      H cc-pCV5Z             selected for orbital group  2


 PROGRAM * SEWARD (Integral evaluation for generally contracted gaussian basis sets)     Author: Roland Lindh, 1990

 Geometry written to block  1 of record 700

 Orientation using atomic masses  
 Molecule type: Asymmetric top,     Order of principal axis = 2
 Symmetry elements: XY
 Rotational constants:      26.5232282    304.4736754     25.6942510 GHz  (calculated with average atomic masses)

 Point group  C2  



 ATOMIC COORDINATES

 NR  ATOM    CHARGE       X              Y              Z

   1  H1      1.00    1.347424735   -1.801309636   -0.933175495
   2  H2      1.00   -1.347424735    1.801309636   -0.933175495
   3  O1      8.00   -0.112004019   -1.365181095    0.058788761
   4  O2      8.00    0.112004019    1.365181095    0.058788761

 Bond lengths in Bohr (Angstrom)

 1-3  1.817727559  2-4  1.817727559  3-4  2.739535963
     ( 0.961900000)     ( 0.961900000)     ( 1.449700000)

 Bond angles

  1-3-4   99.99000000   2-4-3   99.99000000

 NUCLEAR CHARGE:                   18
 NUMBER OF PRIMITIVE AOS:         570
 NUMBER OF SYMMETRY AOS:          440
 NUMBER OF CONTRACTIONS:          400   (  200A   +  200B   )
 NUMBER OF INNER CORE ORBITALS:     0   (    0A   +    0B   )
 NUMBER OF OUTER CORE ORBITALS:     2   (    1A   +    1B   )
 NUMBER OF VALENCE ORBITALS:       10   (    5A   +    5B   )


 NUCLEAR REPULSION ENERGY   36.90490578


 Eigenvalues of metric

         1 0.337E-05 0.534E-04 0.306E-03 0.404E-03 0.429E-03 0.442E-03 0.493E-03 0.607E-03
         2 0.334E-05 0.575E-04 0.242E-03 0.304E-03 0.361E-03 0.443E-03 0.488E-03 0.494E-03


 Contracted 2-electron integrals neglected if value below      1.0D-12
 AO integral compression algorithm  1   Integral accuracy      1.0D-12

     8516.010 MB (compressed) written to integral file ( 44.9%)


 NUMBER OF SORTED TWO-ELECTRON INTEGRALS: 1616060100.     BUFFER LENGTH:  32768
 NUMBER OF SEGMENTS:  51  SEGMENT LENGTH:   31997532      RECORD LENGTH: 524288

 Memory used in sort:      32.55 MW

 SORT1 READ  2368290768. AND WROTE  1386381602. INTEGRALS IN   3989 RECORDS. CPU TIME:    36.96 SEC, REAL TIME:   669.24 SEC
 SORT2 READ  1386381602. AND WROTE  1616060100. INTEGRALS IN  32486 RECORDS. CPU TIME:    14.24 SEC, REAL TIME:    32.01 SEC

 FILE SIZES:   FILE 1:  8550.0 MBYTE,  FILE 4: 16731.1 MBYTE,   TOTAL:  25281.2 MBYTE

 OPERATOR DM      FOR CENTER  0  COORDINATES:    0.000000    0.000000    0.000000


 **********************************************************************************************************************************
 DATASETS  * FILE   NREC   LENGTH (MB)   RECORD NAMES
              1      19     5980.09       500      610      700      900      950      970     1000      129      960     1100   
                                          VAR    BASINP    GEOM    SYMINP    ZMAT    AOBASIS   BASIS     P2S    ABASIS      S 
                                         1400     1410     1200     1210     1080     1600     1650     1300     1700   
                                           T        V       H0       H01     AOSYM     SMH    MOLCAS    ERIS     OPER   

 PROGRAMS   *        TOTAL       INT
 CPU TIMES  *       215.67    215.57
 REAL TIME  *      1207.86 SEC
 DISK USED  *        23.55 GB
 **********************************************************************************************************************************


 Program * Restricted Hartree-Fock

 Orbital guess generated from atomic densities. Full valence occupancy:    6   6

 Initial occupancy:   5   4

 NELEC=   18   SYM=1   MS2= 0   THRE=1.0D-08   THRD=3.2D-06   THRG=3.2D-06  HFMA2=F  DIIS_START=2   DIIS_MAX=10   DIIS_INCORE=F

 Level shifts:    0.00 (CLOSED)    0.00 (OPEN)    0.30 (GAP_MIN)

 ITER           ETOT              DE          GRAD        DDIFF     DIIS  NEXP   TIME(IT)  TIME(TOT)  DIAG
   1     -150.82369511    -150.82369511     0.00D+00     0.29D-01     0     0       6.05     11.65    start
   2     -150.85056563      -0.02687052     0.47D-02     0.22D-02     1     0       6.18     17.83    diag
   3     -150.85174519      -0.00117956     0.10D-02     0.38D-03     2     0       6.20     24.03    diag
   4     -150.85187757      -0.00013238     0.25D-03     0.17D-03     3     0       6.04     30.07    diag
   5     -150.85189411      -0.00001654     0.95D-04     0.50D-04     4     0       6.07     36.14    diag
   6     -150.85189575      -0.00000163     0.23D-04     0.17D-04     5     0       6.18     42.32    diag
   7     -150.85189584      -0.00000009     0.47D-05     0.43D-05     6     0       6.04     48.36    diag
   8     -150.85189585      -0.00000001     0.11D-05     0.13D-05     7     0       6.03     54.39    fixocc
   9     -150.85189585      -0.00000000     0.31D-06     0.18D-06     0     0       6.02     60.41    diag

 Final occupancy:   5   4

 !RHF STATE 1.1 Energy               -150.851895847510
  RHF One-electron energy            -281.516178707478
  RHF Two-electron energy              93.759377076377
  RHF Kinetic energy                  150.666391998483
  RHF Nuclear energy                   36.904905783591
  RHF Virial quotient                  -1.001231222481

 !RHF STATE 1.1 Dipole moment           0.00000000     0.00000000    -0.74017268
 Dipole moment /Debye                   0.00000000     0.00000000    -1.88133131

 Orbital energies:

           1.1          2.1          3.1          4.1          5.1          6.1          7.1
    -20.629406    -1.477178    -0.715698    -0.610702    -0.519951     0.096167     0.305843

           1.2          2.2          3.2          4.2          5.2          6.2
    -20.629113    -1.215729    -0.712677    -0.488260     0.108337     0.215670


 HOMO      4.2    -0.488260 =     -13.2862eV
 LUMO      6.1     0.096167 =       2.6168eV
 LUMO-HOMO         0.584427 =      15.9031eV

 Orbitals saved in record  2100.2


 **********************************************************************************************************************************
 DATASETS  * FILE   NREC   LENGTH (MB)   RECORD NAMES
              1      19     5980.09       500      610      700      900      950      970     1000      129      960     1100   
                                          VAR    BASINP    GEOM    SYMINP    ZMAT    AOBASIS   BASIS     P2S    ABASIS      S 
                                         1400     1410     1200     1210     1080     1600     1650     1300     1700   
                                           T        V       H0       H01     AOSYM     SMH    MOLCAS    ERIS     OPER   

              2       4        1.70       700     1000      520     2100   
                                         GEOM     BASIS   MCVARS     RHF  

 PROGRAMS   *        TOTAL    HF-SCF       INT
 CPU TIMES  *       276.08     60.41    215.57
 REAL TIME  *      1278.09 SEC
 DISK USED  *        23.55 GB
 **********************************************************************************************************************************


 PROGRAM * CCSD (Closed-shell coupled cluster)     Authors: C. Hampel, H.-J. Werner, 1991, M. Deegan, P.J. Knowles, 1992


 CORETYPE=SMALL

 Convergence thresholds:  THRVAR = 1.00D-08  THRDEN = 1.00D-06

 CCSD(T)     terms to be evaluated (factor= 1.000)


 Number of closed-shell orbitals:   9 (   5   4 )
 Number of external orbitals:     391 ( 195 196 )

 Molecular orbitals read from record     2100.2  Type=RHF/CANONICAL  

 Number of N-1 electron functions:               9
 Number of N-2 electron functions:              45
 Number of singly external CSFs:              1759
 Number of doubly external CSFs:           3097600
 Total number of CSFs:                     3099360

 Length of J-op  integral file:               0.00 MB
 Length of K-op  integral file:               5.56 MB
 Length of 3-ext integral record:             0.00 MB

 Memory could be reduced to 351.66 Mwords without degradation in triples

 Integral transformation finished. Total CPU:  48.82 sec, npass=  1  Memory used: 121.22 MW

 Reference energy:                   -150.85189585

 MP2 singlet pair energy:              -0.45401766
 MP2 triplet pair energy:              -0.21919062
 MP2 correlation energy:               -0.67320829
 MP2 total energy:                   -151.52510413

 SCS-MP2 correlation energy:           -0.68120647   (PS=  1.200000  PT=  0.333333)
 SCS-MP2 total energy:               -151.53310232

 ITER.      SQ.NORM     CORR.ENERGY   TOTAL ENERGY   ENERGY CHANGE        DEN1      VAR(S)    VAR(P)  DIIS     TIME  TIME/IT
   1      1.12247070    -0.67313672  -151.52503256     0.00007157     0.01504766  0.21D-02  0.25D-02  1  1   342.27    17.70
   2      1.13100590    -0.67325188  -151.52514773    -0.00011517    -0.01223742  0.51D-04  0.31D-03  2  2   359.73    18.10
   3      1.13423931    -0.67339059  -151.52528644    -0.00013871    -0.00192709  0.21D-04  0.30D-04  3  3   377.14    18.23
   4      1.13597782    -0.67338505  -151.52528090     0.00000554    -0.00092494  0.19D-05  0.24D-05  4  4   394.48    18.29
   5      1.13635640    -0.67338530  -151.52528114    -0.00000025    -0.00012476  0.55D-06  0.21D-06  5  5   412.00    18.33
   6      1.13644508    -0.67338461  -151.52528046     0.00000069    -0.00000697  0.10D-06  0.28D-07  6  6   429.46    18.36
   7      1.13646602    -0.67338434  -151.52528018     0.00000027    -0.00000304  0.21D-07  0.51D-08  6  2   447.01    18.39
   8      1.13647046    -0.67338381  -151.52527965     0.00000053     0.00000037  0.41D-08  0.11D-08  6  1   464.46    18.40

 Norm of t1 vector:      0.05894735      S-energy:     0.00000002      T1 diagnostic:  0.00982456
                                                                       D1 diagnostic:  0.02339087
                                                                       D2 diagnostic:  0.17554226 (internal)


 Total CPU time for triples:    321.68 sec


 RESULTS
 =======

  Reference energy                   -150.851895847509

  Correlated core orbitals:             1.1       1.2
  Orbital energies:                   -20.6294  -20.6291

  CCSD core-core energy                -0.082031111860
  CCSD core-valence energy             -0.040562228546
  CCSD valence correlation energy      -0.550790465630

  CCSD singlet pair energy             -0.479136196494
  CCSD triplet pair energy             -0.194247626745
  CCSD correlation energy              -0.673383806036

  Triples (T) contribution             -0.023185334391
  Total correlation energy             -0.696569140427

  CCSD total energy                  -151.525279653545
  CCSD[T] energy                     -151.549212755387
  CCSD-T energy                      -151.548123955184
 !CCSD(T) total energy               -151.548464987936

 Timing summary (sec):

 STEP                 CPU(USER)    SYS     CPU(TOT)    WALL
 Transformation         48.90      2.39     51.29     51.29
 CCSD iterations       415.67      8.09    423.76    147.33
 Triples               321.68      6.12    327.80    327.82

 Program statistics:

 Available memory in ccsd:              1073741495
 Min. memory needed in ccsd:               8635210
 Max. memory used in ccsd:                11356794
 Max. memory used in cckext:              15895005 ( 8 integral passes)



 **********************************************************************************************************************************
 DATASETS  * FILE   NREC   LENGTH (MB)   RECORD NAMES
              1      20     7051.31       500      610      700      900      950      970     1000      129      960     1100   
                                          VAR    BASINP    GEOM    SYMINP    ZMAT    AOBASIS   BASIS     P2S    ABASIS      S 
                                         1400     1410     1200     1210     1080     1600     1650     1300     1700     1380   
                                           T        V       H0       H01     AOSYM     SMH    MOLCAS    ERIS     OPER     JKOP   

              2       4        1.70       700     1000      520     2100   
                                         GEOM     BASIS   MCVARS     RHF  

 PROGRAMS   *        TOTAL   CCSD(T)    HF-SCF       INT
 CPU TIMES  *       785.91    509.83     60.41    215.57
 REAL TIME  *      1804.62 SEC
 DISK USED  *        23.55 GB
 **********************************************************************************************************************************

 Dump information in style XML to xml output                                                                      

 Orbitals will not be exported.

 **********************************************************************************************************************************

 CCSD(T)/cc-pCV5Z energy=   -151.548464987936

         CCSD(T)          HF-SCF
   -151.54846499   -150.85189585
 **********************************************************************************************************************************
 Molpro calculation terminated
