
 Working directory              : /var/folders/2v/xbgp75_9785319ghcgb4zr4r0000gp/T//molpro.qOK5N53oEW/
 Global scratch directory       : /var/folders/2v/xbgp75_9785319ghcgb4zr4r0000gp/T//molpro.qOK5N53oEW/
 Wavefunction directory         : /Users/sacpjk/wfu/
 Main file repository           : /var/folders/2v/xbgp75_9785319ghcgb4zr4r0000gp/T//molpro.qOK5N53oEW/

 id        : peterk

 Nodes                        nprocs
 Cardiff-University-G34YLXT77Y    1
 GA implementation: MPI file
 GA implementation (serial work in mppx): MPI file

 Using customized tuning parameters: mindgm=1; mindgv=20; mindgc=4; mindgr=1; noblas=0; minvec=7
 default implementation of scratch files=df  


 Variables initialized (1032), CPU time= 0.01 sec
 
 symmetry,nosym
 
 
 geometry={
 12
  o         -1.527646102080    0.457973387505   -0.213561759716
  h         -0.583413802253    0.434177050244   -0.417697389935
  c         -2.043576580853   -0.830031984284   -0.478901532009
  h         -3.101456196792   -0.815009593660   -0.230205217635
  h         -1.948121413855   -1.111415060290   -1.530351686713
  h         -1.566346919749   -1.605016966448    0.126350368364
  o          1.318908103188    0.359134027225   -0.506263782018
  h          1.787697413109    0.973518551157   -1.075929735942
  c          1.827742028774    0.516152965156    0.815453542362
  h          1.274172948765   -0.172043461456    1.445584422194
  h          2.886738130918    0.265714066399    0.872176682935
  h          1.675302390722    1.526847018505    1.193346087954
 }
 basis=aug-cc-pVTZ
 
 
 
 hf; ccsd(t); counterpoise
 
 
 
 {put,xml;noorbitals,nobasis}
 Commands initialized (841), CPU time= 0.00 sec, 704 directives.
 Default parameters read. Elapsed time= 0.41 sec

 Checking input...
 Passed
1


                                         ***  PROGRAM SYSTEM MOLPRO  ***
                                       Copyright, TTI GmbH Stuttgart, 2015
                                    Version 2023.1 linked Tue Jun  6 09:54:11 2023


 **********************************************************************************************************************************
 LABEL *                                                                                                                                                                 
  64 bit serial version                                                                  DATE: 08-Jun-23          TIME: 19:55:45  
 **********************************************************************************************************************************

 SHA1:             8ebb0dd001088a5c915591db1a321413035db0b1
 **********************************************************************************************************************************

 Memory per process:       805 MW
 Total memory per node:   1074 MW
 Total GA space:           268 MW

 GA preallocation disabled
 GA check enabled

 Variable memory set to 805.3 MW

 ZSYMEL=NOSYM


 Geometry recognized as XYZ

 SETTING BASIS          =    AUG-CC-PVTZ


 Recomputing integrals since basis changed


 Using spherical harmonics

 Library entry O      S aug-cc-pVTZ          selected for orbital group  1
 Library entry O      P aug-cc-pVTZ          selected for orbital group  1
 Library entry O      D aug-cc-pVTZ          selected for orbital group  1
 Library entry O      F aug-cc-pVTZ          selected for orbital group  1
 Library entry H      S aug-cc-pVTZ          selected for orbital group  2
 Library entry H      P aug-cc-pVTZ          selected for orbital group  2
 Library entry H      D aug-cc-pVTZ          selected for orbital group  2
 Library entry C      S aug-cc-pVTZ          selected for orbital group  3
 Library entry C      P aug-cc-pVTZ          selected for orbital group  3
 Library entry C      D aug-cc-pVTZ          selected for orbital group  3
 Library entry C      F aug-cc-pVTZ          selected for orbital group  3


 PROGRAM * SEWARD (Integral evaluation for generally contracted gaussian basis sets)     Author: Roland Lindh, 1990

 Geometry written to block  1 of record 700


 Point group  C1  



 ATOMIC COORDINATES

 NR  ATOM    CHARGE       X              Y              Z

   1  O       8.00   -2.886832748    0.865444275   -0.403573237
   2  H       1.00   -1.102492304    0.820475715   -0.789333670
   3  C       6.00   -3.861800053   -1.568533125   -0.904992736
   4  H       1.00   -5.860902799   -1.540144921   -0.435024814
   5  H       1.00   -3.681415930   -2.100270075   -2.891945562
   6  H       1.00   -2.959966694   -3.033042492    0.238767592
   7  O       8.00    2.492375099    0.678664953   -0.956699895
   8  H       1.00    3.378258504    1.839683439   -2.033212530
   9  C       6.00    3.453931861    0.975387743    1.540983862
  10  H       1.00    2.407837909   -0.325115024    2.731758648
  11  H       1.00    5.455144461    0.502126813    1.648175063
  12  H       1.00    3.165862694    2.885322699    2.255097278

 Bond lengths in Bohr (Angstrom)

 1-2  1.826117221  1-3  2.669499717  3-4  2.053798318  3-5  2.064767335  3-6  2.065497223
     ( 0.966339618)     ( 1.412638415)     ( 1.086823266)     ( 1.092627820)     ( 1.093014060)

  7- 8  1.814285751   7- 9  2.692779228   9-10  2.050259640   9-11  2.059203179   9-12  2.059318662
       ( 0.960078674)       ( 1.424957402)       ( 1.084950678)       ( 1.089683395)       ( 1.089744506)

 Bond angles

  1-3-4  107.45243548   1-3-5  112.56023933   1-3-6  112.51984284   2-1-3  107.14181272

  4- 3- 5  107.98697641   4- 3- 6  107.94343214   5- 3- 6  108.18798931   7- 9-10  106.65583751

  7- 9-11  111.71494432   7- 9-12  111.95602746   8- 7- 9  107.78761844  10- 9-11  108.65333214

 10- 9-12  108.39236687  11- 9-12  109.33255661

 NUCLEAR CHARGE:                   36
 NUMBER OF PRIMITIVE AOS:         484
 NUMBER OF SYMMETRY AOS:          432
 NUMBER OF CONTRACTIONS:          368   (  368A   )
 NUMBER OF INNER CORE ORBITALS:     0   (    0A   )
 NUMBER OF OUTER CORE ORBITALS:     4   (    4A   )
 NUMBER OF VALENCE ORBITALS:       24   (   24A   )


 NUCLEAR REPULSION ENERGY  129.52156890


 Eigenvalues of metric

         1 0.446E-04 0.467E-04 0.493E-04 0.555E-04 0.578E-04 0.723E-04 0.797E-04 0.113E-03


 Contracted 2-electron integrals neglected if value below      1.0D-12
 AO integral compression algorithm  1   Integral accuracy      1.0D-12

     9200.730 MB (compressed) written to integral file ( 45.8%)


 NUMBER OF SORTED TWO-ELECTRON INTEGRALS: 2304967356.     BUFFER LENGTH:  32768
 NUMBER OF SEGMENTS:  73  SEGMENT LENGTH:   31999951      RECORD LENGTH: 262144

 Memory used in sort:      32.29 MW

 SORT1 READ  2513827292. AND WROTE  2053062355. INTEGRALS IN  11782 RECORDS. CPU TIME:    19.71 SEC, REAL TIME:    28.59 SEC
 SORT2 READ  2053062355. AND WROTE  2304967356. INTEGRALS IN  35098 RECORDS. CPU TIME:    12.55 SEC, REAL TIME:    34.83 SEC

 FILE SIZES:   FILE 1:  9235.9 MBYTE,  FILE 4: 24708.7 MBYTE,   TOTAL:  33944.6 MBYTE

 OPERATOR DM      FOR CENTER  0  COORDINATES:    0.000000    0.000000    0.000000


 **********************************************************************************************************************************
 DATASETS  * FILE   NREC   LENGTH (MB)   RECORD NAMES
              1      19     8125.35       500      610      700      900      950      970     1000      129      960     1100   
                                          VAR    BASINP    GEOM    SYMINP    ZMAT    AOBASIS   BASIS     P2S    ABASIS      S 
                                         1400     1410     1200     1210     1080     1600     1650     1300     1700   
                                           T        V       H0       H01     AOSYM     SMH    MOLCAS    ERIS     OPER   

 PROGRAMS   *        TOTAL       INT
 CPU TIMES  *        74.20     74.11
 REAL TIME  *       120.42 SEC
 DISK USED  *        31.61 GB
 **********************************************************************************************************************************


 Program * Restricted Hartree-Fock

 Orbital guess generated from atomic densities. Full valence occupancy:   28

 Initial occupancy:  18

 NELEC=   36   SYM=1   MS2= 0   THRE=1.0D-08   THRD=3.2D-06   THRG=3.2D-06  HFMA2=F  DIIS_START=2   DIIS_MAX=10   DIIS_INCORE=F

 Level shifts:    0.00 (CLOSED)    0.00 (OPEN)    0.30 (GAP_MIN)

 ITER           ETOT              DE          GRAD        DDIFF     DIIS  NEXP   TIME(IT)  TIME(TOT)  DIAG
   1     -230.12334202    -230.12334202     0.00D+00     0.33D-01     0     0      10.99     21.06    start
   2     -230.17668636      -0.05334434     0.33D-02     0.38D-02     1     0      11.06     32.12    diag
   3     -230.18852121      -0.01183485     0.17D-02     0.11D-02     2     0      11.68     43.80    diag
   4     -230.18955422      -0.00103301     0.38D-03     0.34D-03     3     0      11.60     55.40    diag
   5     -230.18960958      -0.00005536     0.67D-04     0.72D-04     4     0      10.84     66.24    diag
   6     -230.18961229      -0.00000271     0.14D-04     0.19D-04     5     0      11.01     77.25    diag
   7     -230.18961244      -0.00000015     0.41D-05     0.45D-05     6     0      10.51     87.76    diag
   8     -230.18961246      -0.00000002     0.16D-05     0.18D-05     7     0      10.98     98.74    fixocc
   9     -230.18961247      -0.00000000     0.38D-06     0.51D-06     8     0      10.68    109.42    diag
  10     -230.18961247      -0.00000000     0.12D-06     0.13D-06     0     0      11.02    120.44    diag/orth

 Final occupancy:  18

 !RHF STATE 1.1 Energy               -230.189612465390
  RHF One-electron energy            -571.577506674560
  RHF Two-electron energy             211.866325308527
  RHF Kinetic energy                  229.882494784350
  RHF Nuclear energy                  129.521568900643
  RHF Virial quotient                  -1.001335976806

 !RHF STATE 1.1 Dipole moment           1.16038287    -0.03841510     0.01474157
 Dipole moment /Debye                   2.94939908    -0.09764144     0.03746934

 Orbital energies:

           1.1          2.1          3.1          4.1          5.1          6.1          7.1          8.1          9.1         10.1
    -20.582599   -20.528662   -11.283944   -11.251506    -1.382254    -1.332059    -0.942601    -0.905028    -0.716916    -0.673600

          11.1         12.1         13.1         14.1         15.1         16.1         17.1         18.1         19.1         20.1
     -0.635534    -0.610549    -0.599099    -0.571873    -0.526786    -0.486235    -0.467002    -0.426171     0.024702     0.039201


 HOMO     18.1    -0.426171 =     -11.5967eV
 LUMO     19.1     0.024702 =       0.6722eV
 LUMO-HOMO         0.450873 =      12.2689eV

 Orbitals saved in record  2100.2


 **********************************************************************************************************************************
 DATASETS  * FILE   NREC   LENGTH (MB)   RECORD NAMES
              1      19     8125.35       500      610      700      900      950      970     1000      129      960     1100   
                                          VAR    BASINP    GEOM    SYMINP    ZMAT    AOBASIS   BASIS     P2S    ABASIS      S 
                                         1400     1410     1200     1210     1080     1600     1650     1300     1700   
                                           T        V       H0       H01     AOSYM     SMH    MOLCAS    ERIS     OPER   

              2       4        2.68       700     1000      520     2100   
                                         GEOM     BASIS   MCVARS     RHF  

 PROGRAMS   *        TOTAL    HF-SCF       INT
 CPU TIMES  *       194.64    120.44     74.11
 REAL TIME  *       291.73 SEC
 DISK USED  *        31.61 GB
 **********************************************************************************************************************************


 PROGRAM * CCSD (Closed-shell coupled cluster)     Authors: C. Hampel, H.-J. Werner, 1991, M. Deegan, P.J. Knowles, 1992


 Convergence thresholds:  THRVAR = 1.00D-08  THRDEN = 1.00D-06

 CCSD(T)     terms to be evaluated (factor= 1.000)


 Number of core orbitals:           4 (   4 )
 Number of closed-shell orbitals:  14 (  14 )
 Number of external orbitals:     350 ( 350 )

 Molecular orbitals read from record     2100.2  Type=RHF/CANONICAL  

 Number of N-1 electron functions:              14
 Number of N-2 electron functions:             105
 Number of singly external CSFs:              4900
 Number of doubly external CSFs:          12007450
 Total number of CSFs:                    12012351

 Length of J-op  integral file:               0.00 MB
 Length of K-op  integral file:               9.36 MB
 Length of 3-ext integral record:             0.00 MB

 Integral transformation finished. Total CPU:  60.23 sec, npass=  1  Memory used: 401.17 MW

 Reference energy:                   -230.18961247

 MP2 singlet pair energy:              -0.57468679
 MP2 triplet pair energy:              -0.30340175
 MP2 correlation energy:               -0.87808853
 MP2 total energy:                   -231.06770100

 SCS-MP2 correlation energy:           -0.87840745   (PS=  1.200000  PT=  0.333333)
 SCS-MP2 total energy:               -231.06801992

 ITER.      SQ.NORM     CORR.ENERGY   TOTAL ENERGY   ENERGY CHANGE        DEN1      VAR(S)    VAR(P)  DIIS     TIME  TIME/IT
   1      1.24081551    -0.91009648  -231.09970895    -0.03200795    -0.01039846  0.32D-02  0.39D-02  1  1   349.04   117.06
   2      1.25731627    -0.91223790  -231.10185036    -0.00214141    -0.01933268  0.40D-04  0.50D-03  2  2   447.51   120.18
   3      1.26301393    -0.91239261  -231.10200507    -0.00015471    -0.00365258  0.35D-04  0.22D-04  3  3   546.21   120.74
   4      1.26457897    -0.91235804  -231.10197051     0.00003457    -0.00074501  0.20D-05  0.25D-05  4  4   656.07   124.58
   5      1.26493670    -0.91236057  -231.10197304    -0.00000253    -0.00011076  0.52D-06  0.20D-06  5  5   765.12   127.37
   6      1.26503388    -0.91235288  -231.10196535     0.00000769    -0.00001994  0.79D-07  0.22D-07  6  6   878.52   129.64
   7      1.26505625    -0.91235092  -231.10196339     0.00000196    -0.00000322  0.11D-07  0.47D-08  6  2   982.30   128.63
   8      1.26506215    -0.91235068  -231.10196314     0.00000024    -0.00000012  0.18D-08  0.62D-09  6  1  1091.20   129.65
   9      1.26506437    -0.91235054  -231.10196301     0.00000014     0.00000044  0.18D-09  0.74D-10  6  3  1193.33   128.65

 Norm of t1 vector:      0.07569226      S-energy:    -0.00000003      T1 diagnostic:  0.01011480
                                                                       D1 diagnostic:  0.02465413
                                                                       D2 diagnostic:  0.13814276 (internal)


 Total CPU time for triples:   2137.53 sec


 RESULTS
 =======

  Reference energy                   -230.189612465390
  CCSD singlet pair energy             -0.636643873017
  CCSD triplet pair energy             -0.275706639419
  CCSD correlation energy              -0.912350542268

  Triples (T) contribution             -0.032374803216
  Total correlation energy             -0.944725345484

  CCSD total energy                  -231.101963007659
  CCSD[T] energy                     -231.135486943978
  CCSD-T energy                      -231.133748436363
 !CCSD(T) total energy               -231.134337810875

 Timing summary (sec):

 STEP                 CPU(USER)    SYS     CPU(TOT)    WALL
 Transformation         61.05      9.88     70.93     92.66
 CCSD iterations      1132.90     56.88   1189.78   1160.44
 Triples              2137.53     65.72   2203.25   2078.02

 Program statistics:

 Available memory in ccsd:               805305566
 Min. memory needed in ccsd:              29746255
 Max. memory used in ccsd:                40717719
 Max. memory used in cckext:              29622439 ( 9 integral passes)



 **********************************************************************************************************************************
 DATASETS  * FILE   NREC   LENGTH (MB)   RECORD NAMES
              1      20    10586.62       500      610      700      900      950      970     1000      129      960     1100   
                                          VAR    BASINP    GEOM    SYMINP    ZMAT    AOBASIS   BASIS     P2S    ABASIS      S 
                                         1400     1410     1200     1210     1080     1600     1650     1300     1700     1380   
                                           T        V       H0       H01     AOSYM     SMH    MOLCAS    ERIS     OPER     JKOP   

              2       4        2.68       700     1000      520     2100   
                                         GEOM     BASIS   MCVARS     RHF  

 PROGRAMS   *        TOTAL   CCSD(T)    HF-SCF       INT
 CPU TIMES  *      3331.39   3136.74    120.44     74.11
 REAL TIME  *      3624.12 SEC
 DISK USED  *        31.61 GB
 **********************************************************************************************************************************

 Counterpoise: absolute minimum monomer separation=    -1.000 Bragg radius scale factor=     1.400 Number of monomers= 2

 Counterpoise  CCSD(T)  energy

 Running default procedure: HF-SCF000  CCSD(T)

 Assignment of unique atoms to monomers:
1-12     1     1     1     1     1     1     2     2     2     2     2     2

 *** Long output written to logfile /Users/sacpjk/current/PAPT/S66/0b5ab42b/05.molpro/run/1.molpro/1.log ***


 Description                       ENERGY          ENERGR          ENERGC
 Raw                        -231.13433781   -230.18961247   -231.10196301
 Dimer basis, monomer 1     -115.56263181   -115.09190392   -115.54676080
 Dimer basis, monomer 2     -115.56288800   -115.09214127   -115.54698916
 Monomer basis, monomer 1   -115.56217155   -115.09181755   -115.54632364
 Monomer basis, monomer 2   -115.56233410   -115.09205210   -115.54646862
 Counterpoise correction       0.00101416      0.00017555      0.00095770
 Counterpoise corrected     -231.13332365   -230.18943692   -231.10100531


 **********************************************************************************************************************************
 DATASETS  * FILE   NREC   LENGTH (MB)   RECORD NAMES
              1      18       33.54       500      610      700      900      950      970     1000      129      960     1100   
                                          VAR    BASINP    GEOM    SYMINP    ZMAT    AOBASIS   BASIS     P2S    ABASIS      S 
                                         1400     1410     1200     1210     1080     1600     1650     1700   
                                           T        V       H0       H01     AOSYM     SMH    MOLCAS    OPER   

              2       9        9.39       700     1000      520     2100     2101      701     1001     2102      702   
                                         GEOM     BASIS   MCVARS     RHF      RHF     GEOM     BASIS     RHF     GEOM   

 PROGRAMS   *        TOTALCOUNTERPOI    HF-SCF       INT   CCSD(T)    HF-SCF       INT   CCSD(T)    HF-SCF       INT   CCSD(T)
 CPU TIMES  *      4574.43     32.55      6.35      4.62     31.66      6.15      4.60    459.80     98.06      0.06    502.31
 REAL TIME  *      4927.13 SEC
 DISK USED  *        31.61 GB
 **********************************************************************************************************************************

 Dump information in style XML to xml output                                                                      

 Orbitals will not be exported.

 **********************************************************************************************************************************

 CCSD(T)/aug-cc-pVTZ energy=   -231.133323647816

         CCSD(T)          HF-SCF         CCSD(T)          HF-SCF         CCSD(T)          HF-SCF         CCSD(T)          HF-SCF
   -115.56233410   -115.09205210   -115.56217155   -115.09181755   -115.56288800   -115.09214127   -115.56263181   -115.09190392
 **********************************************************************************************************************************
 Molpro calculation terminated
