
 Working directory              : /var/folders/2v/xbgp75_9785319ghcgb4zr4r0000gp/T//molpro.TtV8tqKSbQ/
 Global scratch directory       : /var/folders/2v/xbgp75_9785319ghcgb4zr4r0000gp/T//molpro.TtV8tqKSbQ/
 Wavefunction directory         : /Users/sacpjk/wfu/
 Main file repository           : /var/folders/2v/xbgp75_9785319ghcgb4zr4r0000gp/T//molpro.TtV8tqKSbQ/

 id        : peterk

 Nodes                        nprocs
 Cardiff-University-G34YLXT77Y    1
 GA implementation: MPI file
 GA implementation (serial work in mppx): MPI file

 Using customized tuning parameters: mindgm=1; mindgv=20; mindgc=4; mindgr=1; noblas=0; minvec=7
 default implementation of scratch files=df  


 Variables initialized (1032), CPU time= 0.00 sec
 
 symmetry,nosym
 
 
 geometry={
 6
  o          0.220790846086    1.075092987171   -0.006674360761
  h          1.185059642311    1.042620442310   -0.006320630642
  c         -0.240638072874   -0.260358989868    0.001598379350
  h         -1.326924574928   -0.228972553793    0.000735958021
  h          0.081387122301   -0.819843549718   -0.879930624021
  h          0.080325037105   -0.808538336101    0.890591278054
 }
 basis=aug-cc-pVTZ
 
 
 
 hf; ccsd(t); counterpoise
 
 
 
 {put,xml;noorbitals,nobasis}
 Commands initialized (841), CPU time= 0.00 sec, 704 directives.
 Default parameters read. Elapsed time= 2.86 sec

 Checking input...
 Passed
1


                                         ***  PROGRAM SYSTEM MOLPRO  ***
                                       Copyright, TTI GmbH Stuttgart, 2015
                                    Version 2023.1 linked Tue Jun  6 09:54:11 2023


 **********************************************************************************************************************************
 LABEL *                                                                                                                                                                 
  64 bit serial version                                                                  DATE: 08-Jun-23          TIME: 20:09:10  
 **********************************************************************************************************************************

 SHA1:             8ebb0dd001088a5c915591db1a321413035db0b1
 **********************************************************************************************************************************

 Memory per process:       805 MW
 Total memory per node:   1074 MW
 Total GA space:           268 MW

 GA preallocation disabled
 GA check enabled

 Variable memory set to 805.3 MW

 ZSYMEL=NOSYM


 Geometry recognized as XYZ

 SETTING BASIS          =    AUG-CC-PVTZ


 Recomputing integrals since basis changed


 Using spherical harmonics

 Library entry O      S aug-cc-pVTZ          selected for orbital group  1
 Library entry O      P aug-cc-pVTZ          selected for orbital group  1
 Library entry O      D aug-cc-pVTZ          selected for orbital group  1
 Library entry O      F aug-cc-pVTZ          selected for orbital group  1
 Library entry H      S aug-cc-pVTZ          selected for orbital group  2
 Library entry H      P aug-cc-pVTZ          selected for orbital group  2
 Library entry H      D aug-cc-pVTZ          selected for orbital group  2
 Library entry C      S aug-cc-pVTZ          selected for orbital group  3
 Library entry C      P aug-cc-pVTZ          selected for orbital group  3
 Library entry C      D aug-cc-pVTZ          selected for orbital group  3
 Library entry C      F aug-cc-pVTZ          selected for orbital group  3


 PROGRAM * SEWARD (Integral evaluation for generally contracted gaussian basis sets)     Author: Roland Lindh, 1990

 Geometry written to block  1 of record 700


 Point group  C1  



 ATOMIC COORDINATES

 NR  ATOM    CHARGE       X              Y              Z

   1  O       8.00    0.417234230    2.031631304   -0.012612714
   2  H       1.00    2.239438165    1.970267088   -0.011944261
   3  C       6.00   -0.454740053   -0.492007185    0.003020499
   4  H       1.00   -2.507524035   -0.432695417    0.001390759
   5  H       1.00    0.153799371   -1.549279774   -1.662827888
   6  H       1.00    0.151792321   -1.527916016    1.682973605

 Bond lengths in Bohr (Angstrom)

 1-2  1.823237010  1-3  2.670081417  3-4  2.053641307  3-5  2.064750931  3-6  2.064759323
     ( 0.964815476)     ( 1.412946237)     ( 1.086740179)     ( 1.092619139)     ( 1.092623580)

 Bond angles

  1-3-4  107.40559297   1-3-5  112.51964703   1-3-6  112.52114045   2-1-3  107.13200477

  4-3-5  107.98411746   4-3-6  107.98497415   5-3-6  108.23763290

 NUCLEAR CHARGE:                   18
 NUMBER OF PRIMITIVE AOS:         242
 NUMBER OF SYMMETRY AOS:          216
 NUMBER OF CONTRACTIONS:          184   (  184A   )
 NUMBER OF INNER CORE ORBITALS:     0   (    0A   )
 NUMBER OF OUTER CORE ORBITALS:     2   (    2A   )
 NUMBER OF VALENCE ORBITALS:       12   (   12A   )


 NUCLEAR REPULSION ENERGY   40.42326360

 Eigenvalues of metric

         1 0.612E-04 0.727E-04 0.888E-04 0.203E-03 0.396E-03 0.482E-03 0.755E-03 0.769E-03


 Contracted 2-electron integrals neglected if value below      1.0D-11
 AO integral compression algorithm  1   Integral accuracy      1.0D-11

     714.867 MB (compressed) written to integral file ( 52.6%)


 NUMBER OF SORTED TWO-ELECTRON INTEGRALS:  144848710.     BUFFER LENGTH:  32768
 NUMBER OF SEGMENTS:  10  SEGMENT LENGTH:   15999503      RECORD LENGTH: 524288

 Memory used in sort:      16.56 MW

 SORT1 READ   170053774. AND WROTE   143565468. INTEGRALS IN    414 RECORDS. CPU TIME:     1.18 SEC, REAL TIME:     2.29 SEC
 SORT2 READ   143565468. AND WROTE   144848710. INTEGRALS IN   2727 RECORDS. CPU TIME:     0.96 SEC, REAL TIME:     1.52 SEC

 FILE SIZES:   FILE 1:   746.2 MBYTE,  FILE 4:  1736.5 MBYTE,   TOTAL:   2482.7 MBYTE

 OPERATOR DM      FOR CENTER  0  COORDINATES:    0.000000    0.000000    0.000000


 **********************************************************************************************************************************
 DATASETS  * FILE   NREC   LENGTH (MB)   RECORD NAMES
              1      19      625.85       500      610      700      900      950      970     1000      129      960     1100   
                                          VAR    BASINP    GEOM    SYMINP    ZMAT    AOBASIS   BASIS     P2S    ABASIS      S 
                                         1400     1410     1200     1210     1080     1600     1650     1300     1700   
                                           T        V       H0       H01     AOSYM     SMH    MOLCAS    ERIS     OPER   

 PROGRAMS   *        TOTAL       INT
 CPU TIMES  *         5.81      5.70
 REAL TIME  *        16.91 SEC
 DISK USED  *         2.31 GB
 **********************************************************************************************************************************


 Program * Restricted Hartree-Fock

 Orbital guess generated from atomic densities. Full valence occupancy:   14

 Initial occupancy:   9

 NELEC=   18   SYM=1   MS2= 0   THRE=1.0D-08   THRD=3.2D-06   THRG=3.2D-06  HFMA2=F  DIIS_START=2   DIIS_MAX=10   DIIS_INCORE=F

 Level shifts:    0.00 (CLOSED)    0.00 (OPEN)    0.30 (GAP_MIN)

 ITER           ETOT              DE          GRAD        DDIFF     DIIS  NEXP   TIME(IT)  TIME(TOT)  DIAG
   1     -115.05602768    -115.05602768     0.00D+00     0.46D-01     0     0       0.72      1.40    start
   2     -115.08413415      -0.02810647     0.49D-02     0.53D-02     1     0       0.76      2.16    diag
   3     -115.09133375      -0.00719960     0.27D-02     0.17D-02     2     0       0.75      2.91    diag
   4     -115.09186583      -0.00053208     0.53D-03     0.45D-03     3     0       0.75      3.66    diag
   5     -115.09189909      -0.00003326     0.11D-03     0.10D-03     4     0       0.72      4.38    diag
   6     -115.09190064      -0.00000155     0.20D-04     0.28D-04     5     0       0.74      5.12    diag
   7     -115.09190072      -0.00000007     0.42D-05     0.65D-05     6     0       0.73      5.85    diag
   8     -115.09190072      -0.00000000     0.11D-05     0.17D-05     7     0       0.75      6.60    fixocc
   9     -115.09190072      -0.00000000     0.33D-06     0.38D-06     0     0       0.71      7.31    diag

 Final occupancy:   9

 !RHF STATE 1.1 Energy               -115.091900720264
  RHF One-electron energy            -237.066924969998
  RHF Two-electron energy              81.551760645182
  RHF Kinetic energy                  114.926621347969
  RHF Nuclear energy                   40.423263604553
  RHF Virial quotient                  -1.001438129568

 !RHF STATE 1.1 Dipole moment           0.40261795    -0.58469487     0.00369809
 Dipole moment /Debye                   1.02335274    -1.48614613     0.00939961

 Orbital energies:

           1.1          2.1          3.1          4.1          5.1          6.1          7.1          8.1          9.1         10.1
    -20.560884   -11.270252    -1.360461    -0.925330    -0.692642    -0.620920    -0.595472    -0.504424    -0.451276     0.028420

          11.1
      0.042885


 HOMO      9.1    -0.451276 =     -12.2798eV
 LUMO     10.1     0.028420 =       0.7734eV
 LUMO-HOMO         0.479696 =      13.0532eV

 Orbitals saved in record  2100.2


 **********************************************************************************************************************************
 DATASETS  * FILE   NREC   LENGTH (MB)   RECORD NAMES
              1      19      625.85       500      610      700      900      950      970     1000      129      960     1100   
                                          VAR    BASINP    GEOM    SYMINP    ZMAT    AOBASIS   BASIS     P2S    ABASIS      S 
                                         1400     1410     1200     1210     1080     1600     1650     1300     1700   
                                           T        V       H0       H01     AOSYM     SMH    MOLCAS    ERIS     OPER   

              2       4        1.00       700     1000      520     2100   
                                         GEOM     BASIS   MCVARS     RHF  

 PROGRAMS   *        TOTAL    HF-SCF       INT
 CPU TIMES  *        13.12      7.31      5.70
 REAL TIME  *        29.79 SEC
 DISK USED  *         2.31 GB
 **********************************************************************************************************************************


 PROGRAM * CCSD (Closed-shell coupled cluster)     Authors: C. Hampel, H.-J. Werner, 1991, M. Deegan, P.J. Knowles, 1992


 Convergence thresholds:  THRVAR = 1.00D-08  THRDEN = 1.00D-06

 CCSD(T)     terms to be evaluated (factor= 1.000)


 Number of core orbitals:           2 (   2 )
 Number of closed-shell orbitals:   7 (   7 )
 Number of external orbitals:     175 ( 175 )

 Molecular orbitals read from record     2100.2  Type=RHF/CANONICAL  

 Number of N-1 electron functions:               7
 Number of N-2 electron functions:              28
 Number of singly external CSFs:              1225
 Number of doubly external CSFs:            750925
 Total number of CSFs:                      752151

 Length of J-op  integral file:               0.00 MB
 Length of K-op  integral file:               2.39 MB
 Length of 3-ext integral record:             0.00 MB

 Memory could be reduced to 53.22 Mwords without degradation in triples

 Integral transformation finished. Total CPU:   3.06 sec, npass=  1  Memory used:  27.38 MW

 Reference energy:                   -115.09190072

 MP2 singlet pair energy:              -0.28681736
 MP2 triplet pair energy:              -0.15014000
 MP2 correlation energy:               -0.43695736
 MP2 total energy:                   -115.52885808

 SCS-MP2 correlation energy:           -0.43760128   (PS=  1.200000  PT=  0.333333)
 SCS-MP2 total energy:               -115.52950200

 ITER.      SQ.NORM     CORR.ENERGY   TOTAL ENERGY   ENERGY CHANGE        DEN1      VAR(S)    VAR(P)  DIIS     TIME  TIME/IT
   1      1.12028026    -0.45328516  -115.54518588    -0.01632780    -0.00555958  0.16D-02  0.19D-02  1  1    18.79     4.25
   2      1.12853395    -0.45438056  -115.54628128    -0.00109540    -0.00965128  0.20D-04  0.25D-03  2  2    21.30     3.92
   3      1.13139214    -0.45446844  -115.54636916    -0.00008788    -0.00185283  0.16D-04  0.11D-04  3  3    23.82     3.76
   4      1.13216387    -0.45445436  -115.54635508     0.00001408    -0.00036587  0.92D-06  0.12D-05  4  4    26.30     3.63
   5      1.13233184    -0.45445576  -115.54635648    -0.00000140    -0.00005305  0.23D-06  0.10D-06  5  5    28.60     3.55
   6      1.13237808    -0.45445204  -115.54635276     0.00000372    -0.00000981  0.36D-07  0.96D-08  6  6    30.80     3.47
   7      1.13238828    -0.45445112  -115.54635184     0.00000093    -0.00000151  0.48D-08  0.21D-08  6  2    33.07     3.45
   8      1.13239084    -0.45445102  -115.54635174     0.00000009    -0.00000002  0.78D-09  0.26D-09  6  1    35.39     3.49

 Norm of t1 vector:      0.05234339      S-energy:    -0.00000017      T1 diagnostic:  0.00989197
                                                                       D1 diagnostic:  0.02318788
                                                                       D2 diagnostic:  0.13734332 (internal)


 Total CPU time for triples:     26.56 sec


 RESULTS
 =======

  Reference energy                   -115.091900720264
  CCSD singlet pair energy             -0.318186120577
  CCSD triplet pair energy             -0.136264732027
  CCSD correlation energy              -0.454451023984

  Triples (T) contribution             -0.015839942920
  Total correlation energy             -0.470290966904

  CCSD total energy                  -115.546351744248
  CCSD[T] energy                     -115.562755909244
  CCSD-T energy                      -115.561901481549
 !CCSD(T) total energy               -115.562191687168

 Timing summary (sec):

 STEP                 CPU(USER)    SYS     CPU(TOT)    WALL
 Transformation          3.11      0.29      3.40      8.35
 CCSD iterations        32.31      1.42     33.73     31.23
 Triples                26.56      0.99     27.55     35.37

 Program statistics:

 Available memory in ccsd:               805306163
 Min. memory needed in ccsd:               2385617
 Max. memory used in ccsd:                 3007350
 Max. memory used in cckext:               2165242 ( 8 integral passes)



 **********************************************************************************************************************************
 DATASETS  * FILE   NREC   LENGTH (MB)   RECORD NAMES
              1      20      781.17       500      610      700      900      950      970     1000      129      960     1100   
                                          VAR    BASINP    GEOM    SYMINP    ZMAT    AOBASIS   BASIS     P2S    ABASIS      S 
                                         1400     1410     1200     1210     1080     1600     1650     1300     1700     1380   
                                           T        V       H0       H01     AOSYM     SMH    MOLCAS    ERIS     OPER     JKOP   

              2       4        1.00       700     1000      520     2100   
                                         GEOM     BASIS   MCVARS     RHF  

 PROGRAMS   *        TOTAL   CCSD(T)    HF-SCF       INT
 CPU TIMES  *        61.86     48.74      7.31      5.70
 REAL TIME  *       105.80 SEC
 DISK USED  *         2.31 GB
 **********************************************************************************************************************************

 Counterpoise: absolute minimum monomer separation=    -1.000 Bragg radius scale factor=     1.400 Number of monomers= 1
 Counterpoise skipped because only a single monomer


 **********************************************************************************************************************************
 DATASETS  * FILE   NREC   LENGTH (MB)   RECORD NAMES
              1      20      781.17       500      610      700      900      950      970     1000      129      960     1100   
                                          VAR    BASINP    GEOM    SYMINP    ZMAT    AOBASIS   BASIS     P2S    ABASIS      S 
                                         1400     1410     1200     1210     1080     1600     1650     1300     1700     1380   
                                           T        V       H0       H01     AOSYM     SMH    MOLCAS    ERIS     OPER     JKOP   

              2       4        1.00       700     1000      520     2100   
                                         GEOM     BASIS   MCVARS     RHF  

 PROGRAMS   *        TOTALCOUNTERPOI   CCSD(T)    HF-SCF       INT
 CPU TIMES  *        61.86      0.00     48.74      7.31      5.70
 REAL TIME  *       106.03 SEC
 DISK USED  *         2.31 GB
 **********************************************************************************************************************************

 Dump information in style XML to xml output                                                                      

 Orbitals will not be exported.

 **********************************************************************************************************************************

 CCSD(T)/aug-cc-pVTZ energy=   -115.562191687168

         CCSD(T)          HF-SCF
   -115.56219169   -115.09190072
 **********************************************************************************************************************************
 Molpro calculation terminated
