
 Working directory              : /var/folders/2v/xbgp75_9785319ghcgb4zr4r0000gp/T//molpro.HA1CSUYLhQ/
 Global scratch directory       : /var/folders/2v/xbgp75_9785319ghcgb4zr4r0000gp/T//molpro.HA1CSUYLhQ/
 Wavefunction directory         : /Users/sacpjk/wfu/
 Main file repository           : /var/folders/2v/xbgp75_9785319ghcgb4zr4r0000gp/T//molpro.HA1CSUYLhQ/

 id        : peterk

 Nodes                        nprocs
 Cardiff-University-G34YLXT77Y    1
 GA implementation: MPI file
 GA implementation (serial work in mppx): MPI file

 Using customized tuning parameters: mindgm=1; mindgv=20; mindgc=4; mindgr=1; noblas=0; minvec=7
 default implementation of scratch files=df  


 Variables initialized (1032), CPU time= 0.00 sec
 
 symmetry,nosym
 
 
 geometry={
            3
     N          0.00000000      0.00000000     -1.14542900
     N          0.00000000      0.00000000     -0.01934100
     O          0.00000000      0.00000000      1.16477000
 }
 basis=cc-pVDZ
 
 
 
 hf; hf; papt; mp4
 
 
 
 {put,xml;noorbitals,nobasis}
 Commands initialized (841), CPU time= 0.00 sec, 704 directives.
 Default parameters read. Elapsed time= 0.73 sec

 Checking input...
 Passed
1


                                         ***  PROGRAM SYSTEM MOLPRO  ***
                                       Copyright, TTI GmbH Stuttgart, 2015
                                    Version 2023.1 linked Tue Jun  6 09:54:11 2023


 **********************************************************************************************************************************
 LABEL *                                                                                                                                                                 
  64 bit serial version                                                                  DATE: 11-Jun-23          TIME: 13:55:56  
 **********************************************************************************************************************************

 SHA1:             8ebb0dd001088a5c915591db1a321413035db0b1
 **********************************************************************************************************************************

 Memory per process:       393 MW
 Total memory per node:    524 MW
 Total GA space:           131 MW

 GA preallocation disabled
 GA check enabled

 Variable memory set to 393.2 MW

 ZSYMEL=NOSYM


 Geometry recognized as XYZ

 SETTING BASIS          =    CC-PVDZ


 Recomputing integrals since basis changed


 Using spherical harmonics

 Library entry N      S cc-pVDZ              selected for orbital group  1
 Library entry N      P cc-pVDZ              selected for orbital group  1
 Library entry N      D cc-pVDZ              selected for orbital group  1
 Library entry O      S cc-pVDZ              selected for orbital group  2
 Library entry O      P cc-pVDZ              selected for orbital group  2
 Library entry O      D cc-pVDZ              selected for orbital group  2


 PROGRAM * SEWARD (Integral evaluation for generally contracted gaussian basis sets)     Author: Roland Lindh, 1990

 Geometry written to block  1 of record 700


 Point group  C1  



 ATOMIC COORDINATES

 NR  ATOM    CHARGE       X              Y              Z

   1  N       7.00    0.000000000    0.000000000   -2.164547105
   2  N       7.00    0.000000000    0.000000000   -0.036549193
   3  O       8.00    0.000000000    0.000000000    2.201096298

 Bond lengths in Bohr (Angstrom)

 1-2  2.127997912  2-3  2.237645491
     ( 1.126088000)     ( 1.184111000)

 Bond angles

  1-2-3  180.00000000

 NUCLEAR CHARGE:                   22
 NUMBER OF PRIMITIVE AOS:          81
 NUMBER OF SYMMETRY AOS:           78
 NUMBER OF CONTRACTIONS:           42   (   42A   )
 NUMBER OF INNER CORE ORBITALS:     0   (    0A   )
 NUMBER OF OUTER CORE ORBITALS:     3   (    3A   )
 NUMBER OF VALENCE ORBITALS:       12   (   12A   )


 NUCLEAR REPULSION ENERGY   60.88007743

 EXTRA SYMMETRY OF AOS IN SYMMETRY 1:   1 1 1 2 3 1 2 3 1 1   4 2 5 3 1 1 1 2 3 1   2 3 1 1 4 2 5 3 1 1   1 2 3 1 2 3 1 1 4 2
                                        5 3

 Eigenvalues of metric

         1 0.233E-02 0.796E-02 0.352E-01 0.563E-01 0.734E-01 0.962E-01 0.962E-01 0.127E+00


 Contracted 2-electron integrals neglected if value below      1.0D-11
 AO integral compression algorithm  1   Integral accuracy      1.0D-11

     1.049 MB (compressed) written to integral file ( 18.3%)


 NUMBER OF SORTED TWO-ELECTRON INTEGRALS:     408156.     BUFFER LENGTH:  32768
 NUMBER OF SEGMENTS:   1  SEGMENT LENGTH:     408156      RECORD LENGTH: 524288

 Memory used in sort:       0.97 MW

 SORT1 READ      544483. AND WROTE       97835. INTEGRALS IN      1 RECORDS. CPU TIME:     0.00 SEC, REAL TIME:     0.01 SEC
 SORT2 READ       97835. AND WROTE      408156. INTEGRALS IN      4 RECORDS. CPU TIME:     0.01 SEC, REAL TIME:     0.02 SEC

 FILE SIZES:   FILE 1:    31.1 MBYTE,  FILE 4:     4.3 MBYTE,   TOTAL:     35.4 MBYTE

 OPERATOR DM      FOR CENTER  0  COORDINATES:    0.000000    0.000000    0.000000


 **********************************************************************************************************************************
 DATASETS  * FILE   NREC   LENGTH (MB)   RECORD NAMES
              1      19       29.25       500      610      700      900      950      970     1000      129      960     1100   
                                          VAR    BASINP    GEOM    SYMINP    ZMAT    AOBASIS   BASIS     P2S    ABASIS      S 
                                         1400     1410     1200     1210     1080     1600     1650     1300     1700   
                                           T        V       H0       H01     AOSYM     SMH    MOLCAS    ERIS     OPER   

 PROGRAMS   *        TOTAL       INT
 CPU TIMES  *         0.21      0.11
 REAL TIME  *         2.43 SEC
 DISK USED  *        34.10 MB
 **********************************************************************************************************************************


 Program * Restricted Hartree-Fock

 Orbital guess generated from atomic densities. Full valence occupancy:   15

 Initial occupancy:  11

 NELEC=   22   SYM=1   MS2= 0   THRE=1.0D-08   THRD=3.2D-06   THRG=3.2D-06  HFMA2=F  DIIS_START=2   DIIS_MAX=10   DIIS_INCORE=F

 Level shifts:    0.00 (CLOSED)    0.00 (OPEN)    0.30 (GAP_MIN)

 ITER           ETOT              DE          GRAD        DDIFF     DIIS  NEXP   TIME(IT)  TIME(TOT)  DIAG
   1     -183.59971390    -183.59971390     0.00D+00     0.20D+00     0     0       0.00      0.00    start
   2     -183.64472342      -0.04500952     0.19D-01     0.42D-01     1     0       0.00      0.00    diag
   3     -183.69509998      -0.05037656     0.14D-01     0.20D-01     2     0       0.01      0.01    diag
   4     -183.69587838      -0.00077840     0.15D-02     0.30D-02     3     0       0.00      0.01    diag
   5     -183.69611681      -0.00023843     0.87D-03     0.13D-02     4     0       0.00      0.01    diag
   6     -183.69617447      -0.00005765     0.28D-03     0.72D-03     5     0       0.00      0.01    diag
   7     -183.69618035      -0.00000589     0.96D-04     0.26D-03     6     0       0.00      0.01    diag
   8     -183.69618057      -0.00000021     0.21D-04     0.51D-04     7     0       0.01      0.02    fixocc
   9     -183.69618057      -0.00000000     0.24D-05     0.63D-05     8     0       0.00      0.02    diag
  10     -183.69618057      -0.00000000     0.15D-06     0.46D-06     9     0       0.00      0.02    diag/orth
  11     -183.69618057      -0.00000000     0.42D-07     0.12D-06     0     0       0.00      0.02    diag

 Final occupancy:  11

 !RHF STATE 1.1 Energy               -183.696180568778
  RHF One-electron energy            -370.639577148589
  RHF Two-electron energy             126.063319149568
  RHF Kinetic energy                  183.372797885849
  RHF Nuclear energy                   60.880077430243
  RHF Virial quotient                  -1.001763525925

 !RHF STATE 1.1 Dipole moment          -0.00000000    -0.00000000    -0.25677074
 Dipole moment /Debye                  -0.00000000    -0.00000000    -0.65264613

 Orbital energies:

           1.1          2.1          3.1          4.1          5.1          6.1          7.1          8.1          9.1         10.1
    -20.653881   -15.847183   -15.702285    -1.615707    -1.426195    -0.827169    -0.760027    -0.760027    -0.693078    -0.485459

          11.1         12.1         13.1
     -0.485459     0.161447     0.161447


 HOMO     11.1    -0.485459 =     -13.2100eV
 LUMO     12.1     0.161447 =       4.3932eV
 LUMO-HOMO         0.646906 =      17.6032eV

 Orbitals saved in record  2100.2


 **********************************************************************************************************************************
 DATASETS  * FILE   NREC   LENGTH (MB)   RECORD NAMES
              1      19       29.25       500      610      700      900      950      970     1000      129      960     1100   
                                          VAR    BASINP    GEOM    SYMINP    ZMAT    AOBASIS   BASIS     P2S    ABASIS      S 
                                         1400     1410     1200     1210     1080     1600     1650     1300     1700   
                                           T        V       H0       H01     AOSYM     SMH    MOLCAS    ERIS     OPER   

              2       4        0.44       700     1000      520     2100   
                                         GEOM     BASIS   MCVARS     RHF  

 PROGRAMS   *        TOTAL    HF-SCF       INT
 CPU TIMES  *         0.25      0.04      0.11
 REAL TIME  *         2.93 SEC
 DISK USED  *        34.10 MB
 **********************************************************************************************************************************


 Program * Restricted Hartree-Fock

 Molecular orbitals read from record     2100.2  Type=RHF/CANONICAL  

 Initial occupancy:  11

 NELEC=   22   SYM=1   MS2= 0   THRE=1.0D-08   THRD=3.2D-06   THRG=3.2D-06  HFMA2=F  DIIS_START=2   DIIS_MAX=10   DIIS_INCORE=F

 Level shifts:    0.00 (CLOSED)    0.00 (OPEN)    0.30 (GAP_MIN)

 ITER           ETOT              DE          GRAD        DDIFF     DIIS  NEXP   TIME(IT)  TIME(TOT)  DIAG
   1     -183.69618057    -183.69618057     0.00D+00     0.21D+00     0     0       0.01      0.01    start
   2     -183.69618057       0.00000000     0.23D-07     0.59D-07     1     0       0.00      0.01    diag

 Final occupancy:  11

 !RHF STATE 1.1 Energy               -183.696180568778
  RHF One-electron energy            -370.639579436600
  RHF Two-electron energy             126.063321437579
  RHF Kinetic energy                  183.372798702992
  RHF Nuclear energy                   60.880077430243
  RHF Virial quotient                  -1.001763521461

 !RHF STATE 1.1 Dipole moment          -0.00000000    -0.00000000    -0.25677367
 Dipole moment /Debye                  -0.00000000    -0.00000000    -0.65265357

 Orbital energies:

           1.1          2.1          3.1          4.1          5.1          6.1          7.1          8.1          9.1         10.1
    -20.653881   -15.847183   -15.702284    -1.615707    -1.426195    -0.827169    -0.760027    -0.760027    -0.693078    -0.485459

          11.1         12.1         13.1
     -0.485459     0.161447     0.161447


 HOMO     11.1    -0.485459 =     -13.2100eV
 LUMO     12.1     0.161447 =       4.3932eV
 LUMO-HOMO         0.646906 =      17.6032eV

 Orbitals saved in record  2101.2


 **********************************************************************************************************************************
 DATASETS  * FILE   NREC   LENGTH (MB)   RECORD NAMES
              1      19       29.25       500      610      700      900      950      970     1000      129      960     1100   
                                          VAR    BASINP    GEOM    SYMINP    ZMAT    AOBASIS   BASIS     P2S    ABASIS      S 
                                         1400     1410     1200     1210     1080     1600     1650     1300     1700   
                                           T        V       H0       H01     AOSYM     SMH    MOLCAS    ERIS     OPER   

              2       5        0.59       700     1000      520     2100     2101   
                                         GEOM     BASIS   MCVARS     RHF      RHF  

 PROGRAMS   *        TOTAL    HF-SCF    HF-SCF       INT
 CPU TIMES  *         0.26      0.01      0.04      0.11
 REAL TIME  *         3.34 SEC
 DISK USED  *        34.10 MB
 **********************************************************************************************************************************


 PROGRAM * PAPT (Closed-shell)     Authors: C. Hampel, H.-J. Werner, 1991, P.J. Knowles, 2021


 Convergence thresholds:  THRVAR = 1.00D-08  THRDEN = 1.00D-06

 Number of core orbitals:           3 (   3 )
 Number of closed-shell orbitals:   8 (   8 )
 Number of external orbitals:      31 (  31 )

 Molecular orbitals read from record     2101.2  Type=RHF/CANONICAL  

 Number of N-1 electron functions:               8
 Number of N-2 electron functions:              36
 Number of singly external CSFs:               248
 Number of doubly external CSFs:             30876
 Total number of CSFs:                       31125

 Length of J-op  integral file:               0.00 MB
 Length of K-op  integral file:               0.18 MB

 Integral transformation finished. Total CPU:   0.00 sec, npass=  1  Memory used:   0.20 MW

 Reference energy:                   -183.69618057

                        CORR.ENERGY   TOTAL ENERGY   ENERGY CHANGE
 MP2:                   -0.52555955  -184.22174012    -0.52555955

 SCS-MP2 correlation energy:           -0.50181729   (PS=  1.200000  PT=  0.333333)
 SCS-MP2 total energy:               -184.19799786
 Iteration:   1     0.9611D+00
 Iteration:   2     0.5928D+00
 Iteration:   3     0.2424D+00
 Iteration:   4     0.1642D+00
 Iteration:   5     0.1363D+00
 Iteration:   6     0.4478D-01
 Iteration:   7     0.6863D-01
 Iteration:   8     0.1584D-01
 Iteration:   9     0.1360D-01
 Iteration:  10     0.6285D-02
 Iteration:  11     0.6673D-02
 Iteration:  12     0.1433D-02
 Iteration:  13     0.1096D-02
 Iteration:  14     0.8557D-03
 Iteration:  15     0.2002D-03
 Iteration:  16     0.3250D-03
 Iteration:  17     0.3945D-04
 PAPT operator written to  7000.1
 PAPT orbitals and eigenvalues written to  7000.2

 MP3(D):                -0.49924776  -184.19542833     0.02631179



 RESULTS
 =======

  Reference energy                   -183.696180568778
  MP3 singlet pair energy              -0.314265153208
  MP3 triplet pair energy              -0.184982608819
  MP3 correlation energy               -0.499247762027

 !MP3 total energy                   -184.195428330805

 Timing summary (sec):

 STEP                 CPU(USER)    SYS     CPU(TOT)    WALL
 CCSD iterations         0.51      0.04      0.55      1.46

 Program statistics:

 Available memory in ccsd:               393215733
 Min. memory needed in ccsd:                113759
 Max. memory used in ccsd:                  134491
 Max. memory used in cckext:                175622 ( 1 integral passes)



 **********************************************************************************************************************************
 DATASETS  * FILE   NREC   LENGTH (MB)   RECORD NAMES
              1      21       30.02       500      610      700      900      950      970     1000      129      960     1100   
                                          VAR    BASINP    GEOM    SYMINP    ZMAT    AOBASIS   BASIS     P2S    ABASIS      S 
                                         1400     1410     1200     1210     1080     1600     1650     1300     1700     1380   
                                           T        V       H0       H01     AOSYM     SMH    MOLCAS    ERIS     OPER     JKOP   
                                         7000   
                                        PAPT AO    

              2       6        0.72       700     1000      520     2100     2101     7000   
                                         GEOM     BASIS   MCVARS     RHF      RHF     PAPT   

 PROGRAMS   *        TOTAL      PAPT    HF-SCF    HF-SCF       INT
 CPU TIMES  *         0.40      0.14      0.01      0.04      0.11
 REAL TIME  *         5.19 SEC
 DISK USED  *        34.10 MB
 **********************************************************************************************************************************


 PROGRAM * MP4 (Closed-shell)     Authors: C. Hampel, H.-J. Werner, 1991, M. Deegan, P.J. Knowles, 1992


 Convergence thresholds:  THRVAR = 1.00D-08  THRDEN = 1.00D-06

 MP4(T)     terms to be evaluated (factor= 0.000)


 Number of core orbitals:           3 (   3 )
 Number of closed-shell orbitals:   8 (   8 )
 Number of external orbitals:      31 (  31 )

 Molecular orbitals read from record     7000.2  Type=PAPT/CANONICAL (state 1.1)

 Number of N-1 electron functions:               8
 Number of N-2 electron functions:              36
 Number of singly external CSFs:               248
 Number of doubly external CSFs:             30876
 Total number of CSFs:                       31125

 Length of J-op  integral file:               0.00 MB
 Length of K-op  integral file:               0.18 MB

 Memory could be reduced to 0.47 Mwords without degradation in triples

 Integral transformation finished. Total CPU:   0.01 sec, npass=  1  Memory used:   0.54 MW
 Orbital energies read from record       7000.2  Type=PAPT/CANONICAL (state 1.1)

 Reference energy:                   -183.69618057

                        CORR.ENERGY   TOTAL ENERGY   ENERGY CHANGE
 MP2:                   -0.50665418  -184.20283475    -0.50665418

 SCS-MP2 correlation energy:           -0.48613713   (PS=  1.200000  PT=  0.333333)
 SCS-MP2 total energy:               -184.18231770

 MP3(D):                -0.50668473  -184.20286530    -0.00003054
 MP4(DQ):               -0.50447018  -184.20065075     0.00221454
 MP4(SDQ):              -0.51234652  -184.20852709    -0.00787633

 Norm of t1 vector:      0.07838633      S-energy:    -0.00787633      T1 diagnostic:  0.01385688

 Largest off-diagonal element in interal  block of Fock matrix:  0.16D+00
 Largest off-diagonal element in external block of Fock matrix:  0.21D+00


 Total CPU time for triples:      0.11 sec


 RESULTS
 =======

  Reference energy                   -183.696180568778
  MP4(SDQ) singlet pair energy         -0.312912135848
  MP4(SDQ) triplet pair energy         -0.191558047878
  MP4(SDQ) correlation energy          -0.512346516678

  Triples contribution                 -0.025013401969
  Total correlation energy             -0.537359918646

  MP4(SDQ) total energy              -184.208527085456
 !MP4(SDTQ) total energy             -184.233540487424

 Timing summary (sec):

 STEP                 CPU(USER)    SYS     CPU(TOT)    WALL
 Transformation          0.01      0.01      0.02      0.22
 CCSD iterations         0.57      0.00      0.57      0.73
 Triples                 0.11      0.00      0.11      0.11

 Program statistics:

 Available memory in ccsd:               393215733
 Min. memory needed in ccsd:                113759
 Max. memory used in ccsd:                  134491
 Max. memory used in cckext:                175622 ( 1 integral passes)



 **********************************************************************************************************************************
 DATASETS  * FILE   NREC   LENGTH (MB)   RECORD NAMES
              1      22       30.96       500      610      700      900      950      970     1000      129      960     1100   
                                          VAR    BASINP    GEOM    SYMINP    ZMAT    AOBASIS   BASIS     P2S    ABASIS      S 
                                         1400     1410     1200     1210     1080     1600     1650     1300     1700     1380   
                                           T        V       H0       H01     AOSYM     SMH    MOLCAS    ERIS     OPER     JKOP   
                                         7000     1380(1)
                                        PAPT AO   JKOP   

              2       6        0.72       700     1000      520     2100     2101     7000   
                                         GEOM     BASIS   MCVARS     RHF      RHF     PAPT   

 PROGRAMS   *        TOTAL       MP4      PAPT    HF-SCF    HF-SCF       INT
 CPU TIMES  *         0.60      0.20      0.14      0.01      0.04      0.11
 REAL TIME  *         6.53 SEC
 DISK USED  *        35.32 MB
 **********************************************************************************************************************************

 Dump information in style XML to xml output                                                                      

 Orbitals will not be exported.

 **********************************************************************************************************************************

 MP4/cc-pVDZ energy=   -184.233540487424

             MP4            PAPT          HF-SCF          HF-SCF
   -184.23354049   -184.19542833   -183.69618057   -183.69618057
 **********************************************************************************************************************************
 Molpro calculation terminated
