
 Working directory              : /var/folders/2v/xbgp75_9785319ghcgb4zr4r0000gp/T//molpro.1NJjIntR2Z/
 Global scratch directory       : /var/folders/2v/xbgp75_9785319ghcgb4zr4r0000gp/T//molpro.1NJjIntR2Z/
 Wavefunction directory         : /Users/sacpjk/wfu/
 Main file repository           : /var/folders/2v/xbgp75_9785319ghcgb4zr4r0000gp/T//molpro.1NJjIntR2Z/

 id        : peterk

 Nodes                        nprocs
 Cardiff-University-G34YLXT77Y    1
 GA implementation: MPI file
 GA implementation (serial work in mppx): MPI file

 Using customized tuning parameters: mindgm=1; mindgv=20; mindgc=4; mindgr=1; noblas=0; minvec=7
 default implementation of scratch files=df  


 Variables initialized (1032), CPU time= 0.00 sec
 
 symmetry,nosym
 
 
 geometry={
 7
  n          0.124569655278   -0.403187953202   -0.817004660257
  h          1.114969132486   -0.615403079114   -0.845077133339
  h         -0.350417919872   -1.292734282935   -0.740169479530
  c         -0.157761603644    0.398564064054    0.371229986595
  h         -1.223605732468    0.612872378618    0.421017437514
  h          0.137231318991   -0.055096893267    1.323201890510
  h          0.355015149071    1.354985766005    0.286801958507
 }
 basis=aug-cc-pVDZ
 
 
 
 hf; hf; papt; mp4
 
 
 
 {put,xml;noorbitals,nobasis}
 Commands initialized (841), CPU time= 0.00 sec, 704 directives.
 Default parameters read. Elapsed time= 0.07 sec

 Checking input...
 Passed
1


                                         ***  PROGRAM SYSTEM MOLPRO  ***
                                       Copyright, TTI GmbH Stuttgart, 2015
                                    Version 2023.1 linked Tue Jun  6 09:54:11 2023


 **********************************************************************************************************************************
 LABEL *                                                                                                                                                                 
  64 bit serial version                                                                  DATE: 08-Jun-23          TIME: 21:55:44  
 **********************************************************************************************************************************

 SHA1:             8ebb0dd001088a5c915591db1a321413035db0b1
 **********************************************************************************************************************************

 Memory per process:       805 MW
 Total memory per node:   1074 MW
 Total GA space:           268 MW

 GA preallocation disabled
 GA check enabled

 Variable memory set to 805.3 MW

 ZSYMEL=NOSYM


 Geometry recognized as XYZ

 SETTING BASIS          =    AUG-CC-PVDZ


 Recomputing integrals since basis changed


 Using spherical harmonics

 Library entry N      S aug-cc-pVDZ          selected for orbital group  1
 Library entry N      P aug-cc-pVDZ          selected for orbital group  1
 Library entry N      D aug-cc-pVDZ          selected for orbital group  1
 Library entry H      S aug-cc-pVDZ          selected for orbital group  2
 Library entry H      P aug-cc-pVDZ          selected for orbital group  2
 Library entry C      S aug-cc-pVDZ          selected for orbital group  3
 Library entry C      P aug-cc-pVDZ          selected for orbital group  3
 Library entry C      D aug-cc-pVDZ          selected for orbital group  3


 PROGRAM * SEWARD (Integral evaluation for generally contracted gaussian basis sets)     Author: Roland Lindh, 1990

 Geometry written to block  1 of record 700


 Point group  C1  



 ATOMIC COORDINATES

 NR  ATOM    CHARGE       X              Y              Z

   1  N       7.00    0.235402532   -0.761914808   -1.543915050
   2  H       1.00    2.106986298   -1.162943276   -1.596964336
   3  H       1.00   -0.662193898   -2.442913747   -1.398717602
   4  C       6.00   -0.298126224    0.753176924    0.701523004
   5  H       1.00   -2.312279719    1.158160945    0.795607651
   6  H       1.00    0.259329609   -0.104118039    2.500489181
   7  H       1.00    0.670881402    2.560552001    0.541977154

 Bond lengths in Bohr (Angstrom)

 1-2  1.914801256  1-3  1.911156477  1-4  2.760823780  4-5  2.056618166  4-6  2.069297215
     ( 1.013269188)     ( 1.011340454)     ( 1.460965028)     ( 1.088315465)     ( 1.095024929)

 4-7  2.056948060
     ( 1.088490038)

 Bond angles

  1-4-5  109.54406629   1-4-6  115.31871979   1-4-7  109.15197352   2-1-3  106.07836562

  2-1-4  109.04774565   3-1-4  109.27730371   5-4-6  107.79679288   5-4-7  106.97091570

  6-4-7  107.73101274

 NUCLEAR CHARGE:                   18
 NUMBER OF PRIMITIVE AOS:         129
 NUMBER OF SYMMETRY AOS:          125
 NUMBER OF CONTRACTIONS:           91   (   91A   )
 NUMBER OF INNER CORE ORBITALS:     0   (    0A   )
 NUMBER OF OUTER CORE ORBITALS:     2   (    2A   )
 NUMBER OF VALENCE ORBITALS:       13   (   13A   )


 NUCLEAR REPULSION ENERGY   42.10593245

 Eigenvalues of metric

         1 0.506E-03 0.627E-03 0.707E-03 0.846E-03 0.122E-02 0.129E-02 0.296E-02 0.448E-02


 Contracted 2-electron integrals neglected if value below      1.0D-11
 AO integral compression algorithm  1   Integral accuracy      1.0D-11

     48.234 MB (compressed) written to integral file ( 56.6%)


 NUMBER OF SORTED TWO-ELECTRON INTEGRALS:    8763391.     BUFFER LENGTH:  32768
 NUMBER OF SEGMENTS:   1  SEGMENT LENGTH:    8763391      RECORD LENGTH: 524288

 Memory used in sort:       9.32 MW

 SORT1 READ    10676406. AND WROTE     8692348. INTEGRALS IN     25 RECORDS. CPU TIME:     0.06 SEC, REAL TIME:     0.09 SEC
 SORT2 READ     8692348. AND WROTE     8763391. INTEGRALS IN    184 RECORDS. CPU TIME:     0.10 SEC, REAL TIME:     0.13 SEC

 FILE SIZES:   FILE 1:    78.6 MBYTE,  FILE 4:   104.9 MBYTE,   TOTAL:    183.6 MBYTE

 OPERATOR DM      FOR CENTER  0  COORDINATES:    0.000000    0.000000    0.000000


 **********************************************************************************************************************************
 DATASETS  * FILE   NREC   LENGTH (MB)   RECORD NAMES
              1      19       67.57       500      610      700      900      950      970     1000      129      960     1100   
                                          VAR    BASINP    GEOM    SYMINP    ZMAT    AOBASIS   BASIS     P2S    ABASIS      S 
                                         1400     1410     1200     1210     1080     1600     1650     1300     1700   
                                           T        V       H0       H01     AOSYM     SMH    MOLCAS    ERIS     OPER   

 PROGRAMS   *        TOTAL       INT
 CPU TIMES  *         0.60      0.50
 REAL TIME  *         1.01 SEC
 DISK USED  *       175.49 MB
 **********************************************************************************************************************************


 Program * Restricted Hartree-Fock

 Orbital guess generated from atomic densities. Full valence occupancy:   15

 Initial occupancy:   9

 NELEC=   18   SYM=1   MS2= 0   THRE=1.0D-08   THRD=3.2D-06   THRG=3.2D-06  HFMA2=F  DIIS_START=2   DIIS_MAX=10   DIIS_INCORE=F

 Level shifts:    0.00 (CLOSED)    0.00 (OPEN)    0.30 (GAP_MIN)

 ITER           ETOT              DE          GRAD        DDIFF     DIIS  NEXP   TIME(IT)  TIME(TOT)  DIAG
   1      -95.20174673     -95.20174673     0.00D+00     0.86D-01     0     0       0.03      0.06    start
   2      -95.22665635      -0.02490962     0.55D-02     0.93D-02     1     0       0.04      0.10    diag
   3      -95.23010044      -0.00344409     0.22D-02     0.28D-02     2     0       0.04      0.14    diag
   4      -95.23060269      -0.00050225     0.68D-03     0.11D-02     3     0       0.03      0.17    diag
   5      -95.23062537      -0.00002269     0.13D-03     0.21D-03     4     0       0.04      0.21    diag
   6      -95.23062682      -0.00000144     0.29D-04     0.58D-04     5     0       0.04      0.25    diag
   7      -95.23062692      -0.00000010     0.81D-05     0.15D-04     6     0       0.03      0.28    diag
   8      -95.23062693      -0.00000001     0.22D-05     0.64D-05     7     0       0.04      0.32    fixocc
   9      -95.23062693      -0.00000000     0.55D-06     0.15D-05     8     0       0.03      0.35    diag
  10      -95.23062693      -0.00000000     0.11D-06     0.22D-06     0     0       0.04      0.39    diag/orth

 Final occupancy:   9

 !RHF STATE 1.1 Energy                -95.230626931147
  RHF One-electron energy            -211.476320924764
  RHF Two-electron energy              74.139761548526
  RHF Kinetic energy                   95.085258542923
  RHF Nuclear energy                   42.105932445091
  RHF Virial quotient                  -1.001528821507

 !RHF STATE 1.1 Dipole moment           0.16933539    -0.29341303     0.45989291
 Dipole moment /Debye                   0.43040764    -0.74578152     1.16893118

 Orbital energies:

           1.1          2.1          3.1          4.1          5.1          6.1          7.1          8.1          9.1         10.1
    -15.549042   -11.247624    -1.174033    -0.896783    -0.663056    -0.604067    -0.555387    -0.515593    -0.392815     0.035723

          11.1
      0.051452


 HOMO      9.1    -0.392815 =     -10.6891eV
 LUMO     10.1     0.035723 =       0.9721eV
 LUMO-HOMO         0.428539 =      11.6611eV

 Orbitals saved in record  2100.2


 **********************************************************************************************************************************
 DATASETS  * FILE   NREC   LENGTH (MB)   RECORD NAMES
              1      19       67.57       500      610      700      900      950      970     1000      129      960     1100   
                                          VAR    BASINP    GEOM    SYMINP    ZMAT    AOBASIS   BASIS     P2S    ABASIS      S 
                                         1400     1410     1200     1210     1080     1600     1650     1300     1700   
                                           T        V       H0       H01     AOSYM     SMH    MOLCAS    ERIS     OPER   

              2       4        0.61       700     1000      520     2100   
                                         GEOM     BASIS   MCVARS     RHF  

 PROGRAMS   *        TOTAL    HF-SCF       INT
 CPU TIMES  *         0.99      0.39      0.50
 REAL TIME  *         1.61 SEC
 DISK USED  *       175.49 MB
 **********************************************************************************************************************************


 Program * Restricted Hartree-Fock

 Molecular orbitals read from record     2100.2  Type=RHF/CANONICAL  

 Initial occupancy:   9

 NELEC=   18   SYM=1   MS2= 0   THRE=1.0D-08   THRD=3.2D-06   THRG=3.2D-06  HFMA2=F  DIIS_START=2   DIIS_MAX=10   DIIS_INCORE=F

 Level shifts:    0.00 (CLOSED)    0.00 (OPEN)    0.30 (GAP_MIN)

 ITER           ETOT              DE          GRAD        DDIFF     DIIS  NEXP   TIME(IT)  TIME(TOT)  DIAG
   1      -95.23062693     -95.23062693     0.00D+00     0.89D-01     0     0       0.04      0.04    start
   2      -95.23062693      -0.00000000     0.51D-07     0.90D-07     1     0       0.03      0.07    diag

 Final occupancy:   9

 !RHF STATE 1.1 Energy                -95.230626931153
  RHF One-electron energy            -211.476322950700
  RHF Two-electron energy              74.139763574456
  RHF Kinetic energy                   95.085258785400
  RHF Nuclear energy                   42.105932445091
  RHF Virial quotient                  -1.001528818953

 !RHF STATE 1.1 Dipole moment           0.16933569    -0.29341345     0.45989426
 Dipole moment /Debye                   0.43040840    -0.74578259     1.16893460

 Orbital energies:

           1.1          2.1          3.1          4.1          5.1          6.1          7.1          8.1          9.1         10.1
    -15.549042   -11.247624    -1.174033    -0.896783    -0.663056    -0.604067    -0.555387    -0.515592    -0.392816     0.035723

          11.1
      0.051452


 HOMO      9.1    -0.392816 =     -10.6891eV
 LUMO     10.1     0.035723 =       0.9721eV
 LUMO-HOMO         0.428539 =      11.6611eV

 Orbitals saved in record  2101.2


 **********************************************************************************************************************************
 DATASETS  * FILE   NREC   LENGTH (MB)   RECORD NAMES
              1      19       67.57       500      610      700      900      950      970     1000      129      960     1100   
                                          VAR    BASINP    GEOM    SYMINP    ZMAT    AOBASIS   BASIS     P2S    ABASIS      S 
                                         1400     1410     1200     1210     1080     1600     1650     1300     1700   
                                           T        V       H0       H01     AOSYM     SMH    MOLCAS    ERIS     OPER   

              2       5        0.93       700     1000      520     2100     2101   
                                         GEOM     BASIS   MCVARS     RHF      RHF  

 PROGRAMS   *        TOTAL    HF-SCF    HF-SCF       INT
 CPU TIMES  *         1.07      0.08      0.39      0.50
 REAL TIME  *         1.76 SEC
 DISK USED  *       175.49 MB
 **********************************************************************************************************************************


 PROGRAM * PAPT (Closed-shell)     Authors: C. Hampel, H.-J. Werner, 1991, P.J. Knowles, 2021


 Convergence thresholds:  THRVAR = 1.00D-08  THRDEN = 1.00D-06

 Number of core orbitals:           2 (   2 )
 Number of closed-shell orbitals:   7 (   7 )
 Number of external orbitals:      82 (  82 )

 Molecular orbitals read from record     2101.2  Type=RHF/CANONICAL  

 Number of N-1 electron functions:               7
 Number of N-2 electron functions:              28
 Number of singly external CSFs:               574
 Number of doubly external CSFs:            165025
 Total number of CSFs:                      165600

 Length of J-op  integral file:               0.00 MB
 Length of K-op  integral file:               0.63 MB

 Integral transformation finished. Total CPU:   0.05 sec, npass=  1  Memory used:   0.58 MW

 Reference energy:                    -95.23062693

                        CORR.ENERGY   TOTAL ENERGY   ENERGY CHANGE
 MP2:                   -0.34249026   -95.57311719    -0.34249026

 SCS-MP2 correlation energy:           -0.34336716   (PS=  1.200000  PT=  0.333333)
 SCS-MP2 total energy:                -95.57399409
 Iteration:   1     0.1853D+00
 Iteration:   2     0.3208D+00
 Iteration:   3     0.5994D-01
 Iteration:   4     0.3490D-01
 Iteration:   5     0.2127D-01
 Iteration:   6     0.9141D-02
 Iteration:   7     0.9971D-01
 Iteration:   8     0.2849D-02
 Iteration:   9     0.2814D-02
 Iteration:  10     0.3059D-02
 Iteration:  11     0.1172D-02
 Iteration:  12     0.6413D-02
 Iteration:  13     0.4440D-03
 Iteration:  14     0.5423D-03
 Iteration:  15     0.3008D-03
 Iteration:  16     0.9617D-04
 PAPT operator written to  7000.1
 PAPT orbitals and eigenvalues written to  7000.2

 MP3(D):                -0.36755270   -95.59817963    -0.02506244



 RESULTS
 =======

  Reference energy                    -95.230626931153
  MP3 singlet pair energy              -0.255281502695
  MP3 triplet pair energy              -0.112271198213
  MP3 correlation energy               -0.367552700908

 !MP3 total energy                    -95.598179632061

 Timing summary (sec):

 STEP                 CPU(USER)    SYS     CPU(TOT)    WALL
 Transformation          0.05      0.01      0.06      0.15
 CCSD iterations         1.61      0.03      1.64      0.52

 Program statistics:

 Available memory in ccsd:               805306163
 Min. memory needed in ccsd:                547472
 Max. memory used in ccsd:                  678351
 Max. memory used in cckext:                543688 ( 1 integral passes)



 **********************************************************************************************************************************
 DATASETS  * FILE   NREC   LENGTH (MB)   RECORD NAMES
              1      21       70.39       500      610      700      900      950      970     1000      129      960     1100   
                                          VAR    BASINP    GEOM    SYMINP    ZMAT    AOBASIS   BASIS     P2S    ABASIS      S 
                                         1400     1410     1200     1210     1080     1600     1650     1300     1700     1380   
                                           T        V       H0       H01     AOSYM     SMH    MOLCAS    ERIS     OPER     JKOP   
                                         7000   
                                        PAPT AO    

              2       6        1.22       700     1000      520     2100     2101     7000   
                                         GEOM     BASIS   MCVARS     RHF      RHF     PAPT   

 PROGRAMS   *        TOTAL      PAPT    HF-SCF    HF-SCF       INT
 CPU TIMES  *         1.56      0.48      0.08      0.39      0.50
 REAL TIME  *         2.46 SEC
 DISK USED  *       175.49 MB
 **********************************************************************************************************************************


 PROGRAM * MP4 (Closed-shell)     Authors: C. Hampel, H.-J. Werner, 1991, M. Deegan, P.J. Knowles, 1992


 Convergence thresholds:  THRVAR = 1.00D-08  THRDEN = 1.00D-06

 MP4(T)     terms to be evaluated (factor= 0.000)


 Number of core orbitals:           2 (   2 )
 Number of closed-shell orbitals:   7 (   7 )
 Number of external orbitals:      82 (  82 )

 Molecular orbitals read from record     7000.2  Type=PAPT/CANONICAL (state 1.1)

 Number of N-1 electron functions:               7
 Number of N-2 electron functions:              28
 Number of singly external CSFs:               574
 Number of doubly external CSFs:            165025
 Total number of CSFs:                      165600

 Length of J-op  integral file:               0.00 MB
 Length of K-op  integral file:               0.63 MB

 Memory could be reduced to 5.79 Mwords without degradation in triples

 Integral transformation finished. Total CPU:   0.17 sec, npass=  1  Memory used:   3.63 MW
 Orbital energies read from record       7000.2  Type=PAPT/CANONICAL (state 1.1)

 Reference energy:                    -95.23062693

                        CORR.ENERGY   TOTAL ENERGY   ENERGY CHANGE
 MP2:                   -0.37230747   -95.60293440    -0.37230747

 SCS-MP2 correlation energy:           -0.37531423   (PS=  1.200000  PT=  0.333333)
 SCS-MP2 total energy:                -95.60594116

 MP3(D):                -0.37247223   -95.60309916    -0.00016476
 MP4(DQ):               -0.36970510   -95.60033203     0.00276713
 MP4(SDQ):              -0.37178241   -95.60240934    -0.00207731

 Norm of t1 vector:      0.03877111      S-energy:    -0.00207731      T1 diagnostic:  0.00732705

 Largest off-diagonal element in interal  block of Fock matrix:  0.86D-01
 Largest off-diagonal element in external block of Fock matrix:  0.19D+00


 Total CPU time for triples:      1.24 sec


 RESULTS
 =======

  Reference energy                    -95.230626931153
  MP4(SDQ) singlet pair energy         -0.257903816411
  MP4(SDQ) triplet pair energy         -0.111801280744
  MP4(SDQ) correlation energy          -0.371782409773

  Triples contribution                 -0.012500128271
  Total correlation energy             -0.384282538044

  MP4(SDQ) total energy               -95.602409340926
 !MP4(SDTQ) total energy              -95.614909469197

 Timing summary (sec):

 STEP                 CPU(USER)    SYS     CPU(TOT)    WALL
 Transformation          0.21      0.02      0.23      0.31
 CCSD iterations         1.87      0.01      1.88      0.26
 Triples                 1.24      0.07      1.31      1.42

 Program statistics:

 Available memory in ccsd:               805306163
 Min. memory needed in ccsd:                547472
 Max. memory used in ccsd:                  678351
 Max. memory used in cckext:                543688 ( 1 integral passes)



 **********************************************************************************************************************************
 DATASETS  * FILE   NREC   LENGTH (MB)   RECORD NAMES
              1      22       85.30       500      610      700      900      950      970     1000      129      960     1100   
                                          VAR    BASINP    GEOM    SYMINP    ZMAT    AOBASIS   BASIS     P2S    ABASIS      S 
                                         1400     1410     1200     1210     1080     1600     1650     1300     1700     1380   
                                           T        V       H0       H01     AOSYM     SMH    MOLCAS    ERIS     OPER     JKOP   
                                         7000     1380(1)
                                        PAPT AO   JKOP   

              2       6        1.22       700     1000      520     2100     2101     7000   
                                         GEOM     BASIS   MCVARS     RHF      RHF     PAPT   

 PROGRAMS   *        TOTAL       MP4      PAPT    HF-SCF    HF-SCF       INT
 CPU TIMES  *         3.24      1.68      0.48      0.08      0.39      0.50
 REAL TIME  *         4.53 SEC
 DISK USED  *       175.49 MB
 **********************************************************************************************************************************

 Dump information in style XML to xml output                                                                      

 Orbitals will not be exported.

 **********************************************************************************************************************************

 MP4/aug-cc-pVDZ energy=    -95.614909469197

             MP4            PAPT          HF-SCF          HF-SCF
    -95.61490947    -95.59817963    -95.23062693    -95.23062693
 **********************************************************************************************************************************
 Molpro calculation terminated
