
 Working directory              : /var/folders/2v/xbgp75_9785319ghcgb4zr4r0000gp/T//molpro.Mlxbbm0sWv/
 Global scratch directory       : /var/folders/2v/xbgp75_9785319ghcgb4zr4r0000gp/T//molpro.Mlxbbm0sWv/
 Wavefunction directory         : /Users/sacpjk/wfu/
 Main file repository           : /var/folders/2v/xbgp75_9785319ghcgb4zr4r0000gp/T//molpro.Mlxbbm0sWv/

 id        : peterk

 Nodes                        nprocs
 Cardiff-University-G34YLXT77Y    1
 GA implementation: MPI file
 GA implementation (serial work in mppx): MPI file

 Using customized tuning parameters: mindgm=1; mindgv=20; mindgc=4; mindgr=1; noblas=0; minvec=7
 default implementation of scratch files=df  


 Variables initialized (1032), CPU time= 0.00 sec
 
 symmetry,nosym
 
 
 geometry={
            6
     N         -0.92591642     -0.19600844     -0.21712272
     O          1.40408804     -0.24477239     -0.12485395
     H         -1.07828243     -0.69971666      0.65200752
     H         -1.11401248      0.78373122     -0.02270988
     H          0.19421422     -0.30591036     -0.46774795
     H          1.51990907      0.66267663      0.18042698
 }
 basis=cc-pVDZ
 
 
 spin=1
 uhf
 
 
 
 {put,xml;noorbitals,nobasis}
 Commands initialized (841), CPU time= 0.01 sec, 704 directives.
 Default parameters read. Elapsed time= 0.11 sec

 Checking input...
 Passed
1


                                         ***  PROGRAM SYSTEM MOLPRO  ***
                                       Copyright, TTI GmbH Stuttgart, 2015
                                    Version 2023.1 linked Tue Jun  6 09:54:11 2023


 **********************************************************************************************************************************
 LABEL *                                                                                                                                                                 
  64 bit serial version                                                                  DATE: 09-Jun-23          TIME: 09:26:46  
 **********************************************************************************************************************************

 SHA1:             8ebb0dd001088a5c915591db1a321413035db0b1
 **********************************************************************************************************************************

 Memory per process:       805 MW
 Total memory per node:   1074 MW
 Total GA space:           268 MW

 GA preallocation disabled
 GA check enabled

 Variable memory set to 805.3 MW

 ZSYMEL=NOSYM


 Geometry recognized as XYZ

 SETTING BASIS          =    CC-PVDZ
 SETTING SPIN           =         1.00000000                                  


 Recomputing integrals since basis changed


 Using spherical harmonics

 Library entry N      S cc-pVDZ              selected for orbital group  1
 Library entry N      P cc-pVDZ              selected for orbital group  1
 Library entry N      D cc-pVDZ              selected for orbital group  1
 Library entry O      S cc-pVDZ              selected for orbital group  2
 Library entry O      P cc-pVDZ              selected for orbital group  2
 Library entry O      D cc-pVDZ              selected for orbital group  2
 Library entry H      S cc-pVDZ              selected for orbital group  3
 Library entry H      P cc-pVDZ              selected for orbital group  3


 PROGRAM * SEWARD (Integral evaluation for generally contracted gaussian basis sets)     Author: Roland Lindh, 1990

 Geometry written to block  1 of record 700


 Point group  C1  



 ATOMIC COORDINATES

 NR  ATOM    CHARGE       X              Y              Z

   1  N       7.00   -1.749728448   -0.370402270   -0.410302476
   2  O       8.00    2.653341850   -0.462552780   -0.235939771
   3  H       1.00   -2.037658478   -1.322272852    1.232115644
   4  H       1.00   -2.105178487    1.481037361   -0.042915454
   5  H       1.00    0.367011685   -0.578086799   -0.883915521
   6  H       1.00    2.872211877    1.252277340    0.340957578

 Bond lengths in Bohr (Angstrom)

 1-3  1.920025674  1-4  1.920715143  1-5  2.178997699  2-5  2.379186060  2-6  1.822459047
     ( 1.016033831)     ( 1.016398682)     ( 1.153075925)     ( 1.259011043)     ( 0.964403796)

 Bond angles

  1-5-2  150.42263349   3-1-4  106.64888783   3-1-5  106.52015377   4-1-5  108.25354967

  5-2-6  104.31862493

 NUCLEAR CHARGE:                   19
 NUMBER OF PRIMITIVE AOS:          82
 NUMBER OF SYMMETRY AOS:           80
 NUMBER OF CONTRACTIONS:           48   (   48A   )
 NUMBER OF INNER CORE ORBITALS:     0   (    0A   )
 NUMBER OF OUTER CORE ORBITALS:     2   (    2A   )
 NUMBER OF VALENCE ORBITALS:       12   (   12A   )


 NUCLEAR REPULSION ENERGY   37.13898379

 Eigenvalues of metric

         1 0.148E-01 0.189E-01 0.402E-01 0.408E-01 0.445E-01 0.520E-01 0.659E-01 0.775E-01


 Contracted 2-electron integrals neglected if value below      1.0D-11
 AO integral compression algorithm  1   Integral accuracy      1.0D-11

     3.932 MB (compressed) written to integral file ( 55.8%)


 NUMBER OF SORTED TWO-ELECTRON INTEGRALS:     692076.     BUFFER LENGTH:  32768
 NUMBER OF SEGMENTS:   1  SEGMENT LENGTH:     692076      RECORD LENGTH: 524288

 Memory used in sort:       1.25 MW

 SORT1 READ      832256. AND WROTE      682007. INTEGRALS IN      2 RECORDS. CPU TIME:     0.01 SEC, REAL TIME:     0.01 SEC
 SORT2 READ      682007. AND WROTE      692076. INTEGRALS IN     15 RECORDS. CPU TIME:     0.02 SEC, REAL TIME:     0.02 SEC

 FILE SIZES:   FILE 1:    34.1 MBYTE,  FILE 4:     8.5 MBYTE,   TOTAL:     42.5 MBYTE

 OPERATOR DM      FOR CENTER  0  COORDINATES:    0.000000    0.000000    0.000000


 **********************************************************************************************************************************
 DATASETS  * FILE   NREC   LENGTH (MB)   RECORD NAMES
              1      19       31.69       500      610      700      900      950      970     1000      129      960     1100   
                                          VAR    BASINP    GEOM    SYMINP    ZMAT    AOBASIS   BASIS     P2S    ABASIS      S 
                                         1400     1410     1200     1210     1080     1600     1650     1300     1700   
                                           T        V       H0       H01     AOSYM     SMH    MOLCAS    ERIS     OPER   

 PROGRAMS   *        TOTAL       INT
 CPU TIMES  *         0.23      0.15
 REAL TIME  *         0.92 SEC
 DISK USED  *        40.97 MB
 **********************************************************************************************************************************


 Program * Unrestricted Hartree-Fock

 Orbital guess generated from atomic densities. Full valence occupancy:   14

 Initial alpha occupancy:  10
 Initial beta  occupancy:   9

 Elapsed time for starting guess:      0.00 sec

 NELEC=   19   SYM=1   MS2=1   THRE=1.0D-08   THRD=3.2D-06   THRG=3.2D-06  HFMA2=F  DIIS_START=2   DIIS_MAX=10   DIIS_INCORE=F

 Initial level shifts:    0.20 (ALPHA)    0.20 (BETA)

 ITER         ETOT            DE          GRAD         DDIFF    DIIS  NEXP   TIME(IT)  TIME(TOT)  DIAG
   1   -131.46161449  -131.46161449     0.00D+00     0.00D+00     0     0       0.00      0.00    start
   2   -131.51943675    -0.05782226     0.15D-01     0.16D+00     1     0       0.01      0.01    diag
   3   -131.53418380    -0.01474705     0.74D-02     0.25D-01     2     0       0.00      0.01    diag
   4   -131.53717463    -0.00299083     0.20D-02     0.85D-02     3     0       0.01      0.02    diag
   5   -131.53884832    -0.00167369     0.13D-02     0.24D-02     4     0       0.00      0.02    diag
   6   -131.54039668    -0.00154836     0.95D-03     0.14D-02     5     0       0.01      0.03    diag
   7   -131.54170206    -0.00130539     0.84D-03     0.14D-02     6     0       0.00      0.03    diag
   8   -131.54394313    -0.00224107     0.77D-03     0.14D-02     7     0       0.00      0.03    diag
   9   -131.54512522    -0.00118209     0.69D-03     0.28D-02     8     0       0.01      0.04    diag
  10   -131.54699459    -0.00186937     0.58D-03     0.16D-02     9     0       0.00      0.04    diag/ort
  11   -131.54737036    -0.00037578     0.68D-03     0.44D-02     9     0       0.01      0.05    diag
  12   -131.54756111    -0.00019074     0.27D-03     0.81D-03     9     0       0.00      0.05    diag
  13   -131.54760745    -0.00004634     0.21D-03     0.12D-02     9     0       0.01      0.06    diag
  14   -131.54762249    -0.00001504     0.94D-04     0.35D-03     9     0       0.00      0.06    diag
  15   -131.54762735    -0.00000486     0.61D-04     0.27D-03     9     0       0.00      0.06    diag
  16   -131.54763015    -0.00000280     0.37D-04     0.95D-04     9     0       0.01      0.07    diag
  17   -131.54763222    -0.00000207     0.28D-04     0.75D-04     9     0       0.00      0.07    diag
  18   -131.54763389    -0.00000167     0.23D-04     0.72D-04     9     0       0.01      0.08    diag
  19   -131.54763487    -0.00000097     0.16D-04     0.69D-04     9     0       0.00      0.08    diag
  20   -131.54763528    -0.00000042     0.12D-04     0.63D-04     9     0       0.01      0.09    diag/ort
  21   -131.54763543    -0.00000015     0.81D-05     0.43D-04     9     0       0.00      0.09    diag
  22   -131.54763546    -0.00000002     0.48D-05     0.31D-04     9     0       0.00      0.09    diag
  23   -131.54763546    -0.00000001     0.22D-05     0.89D-05     9     0       0.01      0.10    diag
  24   -131.54763547    -0.00000000     0.11D-05     0.70D-05     9     0       0.00      0.10    diag

 Final alpha occupancy:  10
 Final beta  occupancy:   9

 !UHF STATE 1.1 Energy               -131.547635465134
  UHF One-electron energy            -253.866641391728
  UHF Two-electron energy              85.180022137602
  UHF Kinetic energy                  131.478402749752
  UHF Nuclear energy                   37.138983788992
  UHF Virial quotient                  -1.000526571010

 !UHF STATE 1.1 Dipole moment           0.03712862     0.83796290     0.67085505
 Dipole moment /Debye                   0.09437153     2.12988925     1.70514345

 EXPECTATION VALUE OF S**2:             0.78933864

 Orbital energies for positive spin:

           1.1          2.1          3.1          4.1          5.1          6.1          7.1          8.1          9.1         10.1
    -20.614805   -15.569684    -1.382919    -1.152796    -0.737883    -0.654450    -0.634247    -0.548353    -0.517929    -0.443753

          11.1         12.1
      0.166703     0.226971

 Orbital energies for negative spin:

           1.1          2.1          3.1          4.1          5.1          6.1          7.1          8.1          9.1         10.1
    -20.581713   -15.552863    -1.270212    -1.092309    -0.671450    -0.625696    -0.561420    -0.497369    -0.396723     0.074934

          11.1
      0.175484


 HOMO     -9.1    -0.396723 =     -10.7954eV
 LUMO    -10.1     0.074934 =       2.0391eV
 LUMO-HOMO         0.471657 =      12.8344eV

 Orbitals saved in record  2200.2

 Occupation number threshold for pseudo-canonical orbitals: 1.9990 (occupied), 0.0010 (virtual)

 Number of pseudo-canonical occupied orbitals per symmetry:    7
 Number of active natural orbitals per symmetry:               5

 Natural orbitals saved to record    2200.2 (Orbital set 3)

 Orbital spaces for UNO-CAS (Min. occupation: 0.020  Max. occupation: 1.980):

 Closed:        9
 Active:        1


 **********************************************************************************************************************************
 DATASETS  * FILE   NREC   LENGTH (MB)   RECORD NAMES
              1      19       31.69       500      610      700      900      950      970     1000      129      960     1100   
                                          VAR    BASINP    GEOM    SYMINP    ZMAT    AOBASIS   BASIS     P2S    ABASIS      S 
                                         1400     1410     1200     1210     1080     1600     1650     1300     1700   
                                           T        V       H0       H01     AOSYM     SMH    MOLCAS    ERIS     OPER   

              2       4        0.56       700     1000      520     2200   
                                         GEOM     BASIS   MCVARS     UHF  

              4       3        0.46      2900     3000     3100   

 PROGRAMS   *        TOTAL   UHF-SCF       INT
 CPU TIMES  *         0.33      0.10      0.15
 REAL TIME  *         1.25 SEC
 DISK USED  *        40.97 MB
 **********************************************************************************************************************************

 Dump information in style XML to xml output                                                                      

 Orbitals will not be exported.

 **********************************************************************************************************************************

 UHF/cc-pVDZ energy=   -131.547635465134

         UHF-SCF
   -131.54763547
 **********************************************************************************************************************************
 Molpro calculation terminated
