
 Working directory              : /var/folders/2v/xbgp75_9785319ghcgb4zr4r0000gp/T//molpro.EJcrhdTbvD/
 Global scratch directory       : /var/folders/2v/xbgp75_9785319ghcgb4zr4r0000gp/T//molpro.EJcrhdTbvD/
 Wavefunction directory         : /Users/sacpjk/wfu/
 Main file repository           : /var/folders/2v/xbgp75_9785319ghcgb4zr4r0000gp/T//molpro.EJcrhdTbvD/

 id        : peterk

 Nodes                        nprocs
 Cardiff-University-G34YLXT77Y    1
 GA implementation: MPI file
 GA implementation (serial work in mppx): MPI file

 Using customized tuning parameters: mindgm=1; mindgv=20; mindgc=4; mindgr=1; noblas=0; minvec=7
 default implementation of scratch files=df  


 Variables initialized (1032), CPU time= 0.00 sec
 
 symmetry,nosym
 
 
 geometry={
           11
     O         -2.19295200      0.62684476     -0.92850834
     S         -1.26210570     -0.30855216     -0.04450021
     O         -1.03795246      0.29959206      1.25082562
     O         -1.75626085     -1.63296059     -0.19472255
     O          0.11654403     -0.10789624     -0.91318750
     S          1.60009692     -0.36655700     -0.13981114
     O          1.61686029      0.86635260      0.85542567
     O          1.49345586     -1.60323615      0.57240287
     O          2.55438785     -0.10150256     -1.16106689
     H         -1.97235642      1.56419594     -0.75763447
     H          0.84028248      0.76371933      1.46077695
 }
 basis=cc-pVTZ
 
 
 
 hf; ccsd
 
 
 
 {put,xml;noorbitals,nobasis}
 Commands initialized (841), CPU time= 0.00 sec, 704 directives.
 Default parameters read. Elapsed time= 1.25 sec

 Checking input...
 Passed
1


                                         ***  PROGRAM SYSTEM MOLPRO  ***
                                       Copyright, TTI GmbH Stuttgart, 2015
                                    Version 2023.1 linked Tue Jun  6 09:54:11 2023


 **********************************************************************************************************************************
 LABEL *                                                                                                                                                                 
  64 bit serial version                                                                  DATE: 13-Jun-23          TIME: 04:32:17  
 **********************************************************************************************************************************

 SHA1:             8ebb0dd001088a5c915591db1a321413035db0b1
 **********************************************************************************************************************************

 Memory per process:       393 MW
 Total memory per node:    524 MW
 Total GA space:           131 MW

 GA preallocation disabled
 GA check enabled

 Variable memory set to 393.2 MW

 ZSYMEL=NOSYM


 Geometry recognized as XYZ

 SETTING BASIS          =    CC-PVTZ


 Recomputing integrals since basis changed


 Using spherical harmonics

 Library entry O      S cc-pVTZ              selected for orbital group  1
 Library entry O      P cc-pVTZ              selected for orbital group  1
 Library entry O      D cc-pVTZ              selected for orbital group  1
 Library entry O      F cc-pVTZ              selected for orbital group  1
 Library entry S      S cc-pVTZ              selected for orbital group  2
 Library entry S      P cc-pVTZ              selected for orbital group  2
 Library entry S      D cc-pVTZ              selected for orbital group  2
 Library entry S      F cc-pVTZ              selected for orbital group  2
 Library entry H      S cc-pVTZ              selected for orbital group  6
 Library entry H      P cc-pVTZ              selected for orbital group  6
 Library entry H      D cc-pVTZ              selected for orbital group  6


 PROGRAM * SEWARD (Integral evaluation for generally contracted gaussian basis sets)     Author: Roland Lindh, 1990

 Geometry written to block  1 of record 700


 Point group  C1  



 ATOMIC COORDINATES

 NR  ATOM    CHARGE       X              Y              Z

   1  O       8.00   -4.144078684    1.184564919   -1.754626467
   2  S      16.00   -2.385034113   -0.583079078   -0.084093209
   3  O       8.00   -1.961445880    0.566146943    2.363717851
   4  O       8.00   -3.318852010   -3.085848287   -0.367972290
   5  O       8.00    0.220236298   -0.203894343   -1.725674275
   6  S      16.00    3.023744952   -0.692692339   -0.264204764
   7  O       8.00    3.055423130    1.637169141    1.616520236
   8  O       8.00    2.822222555   -3.029677237    1.081684657
   9  O       8.00    4.827093453   -0.191812039   -2.194098434
  10  H       1.00   -3.727213454    2.955901932   -1.431721651
  11  H       1.00    1.587903755    1.443220370    2.760468365

 Bond lengths in Bohr (Angstrom)

  1- 2  3.001580328   1-10  1.848155554   2- 3  2.737138365   2- 4  2.686346388   2- 5  3.102580116
       ( 1.588367906)       ( 0.978001802)       ( 1.448431246)       ( 1.421553289)       ( 1.641814692)

 2-6  5.412887050  5-6  3.199136975  6-7  2.994392184  6-8  2.704353531  6-9  2.688389196
     ( 2.864376472)     ( 1.692910382)     ( 1.584564104)     ( 1.431082259)     ( 1.422634297)

  7-11  1.870787685
       ( 0.989978210)

 Bond angles

  1-2-3  109.94723542   1-2-4  106.62641068   1-2-5   97.21875131   1-2-6  125.38032811

  2- 1-10  109.57265543   2- 5- 6  118.39072900   2- 6- 5   30.28121818   2- 6- 7   88.50530516

  2-6-8   85.78371770   2-6-9  133.66146713   3-2-4  122.64769827   3-2-5  106.97229686

  3-2-6   83.31684828   4-2-5  110.47805244   4-2-6  108.96373749   5-2-6   31.32805283

  5- 6- 7  100.21350724   5- 6- 8  107.10278265   5- 6- 9  103.38109508   6- 7-11  107.16329088

  7-6-8  111.13618470   7-6-9  107.38646288   8-6-9  124.62837059

 NUCLEAR CHARGE:                   90
 NUMBER OF PRIMITIVE AOS:         491
 NUMBER OF SYMMETRY AOS:          444
 NUMBER OF CONTRACTIONS:          306   (  306A   )
 NUMBER OF INNER CORE ORBITALS:     2   (    2A   )
 NUMBER OF OUTER CORE ORBITALS:    15   (   15A   )
 NUMBER OF VALENCE ORBITALS:       38   (   38A   )


 NUCLEAR REPULSION ENERGY  801.24706141


 Eigenvalues of metric

         1 0.139E-02 0.172E-02 0.194E-02 0.214E-02 0.238E-02 0.242E-02 0.245E-02 0.259E-02


 Contracted 2-electron integrals neglected if value below      1.0D-11
 AO integral compression algorithm  1   Integral accuracy      1.0D-11

     2926.313 MB (compressed) written to integral file ( 32.8%)


 NUMBER OF SORTED TWO-ELECTRON INTEGRALS: 1103160906.     BUFFER LENGTH:  32768
 NUMBER OF SEGMENTS:  35  SEGMENT LENGTH:   31998710      RECORD LENGTH: 524288

 Memory used in sort:      32.56 MW

 SORT1 READ  1113917224. AND WROTE   801813142. INTEGRALS IN   2311 RECORDS. CPU TIME:     7.93 SEC, REAL TIME:    10.41 SEC
 SORT2 READ   801813142. AND WROTE  1103160906. INTEGRALS IN  11163 RECORDS. CPU TIME:     6.22 SEC, REAL TIME:     8.48 SEC

 FILE SIZES:   FILE 1:  2960.0 MBYTE,  FILE 4:  9693.1 MBYTE,   TOTAL:  12653.1 MBYTE

 OPERATOR DM      FOR CENTER  0  COORDINATES:    0.000000    0.000000    0.000000


 **********************************************************************************************************************************
 DATASETS  * FILE   NREC   LENGTH (MB)   RECORD NAMES
              1      19     2515.69       500      610      700      900      950      970     1000      129      960     1100   
                                          VAR    BASINP    GEOM    SYMINP    ZMAT    AOBASIS   BASIS     P2S    ABASIS      S 
                                         1400     1410     1200     1210     1080     1600     1650     1300     1700   
                                           T        V       H0       H01     AOSYM     SMH    MOLCAS    ERIS     OPER   

 PROGRAMS   *        TOTAL       INT
 CPU TIMES  *        37.81     37.72
 REAL TIME  *        48.30 SEC
 DISK USED  *        11.78 GB
 **********************************************************************************************************************************


 Program * Restricted Hartree-Fock

 Orbital guess generated from atomic densities. Full valence occupancy:   55

 Initial occupancy:  45

 NELEC=   90   SYM=1   MS2= 0   THRE=1.0D-08   THRD=3.2D-06   THRG=3.2D-06  HFMA2=F  DIIS_START=2   DIIS_MAX=10   DIIS_INCORE=F

 Level shifts:    0.00 (CLOSED)    0.00 (OPEN)    0.30 (GAP_MIN)

 ITER           ETOT              DE          GRAD        DDIFF     DIIS  NEXP   TIME(IT)  TIME(TOT)  DIAG
   1    -1319.99354851   -1319.99354851     0.00D+00     0.57D-01     0     0       4.76      9.27    start
   2    -1320.18590618      -0.19235767     0.67D-02     0.10D-01     1     0       4.85     14.12    diag
   3    -1320.39385862      -0.20795244     0.51D-02     0.42D-02     2     0       5.01     19.13    diag
   4    -1320.39648480      -0.00262618     0.54D-03     0.67D-03     3     0       5.10     24.23    diag
   5    -1320.39696273      -0.00047793     0.22D-03     0.27D-03     4     0       5.43     29.66    diag
   6    -1320.39699811      -0.00003538     0.52D-04     0.67D-04     5     0       5.36     35.02    diag
   7    -1320.39700240      -0.00000429     0.14D-04     0.26D-04     6     0       5.14     40.16    diag
   8    -1320.39700280      -0.00000040     0.50D-05     0.77D-05     7     0       5.09     45.25    fixocc
   9    -1320.39700286      -0.00000006     0.19D-05     0.29D-05     8     0       5.29     50.54    diag
  10    -1320.39700287      -0.00000001     0.57D-06     0.10D-05     9     0       5.05     55.59    diag/orth
  11    -1320.39700287      -0.00000000     0.16D-06     0.24D-06     0     0       4.91     60.50    diag

 Final occupancy:  45

 !RHF STATE 1.1 Energy              -1320.397002867924
  RHF One-electron energy           -3414.905792497424
  RHF Two-electron energy            1293.261728215954
  RHF Kinetic energy                 1318.702289789092
  RHF Nuclear energy                  801.247061413546
  RHF Virial quotient                  -1.001285136980

 !RHF STATE 1.1 Dipole moment          -0.76383202     1.65837838     0.20804024
 Dipole moment /Debye                  -1.94146735     4.21517739     0.52878554

 Orbital energies:

           1.1          2.1          3.1          4.1          5.1          6.1          7.1          8.1          9.1         10.1
    -92.317690   -92.306823   -20.699171   -20.692485   -20.678207   -20.630622   -20.616928   -20.615865   -20.612146    -9.276382

          11.1         12.1         13.1         14.1         15.1         16.1         17.1         18.1         19.1         20.1
     -9.265724    -6.962626    -6.961855    -6.960681    -6.952177    -6.950871    -6.949793    -1.608036    -1.565850    -1.458450

          21.1         22.1         23.1         24.1         25.1         26.1         27.1         28.1         29.1         30.1
     -1.450368    -1.433339    -1.424159    -1.416908    -0.993856    -0.918830    -0.854624    -0.811770    -0.784869    -0.760260

          31.1         32.1         33.1         34.1         35.1         36.1         37.1         38.1         39.1         40.1
     -0.754381    -0.715493    -0.691790    -0.688177    -0.650167    -0.643313    -0.609079    -0.601464    -0.586487    -0.574824

          41.1         42.1         43.1         44.1         45.1         46.1         47.1
     -0.564345    -0.559662    -0.548764    -0.539124    -0.532762     0.094909     0.153317


 HOMO     45.1    -0.532762 =     -14.4972eV
 LUMO     46.1     0.094909 =       2.5826eV
 LUMO-HOMO         0.627671 =      17.0798eV

 Orbitals saved in record  2100.2


 **********************************************************************************************************************************
 DATASETS  * FILE   NREC   LENGTH (MB)   RECORD NAMES
              1      19     2515.69       500      610      700      900      950      970     1000      129      960     1100   
                                          VAR    BASINP    GEOM    SYMINP    ZMAT    AOBASIS   BASIS     P2S    ABASIS      S 
                                         1400     1410     1200     1210     1080     1600     1650     1300     1700   
                                           T        V       H0       H01     AOSYM     SMH    MOLCAS    ERIS     OPER   

              2       4        2.03       700     1000      520     2100   
                                         GEOM     BASIS   MCVARS     RHF  

 PROGRAMS   *        TOTAL    HF-SCF       INT
 CPU TIMES  *        98.32     60.52     37.72
 REAL TIME  *       117.44 SEC
 DISK USED  *        11.78 GB
 **********************************************************************************************************************************


 PROGRAM * CCSD (Closed-shell coupled cluster)     Authors: C. Hampel, H.-J. Werner, 1991, M. Deegan, P.J. Knowles, 1992


 Convergence thresholds:  THRVAR = 1.00D-08  THRDEN = 1.00D-06

 Number of core orbitals:          17 (  17 )
 Number of closed-shell orbitals:  28 (  28 )
 Number of external orbitals:     261 ( 261 )

 Molecular orbitals read from record     2100.2  Type=RHF/CANONICAL  

 Number of N-1 electron functions:              28
 Number of N-2 electron functions:             406
 Number of singly external CSFs:              7308
 Number of doubly external CSFs:          26707086
 Total number of CSFs:                    26714395

 Length of J-op  integral file:               0.00 MB
 Length of K-op  integral file:               6.49 MB
 Length of 3-ext integral record:             0.00 MB

 Multipassing necessary in transformation. To avoid, increase memory by 85.72 Mwords.

 Integral transformation finished. Total CPU:  65.84 sec, npass=  2  Memory used: 389.20 MW

 Reference energy:                  -1320.39700287

 MP2 singlet pair energy:              -1.21262549
 MP2 triplet pair energy:              -0.83013948
 MP2 correlation energy:               -2.04276497
 MP2 total energy:                  -1322.43976784

 SCS-MP2 correlation energy:           -1.97168182   (PS=  1.200000  PT=  0.333333)
 SCS-MP2 total energy:              -1322.36868469

 ITER.      SQ.NORM     CORR.ENERGY   TOTAL ENERGY   ENERGY CHANGE        DEN1      VAR(S)    VAR(P)  DIIS     TIME  TIME/IT
   1      1.48500583    -2.02845111 -1322.42545398     0.01431386     0.07788085  0.18D-01  0.12D-01  1  1   404.53   233.97
   2      1.51985228    -2.02394682 -1322.42094969     0.00450429    -0.04822243  0.29D-03  0.14D-02  2  2   656.54   241.67
   3      1.53479778    -2.02456771 -1322.42157058    -0.00062089    -0.00695167  0.37D-03  0.66D-04  3  3   905.70   243.29
   4      1.54154422    -2.02399246 -1322.42099533     0.00057525    -0.00285437  0.31D-04  0.12D-04  4  4  1134.31   240.09
   5      1.54453757    -2.02389679 -1322.42089966     0.00009566    -0.00084605  0.43D-05  0.11D-05  5  5  1375.82   239.70
   6      1.54513498    -2.02385045 -1322.42085332     0.00004634    -0.00006176  0.50D-06  0.20D-06  6  6  1626.19   240.60
   7      1.54530987    -2.02383555 -1322.42083842     0.00001490    -0.00000608  0.65D-07  0.32D-07  6  1  1873.45   240.97
   8      1.54535026    -2.02383558 -1322.42083845    -0.00000003    -0.00001516  0.79D-08  0.40D-08  6  2  2115.74   240.72
   9      1.54534725    -2.02383649 -1322.42083936    -0.00000090     0.00000819  0.15D-08  0.60D-09  6  3  2365.09   241.20

 Norm of t1 vector:      0.17498980      S-energy:    -0.00000194      T1 diagnostic:  0.01653498
                                                                       D1 diagnostic:  0.05419194
                                                                       D2 diagnostic:  0.15191620 (external, symmetry=1)


 RESULTS
 =======

  Reference energy                  -1320.397002867919
  CCSD singlet pair energy             -1.298823542519
  CCSD triplet pair energy             -0.725011009237
  CCSD correlation energy              -2.023836489639

 !CCSD total energy                 -1322.420839357558

 Timing summary (sec):

 STEP                 CPU(USER)    SYS     CPU(TOT)    WALL
 Transformation         67.86      9.05     76.91     78.63
 CCSD iterations      2298.52     88.47   2386.99   2172.29

 Program statistics:

 Available memory in ccsd:               393212819
 Min. memory needed in ccsd:              62260081
 Max. memory used in ccsd:                87302707
 Max. memory used in cckext:              77431986 ( 9 integral passes)



 **********************************************************************************************************************************
 DATASETS  * FILE   NREC   LENGTH (MB)   RECORD NAMES
              1      20     4859.00       500      610      700      900      950      970     1000      129      960     1100   
                                          VAR    BASINP    GEOM    SYMINP    ZMAT    AOBASIS   BASIS     P2S    ABASIS      S 
                                         1400     1410     1200     1210     1080     1600     1650     1300     1700     1380   
                                           T        V       H0       H01     AOSYM     SMH    MOLCAS    ERIS     OPER     JKOP   

              2       4        2.03       700     1000      520     2100   
                                         GEOM     BASIS   MCVARS     RHF  

 PROGRAMS   *        TOTAL      CCSD    HF-SCF       INT
 CPU TIMES  *      2366.31   2267.99     60.52     37.72
 REAL TIME  *      2369.08 SEC
 DISK USED  *        11.78 GB
 **********************************************************************************************************************************

 Dump information in style XML to xml output                                                                      

 Orbitals will not be exported.

 **********************************************************************************************************************************

 CCSD/cc-pVTZ energy=  -1322.420839357558

            CCSD          HF-SCF
  -1322.42083936  -1320.39700287
 **********************************************************************************************************************************
 Molpro calculation terminated
