
 Working directory              : /var/folders/2v/xbgp75_9785319ghcgb4zr4r0000gp/T//molpro.tWCBS2VtdA/
 Global scratch directory       : /var/folders/2v/xbgp75_9785319ghcgb4zr4r0000gp/T//molpro.tWCBS2VtdA/
 Wavefunction directory         : /Users/sacpjk/wfu/
 Main file repository           : /var/folders/2v/xbgp75_9785319ghcgb4zr4r0000gp/T//molpro.tWCBS2VtdA/

 id        : peterk

 Nodes                        nprocs
 Cardiff-University-G34YLXT77Y    1
 GA implementation: MPI file
 GA implementation (serial work in mppx): MPI file

 Using customized tuning parameters: mindgm=1; mindgv=20; mindgc=4; mindgr=1; noblas=0; minvec=7
 default implementation of scratch files=df  


 Variables initialized (1032), CPU time= 0.00 sec
 
 symmetry,nosym
 
 
 geometry={
           18
     SI         1.91873897     -1.10778446      0.38779602
     SI         1.91873897      1.10778446     -0.38779602
     SI         0.00000000      2.21556892      0.38779602
     SI        -1.91873897      1.10778446     -0.38779602
     SI        -1.91873897     -1.10778446      0.38779602
     SI         0.00000000     -2.21556892     -0.38779602
     H          1.89826779     -1.09596542      1.87596105
     H          3.15145900     -1.81949570     -0.04784335
     H          3.15145900      1.81949570      0.04784335
     H          1.89826779      1.09596542     -1.87596105
     H          0.00000000      3.63899140     -0.04784335
     H          0.00000000      2.19193084      1.87596105
     H         -3.15145900      1.81949570      0.04784335
     H         -1.89826779      1.09596542     -1.87596105
     H         -3.15145900     -1.81949570     -0.04784335
     H         -1.89826779     -1.09596542      1.87596105
     H          0.00000000     -2.19193084     -1.87596105
     H          0.00000000     -3.63899140      0.04784335
 }
 basis=cc-pVTZ
 
 
 
 hf; mp4
 
 
 
 {put,xml;noorbitals,nobasis}
 Commands initialized (841), CPU time= 0.01 sec, 704 directives.
 Default parameters read. Elapsed time= 0.49 sec

 Checking input...
 Passed
1


                                         ***  PROGRAM SYSTEM MOLPRO  ***
                                       Copyright, TTI GmbH Stuttgart, 2015
                                    Version 2023.1 linked Tue Jun  6 09:54:11 2023


 **********************************************************************************************************************************
 LABEL *                                                                                                                                                                 
  64 bit serial version                                                                  DATE: 13-Jun-23          TIME: 02:04:50  
 **********************************************************************************************************************************

 SHA1:             8ebb0dd001088a5c915591db1a321413035db0b1
 **********************************************************************************************************************************

 Memory per process:       393 MW
 Total memory per node:    524 MW
 Total GA space:           131 MW

 GA preallocation disabled
 GA check enabled

 Variable memory set to 393.2 MW

 ZSYMEL=NOSYM


 Geometry recognized as XYZ

 SETTING BASIS          =    CC-PVTZ


 Recomputing integrals since basis changed


 Using spherical harmonics

 Library entry SI     S cc-pVTZ              selected for orbital group  1
 Library entry SI     P cc-pVTZ              selected for orbital group  1
 Library entry SI     D cc-pVTZ              selected for orbital group  1
 Library entry SI     F cc-pVTZ              selected for orbital group  1
 Library entry H      S cc-pVTZ              selected for orbital group  2
 Library entry H      P cc-pVTZ              selected for orbital group  2
 Library entry H      D cc-pVTZ              selected for orbital group  2


 PROGRAM * SEWARD (Integral evaluation for generally contracted gaussian basis sets)     Author: Roland Lindh, 1990

 Geometry written to block  1 of record 700


 Point group  C1  



 ATOMIC COORDINATES

 NR  ATOM    CHARGE       X              Y              Z

   1  SI     14.00    3.625891158   -2.093409235    0.732828270
   2  SI     14.00    3.625891158    2.093409235   -0.732828270
   3  SI     14.00    0.000000000    4.186818469    0.732828270
   4  SI     14.00   -3.625891158    2.093409235   -0.732828270
   5  SI     14.00   -3.625891158   -2.093409235    0.732828270
   6  SI     14.00    0.000000000   -4.186818469   -0.732828270
   7  H       1.00    3.587206234   -2.071074486    3.545052605
   8  H       1.00    5.955394403   -3.438348558   -0.090410828
   9  H       1.00    5.955394403    3.438348558    0.090410828
  10  H       1.00    3.587206234    2.071074486   -3.545052605
  11  H       1.00    0.000000000    6.876697116   -0.090410828
  12  H       1.00    0.000000000    4.142148972    3.545052605
  13  H       1.00   -5.955394403    3.438348558    0.090410828
  14  H       1.00   -3.587206234    2.071074486   -3.545052605
  15  H       1.00   -5.955394403   -3.438348558   -0.090410828
  16  H       1.00   -3.587206234   -2.071074486    3.545052605
  17  H       1.00    0.000000000   -4.142148972   -3.545052605
  18  H       1.00    0.000000000   -6.876697116    0.090410828

 Bond lengths in Bohr (Angstrom)

 1-2  4.435943866  1-6  4.435943869  1-7  2.812579079  1-8  2.813035685  2-3  4.435943869
     ( 2.347400403)     ( 2.347400404)     ( 1.488352752)     ( 1.488594378)     ( 2.347400404)

  2- 9  2.813035685   2-10  2.812579079   3- 4  4.435943869   3-11  2.813035682   3-12  2.812579079
       ( 1.488594378)       ( 1.488352752)       ( 2.347400404)       ( 1.488594376)       ( 1.488352752)

  4- 5  4.435943866   4-13  2.813035685   4-14  2.812579079   5- 6  4.435943869   5-15  2.813035685
       ( 2.347400403)       ( 1.488594378)       ( 1.488352752)       ( 2.347400404)       ( 1.488594378)

  5-16  2.812579079   6-17  2.812579079   6-18  2.813035682
       ( 1.488352752)       ( 1.488352752)       ( 1.488594376)

 Bond angles

  1- 2- 3  109.64851526   1- 2- 9  110.76680076   1- 2-10  108.83645485   1- 6- 5  109.64851531

  1- 6-17  108.83645484   1- 6-18  110.76680078   2- 1- 6  109.64851526   2- 1- 7  108.83645485

  2- 1- 8  110.76680076   2- 3- 4  109.64851531   2- 3-11  110.76680078   2- 3-12  108.83645484

  3- 2- 9  110.76680085   3- 2-10  108.83645476   3- 4- 5  109.64851526   3- 4-13  110.76680085

  3- 4-14  108.83645476   4- 3-11  110.76680078   4- 3-12  108.83645484   4- 5- 6  109.64851526

  4- 5-15  110.76680076   4- 5-16  108.83645485   5- 4-13  110.76680076   5- 4-14  108.83645485

  5- 6-17  108.83645484   5- 6-18  110.76680078   6- 1- 7  108.83645476   6- 1- 8  110.76680085

  6- 5-15  110.76680085   6- 5-16  108.83645476   7- 1- 8  107.92677630   9- 2-10  107.92677630

 11- 3-12  107.92677624  13- 4-14  107.92677630  15- 5-16  107.92677630  17- 6-18  107.92677624

 NUCLEAR CHARGE:                   96
 NUMBER OF PRIMITIVE AOS:         588
 NUMBER OF SYMMETRY AOS:          546
 NUMBER OF CONTRACTIONS:          372   (  372A   )
 NUMBER OF INNER CORE ORBITALS:     6   (    6A   )
 NUMBER OF OUTER CORE ORBITALS:    24   (   24A   )
 NUMBER OF VALENCE ORBITALS:       36   (   36A   )


 NUCLEAR REPULSION ENERGY  675.86517828


 Eigenvalues of metric

         1 0.826E-03 0.836E-03 0.836E-03 0.124E-02 0.126E-02 0.126E-02 0.182E-02 0.182E-02


 Contracted 2-electron integrals neglected if value below      1.0D-11
 AO integral compression algorithm  1   Integral accuracy      1.0D-11

     5411.439 MB (compressed) written to integral file ( 29.9%)


 NUMBER OF SORTED TWO-ELECTRON INTEGRALS: 2406688131.     BUFFER LENGTH:  32768
 NUMBER OF SEGMENTS:  76  SEGMENT LENGTH:   31999951      RECORD LENGTH: 262144

 Memory used in sort:      32.29 MW

 SORT1 READ  2259646084. AND WROTE  1550342305. INTEGRALS IN   8909 RECORDS. CPU TIME:    17.80 SEC, REAL TIME:    23.50 SEC
 SORT2 READ  1550342305. AND WROTE  2406688131. INTEGRALS IN  20643 RECORDS. CPU TIME:    12.84 SEC, REAL TIME:    22.87 SEC

 FILE SIZES:   FILE 1:  5446.9 MBYTE,  FILE 4: 18683.6 MBYTE,   TOTAL:  24130.4 MBYTE

 OPERATOR DM      FOR CENTER  0  COORDINATES:    0.000000    0.000000    0.000000


 **********************************************************************************************************************************
 DATASETS  * FILE   NREC   LENGTH (MB)   RECORD NAMES
              1      19     4691.19       500      610      700      900      950      970     1000      129      960     1100   
                                          VAR    BASINP    GEOM    SYMINP    ZMAT    AOBASIS   BASIS     P2S    ABASIS      S 
                                         1400     1410     1200     1210     1080     1600     1650     1300     1700   
                                           T        V       H0       H01     AOSYM     SMH    MOLCAS    ERIS     OPER   

 PROGRAMS   *        TOTAL       INT
 CPU TIMES  *        82.53     82.43
 REAL TIME  *       123.55 SEC
 DISK USED  *        22.47 GB
 **********************************************************************************************************************************


 Program * Restricted Hartree-Fock

 Orbital guess generated from atomic densities. Full valence occupancy:   66

 Initial occupancy:  48

 NELEC=   96   SYM=1   MS2= 0   THRE=1.0D-08   THRD=3.2D-06   THRG=3.2D-06  HFMA2=F  DIIS_START=2   DIIS_MAX=10   DIIS_INCORE=F

 Level shifts:    0.00 (CLOSED)    0.00 (OPEN)    0.30 (GAP_MIN)

 ITER           ETOT              DE          GRAD        DDIFF     DIIS  NEXP   TIME(IT)  TIME(TOT)  DIAG
   1    -1740.58681989   -1740.58681989     0.00D+00     0.50D-01     0     0      12.29     23.44    start
   2    -1740.65691912      -0.07009923     0.13D-02     0.23D-02     1     0      12.30     35.74    diag
   3    -1740.66684551      -0.00992640     0.42D-03     0.84D-03     2     0      12.18     47.92    diag
   4    -1740.66723151      -0.00038599     0.10D-03     0.20D-03     3     0      12.18     60.10    diag
   5    -1740.66726975      -0.00003824     0.31D-04     0.75D-04     4     0      12.21     72.31    diag
   6    -1740.66727144      -0.00000169     0.53D-05     0.23D-04     5     0      12.26     84.57    diag
   7    -1740.66727151      -0.00000007     0.12D-05     0.50D-05     6     0      12.34     96.91    diag
   8    -1740.66727152      -0.00000000     0.23D-06     0.98D-06     7     0      11.47    108.38    fixocc
   9    -1740.66727152      -0.00000000     0.51D-07     0.13D-06     0     0      11.11    119.49    diag

 Final occupancy:  48

 !RHF STATE 1.1 Energy              -1740.667271515507
  RHF One-electron energy           -3762.776035364900
  RHF Two-electron energy            1346.243585568451
  RHF Kinetic energy                 1740.837251057134
  RHF Nuclear energy                  675.865178280942
  RHF Virial quotient                  -0.999902357592

 !RHF STATE 1.1 Dipole moment           0.00000000     0.00000000     0.00000000
 Dipole moment /Debye                   0.00000000     0.00000000     0.00000000

 Orbital energies:

           1.1          2.1          3.1          4.1          5.1          6.1          7.1          8.1          9.1         10.1
    -68.774039   -68.774038   -68.774038   -68.774037   -68.774037   -68.774036    -6.124357    -6.124286    -6.124286    -6.124143

          11.1         12.1         13.1         14.1         15.1         16.1         17.1         18.1         19.1         20.1
     -6.124143    -6.124069    -4.230466    -4.230367    -4.230367    -4.230238    -4.230238    -4.230226    -4.230017    -4.229973

          21.1         22.1         23.1         24.1         25.1         26.1         27.1         28.1         29.1         30.1
     -4.229973    -4.229939    -4.229939    -4.229912    -4.229696    -4.229696    -4.229685    -4.229603    -4.229603    -4.229519

          31.1         32.1         33.1         34.1         35.1         36.1         37.1         38.1         39.1         40.1
     -0.794431    -0.744549    -0.744549    -0.660941    -0.660941    -0.624519    -0.506827    -0.504067    -0.495609    -0.495609

          41.1         42.1         43.1         44.1         45.1         46.1         47.1         48.1         49.1         50.1
     -0.479365    -0.479365    -0.444976    -0.425872    -0.425872    -0.379865    -0.379865    -0.368218     0.087906     0.098448


 HOMO     48.1    -0.368218 =     -10.0197eV
 LUMO     49.1     0.087906 =       2.3920eV
 LUMO-HOMO         0.456124 =      12.4118eV

 Orbitals saved in record  2100.2


 **********************************************************************************************************************************
 DATASETS  * FILE   NREC   LENGTH (MB)   RECORD NAMES
              1      19     4691.19       500      610      700      900      950      970     1000      129      960     1100   
                                          VAR    BASINP    GEOM    SYMINP    ZMAT    AOBASIS   BASIS     P2S    ABASIS      S 
                                         1400     1410     1200     1210     1080     1600     1650     1300     1700   
                                           T        V       H0       H01     AOSYM     SMH    MOLCAS    ERIS     OPER   

              2       4        2.84       700     1000      520     2100   
                                         GEOM     BASIS   MCVARS     RHF  

 PROGRAMS   *        TOTAL    HF-SCF       INT
 CPU TIMES  *       202.02    119.49     82.43
 REAL TIME  *       249.84 SEC
 DISK USED  *        22.47 GB
 **********************************************************************************************************************************


 PROGRAM * MP4 (Closed-shell)     Authors: C. Hampel, H.-J. Werner, 1991, M. Deegan, P.J. Knowles, 1992


 Convergence thresholds:  THRVAR = 1.00D-08  THRDEN = 1.00D-06

 MP4(T)     terms to be evaluated (factor= 0.000)


 Number of core orbitals:          30 (  30 )
 Number of closed-shell orbitals:  18 (  18 )
 Number of external orbitals:     324 ( 324 )

 Molecular orbitals read from record     2100.2  Type=RHF/CANONICAL  

 Number of N-1 electron functions:              18
 Number of N-2 electron functions:             171
 Number of singly external CSFs:              5832
 Number of doubly external CSFs:          17009028
 Total number of CSFs:                    17014861

 Length of J-op  integral file:               0.00 MB
 Length of K-op  integral file:               9.56 MB

 For full I/O caching in triples, increase memory by 345.35 Mwords to 738.62 Mwords.

 Multipassing necessary in transformation. To avoid, increase memory by 138.01 Mwords.

 Integral transformation finished. Total CPU: 108.34 sec, npass=  2  Memory used: 386.18 MW

 Reference energy:                  -1740.66727152

                        CORR.ENERGY   TOTAL ENERGY   ENERGY CHANGE
 MP2:                   -0.74247410 -1741.40974561    -0.74247410

 SCS-MP2 correlation energy:           -0.78234134   (PS=  1.200000  PT=  0.333333)
 SCS-MP2 total energy:              -1741.44961286

 MP3(D):                -0.84653905 -1741.51381056    -0.10406495
 MP4(DQ):               -0.85294828 -1741.52021979    -0.00640923
 MP4(SDQ):              -0.85795519 -1741.52522670    -0.00500691

 Norm of t1 vector:      0.07950691      S-energy:    -0.00500691      T1 diagnostic:  0.00936998

   CPU time for triples:   1870.21 sec for i =  1 - 14 / 18 (~  48.7 % done)
   CPU time for triples:   1893.40 sec for i = 15 - 18 / 18 (  100.0 % done)

 Total CPU time for triples:   3763.61 sec


 RESULTS
 =======

  Reference energy                  -1740.667271515500
  MP4(SDQ) singlet pair energy         -0.657413240319
  MP4(SDQ) triplet pair energy         -0.195535035595
  MP4(SDQ) correlation energy          -0.857955189354

  Triples contribution                 -0.029413408540
  Total correlation energy             -0.887368597893

  MP4(SDQ) total energy             -1741.525226704854
 !MP4(SDTQ) total energy            -1741.554640113393

 Timing summary (sec):

 STEP                 CPU(USER)    SYS     CPU(TOT)    WALL
 Transformation        110.13     10.77    120.90    122.99
 CCSD iterations       401.48      7.70    409.18    182.60
 Triples              3763.61    130.87   3894.48   3359.24

 Program statistics:

 Available memory in ccsd:               393214656
 Min. memory needed in ccsd:              40956925
 Max. memory used in ccsd:                56422741
 Max. memory used in cckext:              48672913 ( 1 integral passes)



 **********************************************************************************************************************************
 DATASETS  * FILE   NREC   LENGTH (MB)   RECORD NAMES
              1      20     7307.00       500      610      700      900      950      970     1000      129      960     1100   
                                          VAR    BASINP    GEOM    SYMINP    ZMAT    AOBASIS   BASIS     P2S    ABASIS      S 
                                         1400     1410     1200     1210     1080     1600     1650     1300     1700     1380   
                                           T        V       H0       H01     AOSYM     SMH    MOLCAS    ERIS     OPER     JKOP   

              2       4        2.84       700     1000      520     2100   
                                         GEOM     BASIS   MCVARS     RHF  

 PROGRAMS   *        TOTAL       MP4    HF-SCF       INT
 CPU TIMES  *      4275.12   4073.10    119.49     82.43
 REAL TIME  *      3914.86 SEC
 DISK USED  *        22.47 GB
 **********************************************************************************************************************************

 Dump information in style XML to xml output                                                                      

 Orbitals will not be exported.

 **********************************************************************************************************************************

 MP4/cc-pVTZ energy=  -1741.554640113393

             MP4          HF-SCF
  -1741.55464011  -1740.66727152
 **********************************************************************************************************************************
 Molpro calculation terminated
