
 Working directory              : /var/folders/2v/xbgp75_9785319ghcgb4zr4r0000gp/T//molpro.lsiMXiNdlH/
 Global scratch directory       : /var/folders/2v/xbgp75_9785319ghcgb4zr4r0000gp/T//molpro.lsiMXiNdlH/
 Wavefunction directory         : /Users/sacpjk/wfu/
 Main file repository           : /var/folders/2v/xbgp75_9785319ghcgb4zr4r0000gp/T//molpro.lsiMXiNdlH/

 id        : peterk

 Nodes                        nprocs
 Cardiff-University-G34YLXT77Y    1
 GA implementation: MPI file
 GA implementation (serial work in mppx): MPI file

 Using customized tuning parameters: mindgm=1; mindgv=20; mindgc=4; mindgr=1; noblas=0; minvec=7
 default implementation of scratch files=df  


 Variables initialized (1032), CPU time= 0.01 sec
 
 symmetry,nosym
 
 
 geometry={
            6
     C         -0.66347200      0.00000000      0.00000000
     C          0.66347200      0.00000000      0.00000000
     H         -1.23459900     -0.92251800      0.00000000
     H         -1.23459900      0.92251800      0.00000000
     H          1.23459900      0.92251800      0.00000000
     H          1.23459900     -0.92251800      0.00000000
 }
 basis=cc-pVDZ
 
 
 
 hf; ccsd
 
 
 
 {put,xml;noorbitals,nobasis}
 Commands initialized (841), CPU time= 0.00 sec, 704 directives.
 Default parameters read. Elapsed time= 0.06 sec

 Checking input...
 Passed
1


                                         ***  PROGRAM SYSTEM MOLPRO  ***
                                       Copyright, TTI GmbH Stuttgart, 2015
                                    Version 2023.1 linked Tue Jun  6 09:54:11 2023


 **********************************************************************************************************************************
 LABEL *                                                                                                                                                                 
  64 bit serial version                                                                  DATE: 11-Jun-23          TIME: 07:21:33  
 **********************************************************************************************************************************

 SHA1:             8ebb0dd001088a5c915591db1a321413035db0b1
 **********************************************************************************************************************************

 Memory per process:       393 MW
 Total memory per node:    524 MW
 Total GA space:           131 MW

 GA preallocation disabled
 GA check enabled

 Variable memory set to 393.2 MW

 ZSYMEL=NOSYM


 Geometry recognized as XYZ

 SETTING BASIS          =    CC-PVDZ


 Recomputing integrals since basis changed


 Using spherical harmonics

 Library entry C      S cc-pVDZ              selected for orbital group  1
 Library entry C      P cc-pVDZ              selected for orbital group  1
 Library entry C      D cc-pVDZ              selected for orbital group  1
 Library entry H      S cc-pVDZ              selected for orbital group  2
 Library entry H      P cc-pVDZ              selected for orbital group  2


 PROGRAM * SEWARD (Integral evaluation for generally contracted gaussian basis sets)     Author: Roland Lindh, 1990

 Geometry written to block  1 of record 700


 Point group  C1  



 ATOMIC COORDINATES

 NR  ATOM    CHARGE       X              Y              Z

   1  C       6.00   -1.253780371    0.000000000    0.000000000
   2  C       6.00    1.253780371    0.000000000    0.000000000
   3  H       1.00   -2.333053984   -1.743306365    0.000000000
   4  H       1.00   -2.333053984    1.743306365    0.000000000
   5  H       1.00    2.333053984    1.743306365    0.000000000
   6  H       1.00    2.333053984   -1.743306365    0.000000000

 Bond lengths in Bohr (Angstrom)

 1-2  2.507560743  1-3  2.050353290  1-4  2.050353290  2-5  2.050353290  2-6  2.050353290
     ( 1.326944000)     ( 1.085000235)     ( 1.085000235)     ( 1.085000235)     ( 1.085000235)

 Bond angles

  1-2-5  121.76147493   1-2-6  121.76147493   2-1-3  121.76147493   2-1-4  121.76147493

  3-1-4  116.47705014   5-2-6  116.47705014

 NUCLEAR CHARGE:                   16
 NUMBER OF PRIMITIVE AOS:          82
 NUMBER OF SYMMETRY AOS:           80
 NUMBER OF CONTRACTIONS:           48   (   48A   )
 NUMBER OF INNER CORE ORBITALS:     0   (    0A   )
 NUMBER OF OUTER CORE ORBITALS:     2   (    2A   )
 NUMBER OF VALENCE ORBITALS:       12   (   12A   )


 NUCLEAR REPULSION ENERGY   33.42546957

 EXTRA SYMMETRY OF AOS IN SYMMETRY 1:   1 1 1 1 1 2 1 1 2 1   1 2 1 2 1 1 1 1 1 2   1 1 2 1 1 2 1 2 1 1   1 1 2 1 1 1 1 2 1 1
                                        1 1 2 1 1 1 1 2

 Eigenvalues of metric

         1 0.376E-02 0.159E-01 0.163E-01 0.264E-01 0.278E-01 0.399E-01 0.435E-01 0.475E-01


 Contracted 2-electron integrals neglected if value below      1.0D-11
 AO integral compression algorithm  1   Integral accuracy      1.0D-11

     2.359 MB (compressed) written to integral file ( 34.6%)


 NUMBER OF SORTED TWO-ELECTRON INTEGRALS:     692076.     BUFFER LENGTH:  32768
 NUMBER OF SEGMENTS:   1  SEGMENT LENGTH:     692076      RECORD LENGTH: 524288

 Memory used in sort:       1.25 MW

 SORT1 READ      832256. AND WROTE      344774. INTEGRALS IN      1 RECORDS. CPU TIME:     0.01 SEC, REAL TIME:     0.01 SEC
 SORT2 READ      344774. AND WROTE      692076. INTEGRALS IN      9 RECORDS. CPU TIME:     0.02 SEC, REAL TIME:     0.03 SEC

 FILE SIZES:   FILE 1:    32.5 MBYTE,  FILE 4:     4.3 MBYTE,   TOTAL:     36.8 MBYTE

 OPERATOR DM      FOR CENTER  0  COORDINATES:    0.000000    0.000000    0.000000


 **********************************************************************************************************************************
 DATASETS  * FILE   NREC   LENGTH (MB)   RECORD NAMES
              1      19       30.46       500      610      700      900      950      970     1000      129      960     1100   
                                          VAR    BASINP    GEOM    SYMINP    ZMAT    AOBASIS   BASIS     P2S    ABASIS      S 
                                         1400     1410     1200     1210     1080     1600     1650     1300     1700   
                                           T        V       H0       H01     AOSYM     SMH    MOLCAS    ERIS     OPER   

 PROGRAMS   *        TOTAL       INT
 CPU TIMES  *         0.24      0.15
 REAL TIME  *         0.46 SEC
 DISK USED  *        35.47 MB
 **********************************************************************************************************************************


 Program * Restricted Hartree-Fock

 Orbital guess generated from atomic densities. Full valence occupancy:   14

 Initial occupancy:   8

 NELEC=   16   SYM=1   MS2= 0   THRE=1.0D-08   THRD=3.2D-06   THRG=3.2D-06  HFMA2=F  DIIS_START=2   DIIS_MAX=10   DIIS_INCORE=F

 Level shifts:    0.00 (CLOSED)    0.00 (OPEN)    0.30 (GAP_MIN)

 ITER           ETOT              DE          GRAD        DDIFF     DIIS  NEXP   TIME(IT)  TIME(TOT)  DIAG
   1      -78.01805730     -78.01805730     0.00D+00     0.15D+00     0     0       0.01      0.01    start
   2      -78.03799865      -0.01994135     0.65D-02     0.14D-01     1     0       0.00      0.01    diag
   3      -78.03987887      -0.00188022     0.22D-02     0.43D-02     2     0       0.00      0.01    diag
   4      -78.04010587      -0.00022700     0.63D-03     0.15D-02     3     0       0.01      0.02    diag
   5      -78.04010812      -0.00000225     0.60D-04     0.17D-03     4     0       0.00      0.02    diag
   6      -78.04010818      -0.00000006     0.87D-05     0.28D-04     5     0       0.01      0.03    diag
   7      -78.04010818      -0.00000000     0.13D-05     0.36D-05     6     0       0.00      0.03    diag
   8      -78.04010818      -0.00000000     0.14D-06     0.46D-06     7     0       0.00      0.03    fixocc
   9      -78.04010818      -0.00000000     0.15D-07     0.31D-07     0     0       0.01      0.04    diag

 Final occupancy:   8

 !RHF STATE 1.1 Energy                -78.040108179107
  RHF One-electron energy            -170.148178108664
  RHF Two-electron energy              58.682600358868
  RHF Kinetic energy                   77.901004613827
  RHF Nuclear energy                   33.425469570689
  RHF Virial quotient                  -1.001785645332

 !RHF STATE 1.1 Dipole moment           0.00000000    -0.00000000     0.00000000
 Dipole moment /Debye                   0.00000000    -0.00000000     0.00000000

 Orbital energies:

           1.1          2.1          3.1          4.1          5.1          6.1          7.1          8.1          9.1         10.1
    -11.235551   -11.233843    -1.033065    -0.788987    -0.638328    -0.585041    -0.501046    -0.375627     0.169489     0.203777


 HOMO      8.1    -0.375627 =     -10.2213eV
 LUMO      9.1     0.169489 =       4.6120eV
 LUMO-HOMO         0.545116 =      14.8334eV

 Orbitals saved in record  2100.2


 **********************************************************************************************************************************
 DATASETS  * FILE   NREC   LENGTH (MB)   RECORD NAMES
              1      19       30.46       500      610      700      900      950      970     1000      129      960     1100   
                                          VAR    BASINP    GEOM    SYMINP    ZMAT    AOBASIS   BASIS     P2S    ABASIS      S 
                                         1400     1410     1200     1210     1080     1600     1650     1300     1700   
                                           T        V       H0       H01     AOSYM     SMH    MOLCAS    ERIS     OPER   

              2       4        0.50       700     1000      520     2100   
                                         GEOM     BASIS   MCVARS     RHF  

 PROGRAMS   *        TOTAL    HF-SCF       INT
 CPU TIMES  *         0.28      0.04      0.15
 REAL TIME  *         0.53 SEC
 DISK USED  *        35.47 MB
 **********************************************************************************************************************************


 PROGRAM * CCSD (Closed-shell coupled cluster)     Authors: C. Hampel, H.-J. Werner, 1991, M. Deegan, P.J. Knowles, 1992


 Convergence thresholds:  THRVAR = 1.00D-08  THRDEN = 1.00D-06

 Number of core orbitals:           2 (   2 )
 Number of closed-shell orbitals:   6 (   6 )
 Number of external orbitals:      40 (  40 )

 Molecular orbitals read from record     2100.2  Type=RHF/CANONICAL  

 Number of N-1 electron functions:               6
 Number of N-2 electron functions:              21
 Number of singly external CSFs:               240
 Number of doubly external CSFs:             28920
 Total number of CSFs:                       29161

 Length of J-op  integral file:               0.00 MB
 Length of K-op  integral file:               0.22 MB
 Length of 3-ext integral record:             0.00 MB

 Integral transformation finished. Total CPU:   0.01 sec, npass=  1  Memory used:   0.58 MW

 Reference energy:                    -78.04010818

 MP2 singlet pair energy:              -0.18413275
 MP2 triplet pair energy:              -0.09038130
 MP2 correlation energy:               -0.27451405
 MP2 total energy:                    -78.31462223

 SCS-MP2 correlation energy:           -0.27719655   (PS=  1.200000  PT=  0.333333)
 SCS-MP2 total energy:                -78.31730473

 ITER.      SQ.NORM     CORR.ENERGY   TOTAL ENERGY   ENERGY CHANGE        DEN1      VAR(S)    VAR(P)  DIIS     TIME  TIME/IT
   1      1.11721802    -0.30159516   -78.34170334    -0.02708111    -0.01802115  0.10D-02  0.21D-02  1  1     0.44     0.03
   2      1.13004372    -0.30439121   -78.34449939    -0.00279605    -0.01008680  0.24D-04  0.25D-03  2  2     0.47     0.05
   3      1.13396700    -0.30464734   -78.34475552    -0.00025613    -0.00153848  0.63D-05  0.28D-04  3  3     0.50     0.04
   4      1.13574450    -0.30469950   -78.34480768    -0.00005217    -0.00047731  0.13D-06  0.20D-05  4  4     0.52     0.04
   5      1.13606184    -0.30469795   -78.34480612     0.00000156    -0.00005592  0.16D-07  0.12D-06  5  5     0.55     0.04
   6      1.13609404    -0.30469646   -78.34480464     0.00000149    -0.00000396  0.13D-08  0.67D-08  6  6     0.58     0.04
   7      1.13609841    -0.30469670   -78.34480488    -0.00000024     0.00000032  0.19D-09  0.40D-09  6  1     0.60     0.04
   8      1.13609826    -0.30469674   -78.34480492    -0.00000004     0.00000057  0.78D-11  0.20D-10  6  2     0.62     0.04

 Norm of t1 vector:      0.04817204      S-energy:    -0.00000001      T1 diagnostic:  0.00983308
                                                                       D1 diagnostic:  0.02960796
                                                                       D2 diagnostic:  0.19515782 (internal)

 Doubles amplitudes (print threshold =  0.500E-01):

         I         J         SYM. A    SYM. B    A         B      T(IJ, AB)

         6         6         1         1         1         1     -0.13546068


 RESULTS
 =======

  Reference energy                    -78.040108179107
  CCSD singlet pair energy             -0.221694595906
  CCSD triplet pair energy             -0.083002136125
  CCSD correlation energy              -0.304696738459

 !CCSD total energy                   -78.344804917566

 Timing summary (sec):

 STEP                 CPU(USER)    SYS     CPU(TOT)    WALL
 Transformation          0.01      0.01      0.02      0.02
 CCSD iterations         0.62      0.02      0.64      0.32

 Program statistics:

 Available memory in ccsd:               393215848
 Min. memory needed in ccsd:                112753
 Max. memory used in ccsd:                  132769
 Max. memory used in cckext:                144698 ( 8 integral passes)



 **********************************************************************************************************************************
 DATASETS  * FILE   NREC   LENGTH (MB)   RECORD NAMES
              1      20       32.56       500      610      700      900      950      970     1000      129      960     1100   
                                          VAR    BASINP    GEOM    SYMINP    ZMAT    AOBASIS   BASIS     P2S    ABASIS      S 
                                         1400     1410     1200     1210     1080     1600     1650     1300     1700     1380   
                                           T        V       H0       H01     AOSYM     SMH    MOLCAS    ERIS     OPER     JKOP   

              2       4        0.50       700     1000      520     2100   
                                         GEOM     BASIS   MCVARS     RHF  

 PROGRAMS   *        TOTAL      CCSD    HF-SCF       INT
 CPU TIMES  *         0.53      0.25      0.04      0.15
 REAL TIME  *         0.91 SEC
 DISK USED  *        38.74 MB
 **********************************************************************************************************************************

 Dump information in style XML to xml output                                                                      

 Orbitals will not be exported.

 **********************************************************************************************************************************

 CCSD/cc-pVDZ energy=    -78.344804917566

            CCSD          HF-SCF
    -78.34480492    -78.04010818
 **********************************************************************************************************************************
 Molpro calculation terminated
