
 Working directory              : /var/folders/2v/xbgp75_9785319ghcgb4zr4r0000gp/T//molpro.5Y4dHr4gJ6/
 Global scratch directory       : /var/folders/2v/xbgp75_9785319ghcgb4zr4r0000gp/T//molpro.5Y4dHr4gJ6/
 Wavefunction directory         : /Users/sacpjk/wfu/
 Main file repository           : /var/folders/2v/xbgp75_9785319ghcgb4zr4r0000gp/T//molpro.5Y4dHr4gJ6/

 id        : peterk

 Nodes                        nprocs
 Cardiff-University-G34YLXT77Y    1
 GA implementation: MPI file
 GA implementation (serial work in mppx): MPI file

 Using customized tuning parameters: mindgm=1; mindgv=20; mindgc=4; mindgr=1; noblas=0; minvec=7
 default implementation of scratch files=df  


 Variables initialized (1032), CPU time= 0.00 sec
 
 symmetry,nosym
 
 
 geometry={
           14
     C          1.43362384     -0.07172340      0.68200097
     C          1.43362384     -0.07172340     -0.68200097
     C         -0.96582917      0.17183310     -1.19958151
     N         -1.34265896     -0.30734576      0.00000000
     C         -0.96582917      0.17183310      1.19958151
     H          1.47349709     -0.99649735      1.24415492
     H          1.65932559      0.82721106      1.24287663
     H          1.47349709     -0.99649735     -1.24415492
     H          1.65932559      0.82721106     -1.24287663
     H         -0.81622705      1.23706676     -1.28551375
     H         -1.29551941     -0.37599263     -2.07048102
     H         -1.63508282     -1.27644933      0.00000000
     H         -0.81622705      1.23706676      1.28551375
     H         -1.29551941     -0.37599263      2.07048102
 }
 basis=cc-pVTZ
 
 
 
 hf; mp2
 
 
 
 {put,xml;noorbitals,nobasis}
 Commands initialized (841), CPU time= 0.01 sec, 704 directives.
 Default parameters read. Elapsed time= 1.16 sec

 Checking input...
 Passed
1


                                         ***  PROGRAM SYSTEM MOLPRO  ***
                                       Copyright, TTI GmbH Stuttgart, 2015
                                    Version 2023.1 linked Tue Jun  6 09:54:11 2023


 **********************************************************************************************************************************
 LABEL *                                                                                                                                                                 
  64 bit serial version                                                                  DATE: 10-Jun-23          TIME: 15:20:13  
 **********************************************************************************************************************************

 SHA1:             8ebb0dd001088a5c915591db1a321413035db0b1
 **********************************************************************************************************************************

 Memory per process:       805 MW
 Total memory per node:   1074 MW
 Total GA space:           268 MW

 GA preallocation disabled
 GA check enabled

 Variable memory set to 805.3 MW

 ZSYMEL=NOSYM


 Geometry recognized as XYZ

 SETTING BASIS          =    CC-PVTZ


 Recomputing integrals since basis changed


 Using spherical harmonics

 Library entry C      S cc-pVTZ              selected for orbital group  1
 Library entry C      P cc-pVTZ              selected for orbital group  1
 Library entry C      D cc-pVTZ              selected for orbital group  1
 Library entry C      F cc-pVTZ              selected for orbital group  1
 Library entry N      S cc-pVTZ              selected for orbital group  2
 Library entry N      P cc-pVTZ              selected for orbital group  2
 Library entry N      D cc-pVTZ              selected for orbital group  2
 Library entry N      F cc-pVTZ              selected for orbital group  2
 Library entry H      S cc-pVTZ              selected for orbital group  4
 Library entry H      P cc-pVTZ              selected for orbital group  4
 Library entry H      D cc-pVTZ              selected for orbital group  4


 PROGRAM * SEWARD (Integral evaluation for generally contracted gaussian basis sets)     Author: Roland Lindh, 1990

 Geometry written to block  1 of record 700


 Point group  C1  



 ATOMIC COORDINATES

 NR  ATOM    CHARGE       X              Y              Z

   1  C       6.00    2.709156423   -0.135537583    1.288795050
   2  C       6.00    2.709156423   -0.135537583   -1.288795050
   3  C       6.00   -1.825152614    0.324717498   -2.266880518
   4  N       7.00   -2.537257713   -0.580799312    0.000000000
   5  C       6.00   -1.825152614    0.324717498    2.266880518
   6  H       1.00    2.784505946   -1.883107075    2.351112055
   7  H       1.00    3.135670917    1.563202351    2.348696437
   8  H       1.00    2.784505946   -1.883107075   -2.351112055
   9  H       1.00    3.135670917    1.563202351   -2.348696437
  10  H       1.00   -1.542445580    2.337717374   -2.429268917
  11  H       1.00   -2.448176874   -0.710523096   -3.912642074
  12  H       1.00   -3.089858721   -2.412139646    0.000000000
  13  H       1.00   -1.542445580    2.337717374    2.429268917
  14  H       1.00   -2.448176874   -0.710523096    3.912642074

 Bond lengths in Bohr (Angstrom)

 1-2  2.577590100  1-6  2.046507782  1-7  2.047198800  2-8  2.046507782  2-9  2.047198800
     ( 1.364001940)     ( 1.082965280)     ( 1.083330951)     ( 1.082965280)     ( 1.083330951)

  3- 4  2.542794063   3-10  2.039230679   3-11  2.041669271   4- 5  2.542794063   4-12  1.912897094
       ( 1.345588670)       ( 1.079114403)       ( 1.080404851)       ( 1.345588670)       ( 1.012261549)

  5-13  2.039230679   5-14  2.041669271
       ( 1.079114403)       ( 1.080404851)

 Bond angles

  1-2-8  121.27107569   1-2-9  121.18027576   2-1-6  121.27107569   2-1-7  121.18027576

  3- 4- 5  126.12266296   3- 4-12  114.95010854   4- 3-10  117.47399518   4- 3-11  116.91018999

  4- 5-13  117.47399518   4- 5-14  116.91018999   5- 4-12  114.95010854   6- 1- 7  115.60465742

  8- 2- 9  115.60465742  10- 3-11  118.59714253  13- 5-14  118.59714253

 NUCLEAR CHARGE:                   40
 NUMBER OF PRIMITIVE AOS:         388
 NUMBER OF SYMMETRY AOS:          354
 NUMBER OF CONTRACTIONS:          276   (  276A   )
 NUMBER OF INNER CORE ORBITALS:     0   (    0A   )
 NUMBER OF OUTER CORE ORBITALS:     5   (    5A   )
 NUMBER OF VALENCE ORBITALS:       29   (   29A   )


 NUCLEAR REPULSION ENERGY  174.97760959


 Eigenvalues of metric

         1 0.291E-03 0.850E-03 0.934E-03 0.103E-02 0.116E-02 0.127E-02 0.136E-02 0.141E-02


 Contracted 2-electron integrals neglected if value below      1.0D-11
 AO integral compression algorithm  1   Integral accuracy      1.0D-11

     2455.503 MB (compressed) written to integral file ( 39.9%)


 NUMBER OF SORTED TWO-ELECTRON INTEGRALS:  730632651.     BUFFER LENGTH:  32768
 NUMBER OF SEGMENTS:  46  SEGMENT LENGTH:   15999984      RECORD LENGTH: 262144

 Memory used in sort:      16.29 MW

 SORT1 READ   768979203. AND WROTE   636532917. INTEGRALS IN   3662 RECORDS. CPU TIME:     5.82 SEC, REAL TIME:     7.82 SEC
 SORT2 READ   636532917. AND WROTE   730632651. INTEGRALS IN   9367 RECORDS. CPU TIME:     4.11 SEC, REAL TIME:     5.53 SEC

 FILE SIZES:   FILE 1:  2488.5 MBYTE,  FILE 4:  7679.8 MBYTE,   TOTAL:  10168.4 MBYTE

 OPERATOR DM      FOR CENTER  0  COORDINATES:    0.000000    0.000000    0.000000


 **********************************************************************************************************************************
 DATASETS  * FILE   NREC   LENGTH (MB)   RECORD NAMES
              1      19     2199.09       500      610      700      900      950      970     1000      129      960     1100   
                                          VAR    BASINP    GEOM    SYMINP    ZMAT    AOBASIS   BASIS     P2S    ABASIS      S 
                                         1400     1410     1200     1210     1080     1600     1650     1300     1700   
                                           T        V       H0       H01     AOSYM     SMH    MOLCAS    ERIS     OPER   

 PROGRAMS   *        TOTAL       INT
 CPU TIMES  *        25.42     25.32
 REAL TIME  *        35.87 SEC
 DISK USED  *         9.47 GB
 **********************************************************************************************************************************


 Program * Restricted Hartree-Fock

 Orbital guess generated from atomic densities. Full valence occupancy:   34

 Initial occupancy:  20

 NELEC=   40   SYM=1   MS2= 0   THRE=1.0D-08   THRD=3.2D-06   THRG=3.2D-06  HFMA2=F  DIIS_START=2   DIIS_MAX=10   DIIS_INCORE=F

 Level shifts:    0.00 (CLOSED)    0.00 (OPEN)    0.30 (GAP_MIN)

 ITER           ETOT              DE          GRAD        DDIFF     DIIS  NEXP   TIME(IT)  TIME(TOT)  DIAG
   1     -211.00043728    -211.00043728     0.00D+00     0.44D-01     0     0       2.99      5.85    start
   2     -211.06025505      -0.05981776     0.32D-02     0.46D-02     1     0       3.00      8.85    diag
   3     -211.07498275      -0.01472771     0.17D-02     0.17D-02     2     0       3.03     11.88    diag
   4     -211.07646819      -0.00148544     0.43D-03     0.54D-03     3     0       3.12     15.00    diag
   5     -211.07656144      -0.00009324     0.11D-03     0.16D-03     4     0       2.97     17.97    diag
   6     -211.07657921      -0.00001777     0.36D-04     0.69D-04     5     0       2.95     20.92    diag
   7     -211.07658297      -0.00000376     0.11D-04     0.31D-04     6     0       2.97     23.89    diag
   8     -211.07658387      -0.00000090     0.61D-05     0.17D-04     7     0       3.03     26.92    fixocc
   9     -211.07658397      -0.00000010     0.21D-05     0.49D-05     8     0       2.97     29.89    diag
  10     -211.07658398      -0.00000001     0.74D-06     0.17D-05     9     0       3.06     32.95    diag/orth
  11     -211.07658398      -0.00000000     0.17D-06     0.26D-06     0     0       2.97     35.92    diag

 Final occupancy:  20

 !RHF STATE 1.1 Energy               -211.076583980569
  RHF One-electron energy            -630.925290835867
  RHF Two-electron energy             244.871097268435
  RHF Kinetic energy                  210.696756575871
  RHF Nuclear energy                  174.977609586863
  RHF Virial quotient                  -1.001802720701

 !RHF STATE 1.1 Dipole moment          -0.73566908    -0.31741717    -0.00000000
 Dipole moment /Debye                  -1.86988429    -0.80679397    -0.00000000

 Orbital energies:

           1.1          2.1          3.1          4.1          5.1          6.1          7.1          8.1          9.1         10.1
    -15.637696   -11.244410   -11.244363   -11.201651   -11.200217    -1.280146    -0.997287    -0.960000    -0.838015    -0.768282

          11.1         12.1         13.1         14.1         15.1         16.1         17.1         18.1         19.1         20.1
     -0.711542    -0.645535    -0.610727    -0.558083    -0.556922    -0.552282    -0.536627    -0.477485    -0.322281    -0.248013

          21.1         22.1
      0.124355     0.135449


 HOMO     20.1    -0.248013 =      -6.7488eV
 LUMO     21.1     0.124355 =       3.3839eV
 LUMO-HOMO         0.372368 =      10.1327eV

 Orbitals saved in record  2100.2


 **********************************************************************************************************************************
 DATASETS  * FILE   NREC   LENGTH (MB)   RECORD NAMES
              1      19     2199.09       500      610      700      900      950      970     1000      129      960     1100   
                                          VAR    BASINP    GEOM    SYMINP    ZMAT    AOBASIS   BASIS     P2S    ABASIS      S 
                                         1400     1410     1200     1210     1080     1600     1650     1300     1700   
                                           T        V       H0       H01     AOSYM     SMH    MOLCAS    ERIS     OPER   

              2       4        1.80       700     1000      520     2100   
                                         GEOM     BASIS   MCVARS     RHF  

 PROGRAMS   *        TOTAL    HF-SCF       INT
 CPU TIMES  *        61.34     35.92     25.32
 REAL TIME  *        78.42 SEC
 DISK USED  *         9.47 GB
 **********************************************************************************************************************************


 PROGRAM * MP2 (Closed-shell)     Authors: C. Hampel, H.-J. Werner, 1991, M. Deegan, P.J. Knowles, 1992


 Convergence thresholds:  THRVAR = 1.00D-08  THRDEN = 1.00D-06

 Number of core orbitals:           5 (   5 )
 Number of closed-shell orbitals:  15 (  15 )
 Number of external orbitals:     256 ( 256 )

 Molecular orbitals read from record     2100.2  Type=RHF/CANONICAL  

 Number of N-1 electron functions:              15
 Number of N-2 electron functions:             120
 Number of singly external CSFs:              3840
 Number of doubly external CSFs:           7374720
 Total number of CSFs:                     7378561

 Length of J-op  integral file:               0.00 MB
 Length of K-op  integral file:               5.29 MB

 Integral transformation finished. Total CPU:   6.60 sec, npass=  1  Memory used:  16.67 MW

 Memory needed for MP2:                      0.37 MW

 SCS-MP2 correlation energy:           -0.933431131624   (PS=  1.200000  PT=  0.333333)
 SCS-MP2 total energy:               -212.010015112190


  Reference energy                   -211.076583980567
  MP2 singlet pair energy              -0.605345548031
  MP2 triplet pair energy              -0.332705047479
  MP2 correlation energy               -0.938050595510

 !MP2 total energy                   -212.014634576076


 **********************************************************************************************************************************
 DATASETS  * FILE   NREC   LENGTH (MB)   RECORD NAMES
              1      20     2305.00       500      610      700      900      950      970     1000      129      960     1100   
                                          VAR    BASINP    GEOM    SYMINP    ZMAT    AOBASIS   BASIS     P2S    ABASIS      S 
                                         1400     1410     1200     1210     1080     1600     1650     1300     1700     1380   
                                           T        V       H0       H01     AOSYM     SMH    MOLCAS    ERIS     OPER     JKOP   

              2       4        1.80       700     1000      520     2100   
                                         GEOM     BASIS   MCVARS     RHF  

 PROGRAMS   *        TOTAL       MP2    HF-SCF       INT
 CPU TIMES  *        68.32      6.97     35.92     25.32
 REAL TIME  *        87.34 SEC
 DISK USED  *         9.47 GB
 **********************************************************************************************************************************

 Dump information in style XML to xml output                                                                      

 Orbitals will not be exported.

 **********************************************************************************************************************************

 MP2/cc-pVTZ energy=   -212.014634576076

             MP2          HF-SCF
   -212.01463458   -211.07658398
 **********************************************************************************************************************************
 Molpro calculation terminated
