
 Working directory              : /var/folders/2v/xbgp75_9785319ghcgb4zr4r0000gp/T//molpro.mlL8qM1ZyO/
 Global scratch directory       : /var/folders/2v/xbgp75_9785319ghcgb4zr4r0000gp/T//molpro.mlL8qM1ZyO/
 Wavefunction directory         : /Users/sacpjk/wfu/
 Main file repository           : /var/folders/2v/xbgp75_9785319ghcgb4zr4r0000gp/T//molpro.mlL8qM1ZyO/

 id        : peterk

 Nodes                        nprocs
 Cardiff-University-G34YLXT77Y    1
 GA implementation: MPI file
 GA implementation (serial work in mppx): MPI file

 Using customized tuning parameters: mindgm=1; mindgv=20; mindgc=4; mindgr=1; noblas=0; minvec=7
 default implementation of scratch files=df  


 Variables initialized (1032), CPU time= 0.01 sec
 
 symmetry,nosym
 
 
 geometry={
            6
     F          0.00000000      0.00000000     -1.79137135
     C          0.00000000      0.00000000     -0.36561703
     H         -0.51179113      0.88644824     -0.01758668
     H         -0.51179113     -0.88644824     -0.01758668
     H          1.02358226      0.00000000     -0.01758668
     F          0.00000000      0.00000000      2.20974841
 }
 basis=cc-pVDZ
 
 charge=-1
 
 hf; ccsd(t)
 
 
 
 {put,xml;noorbitals,nobasis}
 Commands initialized (841), CPU time= 0.00 sec, 704 directives.
 Default parameters read. Elapsed time= 0.14 sec

 Checking input...
 Passed
1


                                         ***  PROGRAM SYSTEM MOLPRO  ***
                                       Copyright, TTI GmbH Stuttgart, 2015
                                    Version 2023.1 linked Tue Jun  6 09:54:11 2023


 **********************************************************************************************************************************
 LABEL *                                                                                                                                                                 
  64 bit serial version                                                                  DATE: 09-Jun-23          TIME: 15:39:22  
 **********************************************************************************************************************************

 SHA1:             8ebb0dd001088a5c915591db1a321413035db0b1
 **********************************************************************************************************************************

 Memory per process:       805 MW
 Total memory per node:   1074 MW
 Total GA space:           268 MW

 GA preallocation disabled
 GA check enabled

 Variable memory set to 805.3 MW

 ZSYMEL=NOSYM


 Geometry recognized as XYZ

 SETTING BASIS          =    CC-PVDZ
 SETTING CHARGE         =        -1.00000000                                  


 Recomputing integrals since basis changed


 Using spherical harmonics

 Library entry F      S cc-pVDZ              selected for orbital group  1
 Library entry F      P cc-pVDZ              selected for orbital group  1
 Library entry F      D cc-pVDZ              selected for orbital group  1
 Library entry C      S cc-pVDZ              selected for orbital group  2
 Library entry C      P cc-pVDZ              selected for orbital group  2
 Library entry C      D cc-pVDZ              selected for orbital group  2
 Library entry H      S cc-pVDZ              selected for orbital group  3
 Library entry H      P cc-pVDZ              selected for orbital group  3


 PROGRAM * SEWARD (Integral evaluation for generally contracted gaussian basis sets)     Author: Roland Lindh, 1990

 Geometry written to block  1 of record 700


 Point group  C1  



 ATOMIC COORDINATES

 NR  ATOM    CHARGE       X              Y              Z

   1  F       9.00    0.000000000    0.000000000   -3.385201239
   2  C       6.00    0.000000000    0.000000000   -0.690916053
   3  H       1.00   -0.967145069    1.675144397   -0.033234009
   4  H       1.00   -0.967145069   -1.675144397   -0.033234009
   5  H       1.00    1.934290137    0.000000000   -0.033234009
   6  F       9.00    0.000000000    0.000000000    4.175819299

 Bond lengths in Bohr (Angstrom)

 1-2  2.694285186  2-3  2.043042831  2-4  2.043042831  2-5  2.043042831
     ( 1.425754320)     ( 1.081131707)     ( 1.081131707)     ( 1.081131707)

 Bond angles

  1-2-3  108.77865447   1-2-4  108.77865447   1-2-5  108.77865447   3-2-4  110.15481872

  3-2-5  110.15481872   4-2-5  110.15481872

 NUCLEAR CHARGE:                   27
 NUMBER OF PRIMITIVE AOS:         102
 NUMBER OF SYMMETRY AOS:           99
 NUMBER OF CONTRACTIONS:           57   (   57A   )
 NUMBER OF INNER CORE ORBITALS:     0   (    0A   )
 NUMBER OF OUTER CORE ORBITALS:     3   (    3A   )
 NUMBER OF VALENCE ORBITALS:       15   (   15A   )


 NUCLEAR REPULSION ENERGY   64.36223019


 Eigenvalues of metric

         1 0.114E-01 0.226E-01 0.360E-01 0.360E-01 0.406E-01 0.488E-01 0.492E-01 0.492E-01


 Contracted 2-electron integrals neglected if value below      1.0D-11
 AO integral compression algorithm  1   Integral accuracy      1.0D-11

     4.719 MB (compressed) written to integral file ( 35.9%)


 NUMBER OF SORTED TWO-ELECTRON INTEGRALS:    1367031.     BUFFER LENGTH:  32768
 NUMBER OF SEGMENTS:   1  SEGMENT LENGTH:    1367031      RECORD LENGTH: 524288

 Memory used in sort:       1.92 MW

 SORT1 READ     1603182. AND WROTE      885772. INTEGRALS IN      3 RECORDS. CPU TIME:     0.01 SEC, REAL TIME:     0.01 SEC
 SORT2 READ      885772. AND WROTE     1367031. INTEGRALS IN     18 RECORDS. CPU TIME:     0.03 SEC, REAL TIME:     0.03 SEC

 FILE SIZES:   FILE 1:    34.9 MBYTE,  FILE 4:    12.6 MBYTE,   TOTAL:     47.6 MBYTE

 OPERATOR DM      FOR CENTER  0  COORDINATES:    0.000000    0.000000    0.000000


 **********************************************************************************************************************************
 DATASETS  * FILE   NREC   LENGTH (MB)   RECORD NAMES
              1      19       32.37       500      610      700      900      950      970     1000      129      960     1100   
                                          VAR    BASINP    GEOM    SYMINP    ZMAT    AOBASIS   BASIS     P2S    ABASIS      S 
                                         1400     1410     1200     1210     1080     1600     1650     1300     1700   
                                           T        V       H0       H01     AOSYM     SMH    MOLCAS    ERIS     OPER   

 PROGRAMS   *        TOTAL       INT
 CPU TIMES  *         0.26      0.18
 REAL TIME  *         2.16 SEC
 DISK USED  *        45.77 MB
 **********************************************************************************************************************************


 Program * Restricted Hartree-Fock

 Orbital guess generated from atomic densities. Full valence occupancy:   18

 Initial occupancy:  14

 NELEC=   28   SYM=1   MS2= 0   THRE=1.0D-08   THRD=3.2D-06   THRG=3.2D-06  HFMA2=F  DIIS_START=2   DIIS_MAX=10   DIIS_INCORE=F

 Level shifts:    0.00 (CLOSED)    0.00 (OPEN)    0.30 (GAP_MIN)

 ITER           ETOT              DE          GRAD        DDIFF     DIIS  NEXP   TIME(IT)  TIME(TOT)  DIAG
   1     -238.35242545    -238.35242545     0.00D+00     0.17D+00     0     0       0.01      0.02    start
   2     -238.41847232      -0.06604687     0.15D-01     0.31D-01     1     0       0.00      0.02    diag
   3     -238.44643620      -0.02796388     0.88D-02     0.10D-01     2     0       0.01      0.03    diag
   4     -238.44679020      -0.00035400     0.59D-03     0.16D-02     3     0       0.01      0.04    diag
   5     -238.44680517      -0.00001497     0.11D-03     0.34D-03     4     0       0.01      0.05    diag
   6     -238.44680588      -0.00000071     0.28D-04     0.72D-04     5     0       0.00      0.05    diag
   7     -238.44680596      -0.00000008     0.96D-05     0.23D-04     6     0       0.01      0.06    diag
   8     -238.44680597      -0.00000001     0.31D-05     0.91D-05     7     0       0.01      0.07    fixocc
   9     -238.44680597      -0.00000000     0.78D-06     0.21D-05     8     0       0.00      0.07    diag
  10     -238.44680597      -0.00000000     0.16D-06     0.35D-06     0     0       0.01      0.08    diag/orth

 Final occupancy:  14

 !RHF STATE 1.1 Energy               -238.446805972132
  RHF One-electron energy            -468.202820716076
  RHF Two-electron energy             165.393784549891
  RHF Kinetic energy                  238.573294499186
  RHF Nuclear energy                   64.362230194053
  RHF Virial quotient                  -0.999469812716

 !RHF STATE 1.1 Dipole moment           0.00000000     0.00000000    -2.60911434
 Dipole moment /Debye                   0.00000000     0.00000000    -6.63170717

 Orbital energies:

           1.1          2.1          3.1          4.1          5.1          6.1          7.1          8.1          9.1         10.1
    -26.085497   -25.773635   -11.109258    -1.388384    -1.038314    -0.752751    -0.495396    -0.495396    -0.468052    -0.337548

          11.1         12.1         13.1         14.1         15.1         16.1
     -0.337548    -0.143039    -0.143039    -0.139775     0.381666     0.452809


 HOMO     14.1    -0.139775 =      -3.8035eV
 LUMO     15.1     0.381666 =      10.3857eV
 LUMO-HOMO         0.521442 =      14.1892eV

 Orbitals saved in record  2100.2


 **********************************************************************************************************************************
 DATASETS  * FILE   NREC   LENGTH (MB)   RECORD NAMES
              1      19       32.37       500      610      700      900      950      970     1000      129      960     1100   
                                          VAR    BASINP    GEOM    SYMINP    ZMAT    AOBASIS   BASIS     P2S    ABASIS      S 
                                         1400     1410     1200     1210     1080     1600     1650     1300     1700   
                                           T        V       H0       H01     AOSYM     SMH    MOLCAS    ERIS     OPER   

              2       4        0.51       700     1000      520     2100   
                                         GEOM     BASIS   MCVARS     RHF  

 PROGRAMS   *        TOTAL    HF-SCF       INT
 CPU TIMES  *         0.34      0.08      0.18
 REAL TIME  *         2.49 SEC
 DISK USED  *        45.77 MB
 **********************************************************************************************************************************


 PROGRAM * CCSD (Closed-shell coupled cluster)     Authors: C. Hampel, H.-J. Werner, 1991, M. Deegan, P.J. Knowles, 1992


 Convergence thresholds:  THRVAR = 1.00D-08  THRDEN = 1.00D-06

 CCSD(T)     terms to be evaluated (factor= 1.000)


 Number of core orbitals:           3 (   3 )
 Number of closed-shell orbitals:  11 (  11 )
 Number of external orbitals:      43 (  43 )

 Molecular orbitals read from record     2100.2  Type=RHF/CANONICAL  

 Number of N-1 electron functions:              11
 Number of N-2 electron functions:              66
 Number of singly external CSFs:               473
 Number of doubly external CSFs:            112101
 Total number of CSFs:                      112575

 Length of J-op  integral file:               0.00 MB
 Length of K-op  integral file:               0.29 MB
 Length of 3-ext integral record:             0.00 MB

 Memory could be reduced to 1.45 Mwords without degradation in triples

 Integral transformation finished. Total CPU:   0.03 sec, npass=  1  Memory used:   1.61 MW

 Reference energy:                   -238.44680597

 MP2 singlet pair energy:              -0.32729284
 MP2 triplet pair energy:              -0.20057976
 MP2 correlation energy:               -0.52787260
 MP2 total energy:                   -238.97467858

 SCS-MP2 correlation energy:           -0.51755660   (PS=  1.200000  PT=  0.333333)
 SCS-MP2 total energy:               -238.96436257

 ITER.      SQ.NORM     CORR.ENERGY   TOTAL ENERGY   ENERGY CHANGE        DEN1      VAR(S)    VAR(P)  DIIS     TIME  TIME/IT
   1      1.13134919    -0.55005908  -238.99686505    -0.02218648    -0.01079557  0.24D-02  0.20D-02  1  1     0.59     0.16
   2      1.14061780    -0.55175304  -238.99855901    -0.00169396    -0.01080952  0.35D-04  0.33D-03  2  2     0.70     0.17
   3      1.14391727    -0.55210043  -238.99890640    -0.00034739    -0.00187991  0.71D-04  0.17D-04  3  3     0.81     0.17
   4      1.14496594    -0.55207558  -238.99888155     0.00002485    -0.00045062  0.11D-04  0.30D-05  4  4     0.92     0.17
   5      1.14552753    -0.55204145  -238.99884742     0.00003413    -0.00017296  0.19D-05  0.50D-06  5  5     1.03     0.18
   6      1.14578257    -0.55203227  -238.99883825     0.00000917    -0.00003937  0.38D-06  0.61D-07  6  6     1.14     0.18
   7      1.14584987    -0.55203022  -238.99883619     0.00000205    -0.00000053  0.26D-07  0.17D-07  6  1     1.25     0.18
   8      1.14587763    -0.55202726  -238.99883323     0.00000296    -0.00000637  0.48D-08  0.21D-08  6  2     1.37     0.17
   9      1.14587953    -0.55202775  -238.99883372    -0.00000049     0.00000133  0.86D-09  0.29D-09  6  3     1.48     0.17
  10      1.14588360    -0.55202735  -238.99883332     0.00000040    -0.00000133  0.14D-09  0.53D-10  6  4     1.59     0.17

 Norm of t1 vector:      0.07284974      S-energy:     0.00000039      T1 diagnostic:  0.01098251
                                                                       D1 diagnostic:  0.03689165
                                                                       D2 diagnostic:  0.13109817 (internal)


 Total CPU time for triples:      0.42 sec


 RESULTS
 =======

  Reference energy                   -238.446805972132
  CCSD singlet pair energy             -0.371317811425
  CCSD triplet pair energy             -0.180709932431
  CCSD correlation energy              -0.552027351469

  Triples (T) contribution             -0.007727870361
  Total correlation energy             -0.559755221830

  CCSD total energy                  -238.998833323601
  CCSD[T] energy                     -239.007347028105
  CCSD-T energy                      -239.006299820716
 !CCSD(T) total energy               -239.006561193962

 Timing summary (sec):

 STEP                 CPU(USER)    SYS     CPU(TOT)    WALL
 Transformation          0.04      0.00      0.04      0.22
 CCSD iterations         1.56      0.13      1.69      1.88
 Triples                 0.42      0.03      0.45      0.48

 Program statistics:

 Available memory in ccsd:               805305870
 Min. memory needed in ccsd:                354977
 Max. memory used in ccsd:                  441745
 Max. memory used in cckext:                497237 (10 integral passes)



 **********************************************************************************************************************************
 DATASETS  * FILE   NREC   LENGTH (MB)   RECORD NAMES
              1      20       38.30       500      610      700      900      950      970     1000      129      960     1100   
                                          VAR    BASINP    GEOM    SYMINP    ZMAT    AOBASIS   BASIS     P2S    ABASIS      S 
                                         1400     1410     1200     1210     1080     1600     1650     1300     1700     1380   
                                           T        V       H0       H01     AOSYM     SMH    MOLCAS    ERIS     OPER     JKOP   

              2       4        0.51       700     1000      520     2100   
                                         GEOM     BASIS   MCVARS     RHF  

 PROGRAMS   *        TOTAL   CCSD(T)    HF-SCF       INT
 CPU TIMES  *         1.94      1.60      0.08      0.18
 REAL TIME  *         5.27 SEC
 DISK USED  *        58.52 MB
 **********************************************************************************************************************************

 Dump information in style XML to xml output                                                                      

 Orbitals will not be exported.

 **********************************************************************************************************************************

 CCSD(T)/cc-pVDZ energy=   -239.006561193962

         CCSD(T)          HF-SCF
   -239.00656119   -238.44680597
 **********************************************************************************************************************************
 Molpro calculation terminated
