
 Working directory              : /var/folders/2v/xbgp75_9785319ghcgb4zr4r0000gp/T//molpro.V75AtKoNZz/
 Global scratch directory       : /var/folders/2v/xbgp75_9785319ghcgb4zr4r0000gp/T//molpro.V75AtKoNZz/
 Wavefunction directory         : /Users/sacpjk/wfu/
 Main file repository           : /var/folders/2v/xbgp75_9785319ghcgb4zr4r0000gp/T//molpro.V75AtKoNZz/

 id        : peterk

 Nodes                        nprocs
 Cardiff-University-G34YLXT77Y    1
 GA implementation: MPI file
 GA implementation (serial work in mppx): MPI file

 Using customized tuning parameters: mindgm=1; mindgv=20; mindgc=4; mindgr=1; noblas=0; minvec=7
 default implementation of scratch files=df  


 Variables initialized (1032), CPU time= 0.00 sec
 
 symmetry,nosym
 
 
 geometry={
            4
     C          0.00000000      0.00000000     -0.61465700
     H          0.00000000      0.00000000     -1.67439300
     N          0.00000000      0.00000000      0.54494500
     O          0.00000000      0.00000000      1.74410500
 }
 basis=cc-pVTZ
 
 
 
 hf; ccsd
 
 
 
 {put,xml;noorbitals,nobasis}
 Commands initialized (841), CPU time= 0.01 sec, 704 directives.
 Default parameters read. Elapsed time= 0.07 sec

 Checking input...
 Passed
1


                                         ***  PROGRAM SYSTEM MOLPRO  ***
                                       Copyright, TTI GmbH Stuttgart, 2015
                                    Version 2023.1 linked Tue Jun  6 09:54:11 2023


 **********************************************************************************************************************************
 LABEL *                                                                                                                                                                 
  64 bit serial version                                                                  DATE: 11-Jun-23          TIME: 08:46:31  
 **********************************************************************************************************************************

 SHA1:             8ebb0dd001088a5c915591db1a321413035db0b1
 **********************************************************************************************************************************

 Memory per process:       393 MW
 Total memory per node:    524 MW
 Total GA space:           131 MW

 GA preallocation disabled
 GA check enabled

 Variable memory set to 393.2 MW

 ZSYMEL=NOSYM


 Geometry recognized as XYZ

 SETTING BASIS          =    CC-PVTZ


 Recomputing integrals since basis changed


 Using spherical harmonics

 Library entry C      S cc-pVTZ              selected for orbital group  1
 Library entry C      P cc-pVTZ              selected for orbital group  1
 Library entry C      D cc-pVTZ              selected for orbital group  1
 Library entry C      F cc-pVTZ              selected for orbital group  1
 Library entry H      S cc-pVTZ              selected for orbital group  2
 Library entry H      P cc-pVTZ              selected for orbital group  2
 Library entry H      D cc-pVTZ              selected for orbital group  2
 Library entry N      S cc-pVTZ              selected for orbital group  3
 Library entry N      P cc-pVTZ              selected for orbital group  3
 Library entry N      D cc-pVTZ              selected for orbital group  3
 Library entry N      F cc-pVTZ              selected for orbital group  3
 Library entry O      S cc-pVTZ              selected for orbital group  4
 Library entry O      P cc-pVTZ              selected for orbital group  4
 Library entry O      D cc-pVTZ              selected for orbital group  4
 Library entry O      F cc-pVTZ              selected for orbital group  4


 PROGRAM * SEWARD (Integral evaluation for generally contracted gaussian basis sets)     Author: Roland Lindh, 1990

 Geometry written to block  1 of record 700


 Point group  C1  



 ATOMIC COORDINATES

 NR  ATOM    CHARGE       X              Y              Z

   1  C       6.00    0.000000000    0.000000000   -1.161533391
   2  H       1.00    0.000000000    0.000000000   -3.164144195
   3  N       7.00    0.000000000    0.000000000    1.029796803
   4  O       8.00    0.000000000    0.000000000    3.295880783

 Bond lengths in Bohr (Angstrom)

 1-2  2.002610804  1-3  2.191330194  3-4  2.266083980
     ( 1.059736000)     ( 1.159602000)     ( 1.199160000)

 Bond angles

  1-3-4  179.99999852   2-1-3  179.99999879

 NUCLEAR CHARGE:                   22
 NUMBER OF PRIMITIVE AOS:         158
 NUMBER OF SYMMETRY AOS:          142
 NUMBER OF CONTRACTIONS:          104   (  104A   )
 NUMBER OF INNER CORE ORBITALS:     0   (    0A   )
 NUMBER OF OUTER CORE ORBITALS:     3   (    3A   )
 NUMBER OF VALENCE ORBITALS:       13   (   13A   )


 NUCLEAR REPULSION ENERGY   60.55079965

 EXTRA SYMMETRY OF AOS IN SYMMETRY 1:   1 1 1 1 2 3 1 2 3 1   2 3 1 1 4 2 5 3 1 4   2 5 3 2 3 1 6 4 7 5   1 1 1 2 3 1 2 3 1 1
                                        4 2 5 3 1 1 1 1 2 3   1 2 3 1 2 3 1 1 4 2   5 3 1 4 2 5 3 2 3 1   6 4 7 5 1 1 1 1 2 3
                                        1 2 3 1 2 3 1 1 4 2   5 3 1 4 2 5 3 2 3 1   6 4 7 5

 Eigenvalues of metric

         1 0.759E-03 0.128E-02 0.170E-02 0.220E-02 0.367E-02 0.610E-02 0.110E-01 0.136E-01


 Contracted 2-electron integrals neglected if value below      1.0D-11
 AO integral compression algorithm  1   Integral accuracy      1.0D-11

     20.185 MB (compressed) written to integral file ( 14.0%)


 NUMBER OF SORTED TWO-ELECTRON INTEGRALS:   14908530.     BUFFER LENGTH:  32768
 NUMBER OF SEGMENTS:   1  SEGMENT LENGTH:   14908530      RECORD LENGTH: 524288

 Memory used in sort:      15.47 MW

 SORT1 READ    18266260. AND WROTE     3049656. INTEGRALS IN      9 RECORDS. CPU TIME:     0.09 SEC, REAL TIME:     0.29 SEC
 SORT2 READ     3049656. AND WROTE    14908530. INTEGRALS IN     77 RECORDS. CPU TIME:     0.15 SEC, REAL TIME:     0.40 SEC

 FILE SIZES:   FILE 1:    50.6 MBYTE,  FILE 4:    37.8 MBYTE,   TOTAL:     88.4 MBYTE

 OPERATOR DM      FOR CENTER  0  COORDINATES:    0.000000    0.000000    0.000000


 **********************************************************************************************************************************
 DATASETS  * FILE   NREC   LENGTH (MB)   RECORD NAMES
              1      19       43.54       500      610      700      900      950      970     1000      129      960     1100   
                                          VAR    BASINP    GEOM    SYMINP    ZMAT    AOBASIS   BASIS     P2S    ABASIS      S 
                                         1400     1410     1200     1210     1080     1600     1650     1300     1700   
                                           T        V       H0       H01     AOSYM     SMH    MOLCAS    ERIS     OPER   

 PROGRAMS   *        TOTAL       INT
 CPU TIMES  *         0.92      0.82
 REAL TIME  *         2.33 SEC
 DISK USED  *        84.74 MB
 **********************************************************************************************************************************


 Program * Restricted Hartree-Fock

 Orbital guess generated from atomic densities. Full valence occupancy:   16

 Initial occupancy:  11

 NELEC=   22   SYM=1   MS2= 0   THRE=1.0D-08   THRD=3.2D-06   THRG=3.2D-06  HFMA2=F  DIIS_START=2   DIIS_MAX=10   DIIS_INCORE=F

 Level shifts:    0.00 (CLOSED)    0.00 (OPEN)    0.30 (GAP_MIN)

 ITER           ETOT              DE          GRAD        DDIFF     DIIS  NEXP   TIME(IT)  TIME(TOT)  DIAG
   1     -167.63971309    -167.63971309     0.00D+00     0.82D-01     0     0       0.07      0.13    start
   2     -167.66869190      -0.02897881     0.84D-02     0.10D-01     1     0       0.08      0.21    diag
   3     -167.69359133      -0.02489943     0.60D-02     0.49D-02     2     0       0.07      0.28    diag
   4     -167.69422021      -0.00062888     0.83D-03     0.88D-03     3     0       0.07      0.35    diag
   5     -167.69432965      -0.00010944     0.28D-03     0.44D-03     4     0       0.07      0.42    diag
   6     -167.69436687      -0.00003723     0.19D-03     0.19D-03     5     0       0.08      0.50    diag
   7     -167.69437042      -0.00000355     0.37D-04     0.77D-04     6     0       0.07      0.57    diag
   8     -167.69437057      -0.00000015     0.90D-05     0.16D-04     7     0       0.07      0.64    fixocc
   9     -167.69437058      -0.00000001     0.19D-05     0.33D-05     8     0       0.07      0.71    diag
  10     -167.69437058      -0.00000000     0.20D-06     0.37D-06     9     0       0.07      0.78    diag/orth
  11     -167.69437058      -0.00000000     0.25D-07     0.31D-07     0     0       0.07      0.85    diag

 Final occupancy:  11

 !RHF STATE 1.1 Energy               -167.694370578182
  RHF One-electron energy            -348.260211054535
  RHF Two-electron energy             120.015040826168
  RHF Kinetic energy                  167.384421751828
  RHF Nuclear energy                   60.550799650184
  RHF Virial quotient                  -1.001851718476

 !RHF STATE 1.1 Dipole moment          -0.00000000    -0.00000000    -1.64222183
 Dipole moment /Debye                  -0.00000000    -0.00000000    -4.17411153

 Orbital energies:

           1.1          2.1          3.1          4.1          5.1          6.1          7.1          8.1          9.1         10.1
    -20.580797   -15.760200   -11.315959    -1.511837    -1.227551    -0.817916    -0.730694    -0.679061    -0.679061    -0.405994

          11.1         12.1         13.1
     -0.405994     0.133532     0.157487


 HOMO     11.1    -0.405994 =     -11.0477eV
 LUMO     12.1     0.133532 =       3.6336eV
 LUMO-HOMO         0.539526 =      14.6812eV

 Orbitals saved in record  2100.2


 **********************************************************************************************************************************
 DATASETS  * FILE   NREC   LENGTH (MB)   RECORD NAMES
              1      19       43.54       500      610      700      900      950      970     1000      129      960     1100   
                                          VAR    BASINP    GEOM    SYMINP    ZMAT    AOBASIS   BASIS     P2S    ABASIS      S 
                                         1400     1410     1200     1210     1080     1600     1650     1300     1700   
                                           T        V       H0       H01     AOSYM     SMH    MOLCAS    ERIS     OPER   

              2       4        0.61       700     1000      520     2100   
                                         GEOM     BASIS   MCVARS     RHF  

 PROGRAMS   *        TOTAL    HF-SCF       INT
 CPU TIMES  *         1.77      0.85      0.82
 REAL TIME  *         4.43 SEC
 DISK USED  *        84.74 MB
 **********************************************************************************************************************************


 PROGRAM * CCSD (Closed-shell coupled cluster)     Authors: C. Hampel, H.-J. Werner, 1991, M. Deegan, P.J. Knowles, 1992


 Convergence thresholds:  THRVAR = 1.00D-08  THRDEN = 1.00D-06

 Number of core orbitals:           3 (   3 )
 Number of closed-shell orbitals:   8 (   8 )
 Number of external orbitals:      93 (  93 )

 Molecular orbitals read from record     2100.2  Type=RHF/CANONICAL  

 Number of N-1 electron functions:               8
 Number of N-2 electron functions:              36
 Number of singly external CSFs:               744
 Number of doubly external CSFs:            277140
 Total number of CSFs:                      277885

 Length of J-op  integral file:               0.00 MB
 Length of K-op  integral file:               0.81 MB
 Length of 3-ext integral record:             0.00 MB

 Integral transformation finished. Total CPU:   0.31 sec, npass=  1  Memory used:   6.00 MW

 Reference energy:                   -167.69437058

 MP2 singlet pair energy:              -0.36438157
 MP2 triplet pair energy:              -0.23945868
 MP2 correlation energy:               -0.60384025
 MP2 total energy:                   -168.29821083

 SCS-MP2 correlation energy:           -0.58625440   (PS=  1.200000  PT=  0.333333)
 SCS-MP2 total energy:               -168.28062498

 ITER.      SQ.NORM     CORR.ENERGY   TOTAL ENERGY   ENERGY CHANGE        DEN1      VAR(S)    VAR(P)  DIIS     TIME  TIME/IT
   1      1.16810726    -0.59680952  -168.29118009     0.00703074     0.03378033  0.87D-02  0.69D-02  1  1     2.60     0.63
   2      1.18230804    -0.59370620  -168.28807677     0.00310332    -0.01875934  0.14D-03  0.80D-03  2  2     2.99     1.12
   3      1.18973152    -0.59427315  -168.28864373    -0.00056695    -0.00292465  0.30D-03  0.79D-04  3  3     3.44     1.02
   4      1.19352049    -0.59398440  -168.28835498     0.00028875    -0.00144977  0.26D-04  0.15D-04  4  4     3.89     1.01
   5      1.19599691    -0.59395689  -168.28832747     0.00002751    -0.00062831  0.31D-05  0.13D-05  5  5     4.33     0.99
   6      1.19654256    -0.59391332  -168.28828390     0.00004357    -0.00007867  0.26D-06  0.14D-06  6  6     4.75     0.98
   7      1.19664864    -0.59390472  -168.28827530     0.00000860    -0.00000885  0.25D-07  0.26D-07  6  2     5.18     0.96
   8      1.19666150    -0.59390338  -168.28827396     0.00000135     0.00000536  0.37D-08  0.32D-08  6  1     5.60     0.93
   9      1.19666562    -0.59390217  -168.28827274     0.00000121     0.00000229  0.18D-09  0.66D-09  6  4     6.02     0.92
  10      1.19666766    -0.59390186  -168.28827244     0.00000030    -0.00000048  0.40D-10  0.11D-09  6  3     6.42     0.90
  11      1.19666769    -0.59390176  -168.28827234     0.00000011     0.00000044  0.47D-11  0.14D-10  6  5     6.81     0.88

 Norm of t1 vector:      0.11700397      S-energy:    -0.00000015      T1 diagnostic:  0.02068357
                                                                       D1 diagnostic:  0.05236787
                                                                       D2 diagnostic:  0.17917088 (internal)

 Doubles amplitudes (print threshold =  0.500E-01):

         I         J         SYM. A    SYM. B    A         B      T(IJ, AB)

         7         7         1         1         3         3     -0.06867540
         8         8         1         1         2         2     -0.06867540


 RESULTS
 =======

  Reference energy                   -167.694370578182
  CCSD singlet pair energy             -0.391804523908
  CCSD triplet pair energy             -0.202097084083
  CCSD correlation energy              -0.593901758316

 !CCSD total energy                  -168.288272336498

 Timing summary (sec):

 STEP                 CPU(USER)    SYS     CPU(TOT)    WALL
 Transformation          0.32      0.04      0.36      0.67
 CCSD iterations         6.51      0.33      6.84      9.68

 Program statistics:

 Available memory in ccsd:               393215733
 Min. memory needed in ccsd:                862184
 Max. memory used in ccsd:                 1087764
 Max. memory used in cckext:                877250 (11 integral passes)



 **********************************************************************************************************************************
 DATASETS  * FILE   NREC   LENGTH (MB)   RECORD NAMES
              1      20       72.99       500      610      700      900      950      970     1000      129      960     1100   
                                          VAR    BASINP    GEOM    SYMINP    ZMAT    AOBASIS   BASIS     P2S    ABASIS      S 
                                         1400     1410     1200     1210     1080     1600     1650     1300     1700     1380   
                                           T        V       H0       H01     AOSYM     SMH    MOLCAS    ERIS     OPER     JKOP   

              2       4        0.61       700     1000      520     2100   
                                         GEOM     BASIS   MCVARS     RHF  

 PROGRAMS   *        TOTAL      CCSD    HF-SCF       INT
 CPU TIMES  *         6.72      4.94      0.85      0.82
 REAL TIME  *        14.83 SEC
 DISK USED  *       121.45 MB
 **********************************************************************************************************************************

 Dump information in style XML to xml output                                                                      

 Orbitals will not be exported.

 **********************************************************************************************************************************

 CCSD/cc-pVTZ energy=   -168.288272336498

            CCSD          HF-SCF
   -168.28827234   -167.69437058
 **********************************************************************************************************************************
 Molpro calculation terminated
