
 Working directory              : /var/folders/2v/xbgp75_9785319ghcgb4zr4r0000gp/T//molpro.2BPS1aj8J1/
 Global scratch directory       : /var/folders/2v/xbgp75_9785319ghcgb4zr4r0000gp/T//molpro.2BPS1aj8J1/
 Wavefunction directory         : /Users/sacpjk/wfu/
 Main file repository           : /var/folders/2v/xbgp75_9785319ghcgb4zr4r0000gp/T//molpro.2BPS1aj8J1/

 id        : peterk

 Nodes                        nprocs
 Cardiff-University-G34YLXT77Y    1
 GA implementation: MPI file
 GA implementation (serial work in mppx): MPI file

 Using customized tuning parameters: mindgm=1; mindgv=20; mindgc=4; mindgr=1; noblas=0; minvec=7
 default implementation of scratch files=df  


 Variables initialized (1032), CPU time= 0.01 sec
 
 symmetry,nosym
 
 
 geometry={
            6
     C         -0.66347200      0.00000000      0.00000000
     C          0.66347200      0.00000000      0.00000000
     H         -1.23459900     -0.92251800      0.00000000
     H         -1.23459900      0.92251800      0.00000000
     H          1.23459900      0.92251800      0.00000000
     H          1.23459900     -0.92251800      0.00000000
 }
 basis=cc-pVDZ
 
 
 
 hf; hf; papt; mp4
 
 
 
 {put,xml;noorbitals,nobasis}
 Commands initialized (841), CPU time= 0.00 sec, 704 directives.
 Default parameters read. Elapsed time= 0.72 sec

 Checking input...
 Passed
1


                                         ***  PROGRAM SYSTEM MOLPRO  ***
                                       Copyright, TTI GmbH Stuttgart, 2015
                                    Version 2023.1 linked Tue Jun  6 09:54:11 2023


 **********************************************************************************************************************************
 LABEL *                                                                                                                                                                 
  64 bit serial version                                                                  DATE: 11-Jun-23          TIME: 14:03:19  
 **********************************************************************************************************************************

 SHA1:             8ebb0dd001088a5c915591db1a321413035db0b1
 **********************************************************************************************************************************

 Memory per process:       393 MW
 Total memory per node:    524 MW
 Total GA space:           131 MW

 GA preallocation disabled
 GA check enabled

 Variable memory set to 393.2 MW

 ZSYMEL=NOSYM


 Geometry recognized as XYZ

 SETTING BASIS          =    CC-PVDZ


 Recomputing integrals since basis changed


 Using spherical harmonics

 Library entry C      S cc-pVDZ              selected for orbital group  1
 Library entry C      P cc-pVDZ              selected for orbital group  1
 Library entry C      D cc-pVDZ              selected for orbital group  1
 Library entry H      S cc-pVDZ              selected for orbital group  2
 Library entry H      P cc-pVDZ              selected for orbital group  2


 PROGRAM * SEWARD (Integral evaluation for generally contracted gaussian basis sets)     Author: Roland Lindh, 1990

 Geometry written to block  1 of record 700


 Point group  C1  



 ATOMIC COORDINATES

 NR  ATOM    CHARGE       X              Y              Z

   1  C       6.00   -1.253780371    0.000000000    0.000000000
   2  C       6.00    1.253780371    0.000000000    0.000000000
   3  H       1.00   -2.333053984   -1.743306365    0.000000000
   4  H       1.00   -2.333053984    1.743306365    0.000000000
   5  H       1.00    2.333053984    1.743306365    0.000000000
   6  H       1.00    2.333053984   -1.743306365    0.000000000

 Bond lengths in Bohr (Angstrom)

 1-2  2.507560743  1-3  2.050353290  1-4  2.050353290  2-5  2.050353290  2-6  2.050353290
     ( 1.326944000)     ( 1.085000235)     ( 1.085000235)     ( 1.085000235)     ( 1.085000235)

 Bond angles

  1-2-5  121.76147493   1-2-6  121.76147493   2-1-3  121.76147493   2-1-4  121.76147493

  3-1-4  116.47705014   5-2-6  116.47705014

 NUCLEAR CHARGE:                   16
 NUMBER OF PRIMITIVE AOS:          82
 NUMBER OF SYMMETRY AOS:           80
 NUMBER OF CONTRACTIONS:           48   (   48A   )
 NUMBER OF INNER CORE ORBITALS:     0   (    0A   )
 NUMBER OF OUTER CORE ORBITALS:     2   (    2A   )
 NUMBER OF VALENCE ORBITALS:       12   (   12A   )


 NUCLEAR REPULSION ENERGY   33.42546957

 EXTRA SYMMETRY OF AOS IN SYMMETRY 1:   1 1 1 1 1 2 1 1 2 1   1 2 1 2 1 1 1 1 1 2   1 1 2 1 1 2 1 2 1 1   1 1 2 1 1 1 1 2 1 1
                                        1 1 2 1 1 1 1 2

 Eigenvalues of metric

         1 0.376E-02 0.159E-01 0.163E-01 0.264E-01 0.278E-01 0.399E-01 0.435E-01 0.475E-01


 Contracted 2-electron integrals neglected if value below      1.0D-11
 AO integral compression algorithm  1   Integral accuracy      1.0D-11

     2.359 MB (compressed) written to integral file ( 34.6%)


 NUMBER OF SORTED TWO-ELECTRON INTEGRALS:     692076.     BUFFER LENGTH:  32768
 NUMBER OF SEGMENTS:   1  SEGMENT LENGTH:     692076      RECORD LENGTH: 524288

 Memory used in sort:       1.25 MW

 SORT1 READ      832256. AND WROTE      344774. INTEGRALS IN      1 RECORDS. CPU TIME:     0.01 SEC, REAL TIME:     0.00 SEC
 SORT2 READ      344774. AND WROTE      692076. INTEGRALS IN      9 RECORDS. CPU TIME:     0.02 SEC, REAL TIME:     0.02 SEC

 FILE SIZES:   FILE 1:    32.5 MBYTE,  FILE 4:     4.3 MBYTE,   TOTAL:     36.8 MBYTE

 OPERATOR DM      FOR CENTER  0  COORDINATES:    0.000000    0.000000    0.000000


 **********************************************************************************************************************************
 DATASETS  * FILE   NREC   LENGTH (MB)   RECORD NAMES
              1      19       30.46       500      610      700      900      950      970     1000      129      960     1100   
                                          VAR    BASINP    GEOM    SYMINP    ZMAT    AOBASIS   BASIS     P2S    ABASIS      S 
                                         1400     1410     1200     1210     1080     1600     1650     1300     1700   
                                           T        V       H0       H01     AOSYM     SMH    MOLCAS    ERIS     OPER   

 PROGRAMS   *        TOTAL       INT
 CPU TIMES  *         0.24      0.14
 REAL TIME  *         2.08 SEC
 DISK USED  *        35.47 MB
 **********************************************************************************************************************************


 Program * Restricted Hartree-Fock

 Orbital guess generated from atomic densities. Full valence occupancy:   14

 Initial occupancy:   8

 NELEC=   16   SYM=1   MS2= 0   THRE=1.0D-08   THRD=3.2D-06   THRG=3.2D-06  HFMA2=F  DIIS_START=2   DIIS_MAX=10   DIIS_INCORE=F

 Level shifts:    0.00 (CLOSED)    0.00 (OPEN)    0.30 (GAP_MIN)

 ITER           ETOT              DE          GRAD        DDIFF     DIIS  NEXP   TIME(IT)  TIME(TOT)  DIAG
   1      -78.01805730     -78.01805730     0.00D+00     0.15D+00     0     0       0.01      0.01    start
   2      -78.03799865      -0.01994135     0.65D-02     0.14D-01     1     0       0.00      0.01    diag
   3      -78.03987887      -0.00188022     0.22D-02     0.43D-02     2     0       0.01      0.02    diag
   4      -78.04010587      -0.00022700     0.63D-03     0.15D-02     3     0       0.00      0.02    diag
   5      -78.04010812      -0.00000225     0.60D-04     0.17D-03     4     0       0.00      0.02    diag
   6      -78.04010818      -0.00000006     0.87D-05     0.28D-04     5     0       0.01      0.03    diag
   7      -78.04010818      -0.00000000     0.13D-05     0.36D-05     6     0       0.00      0.03    diag
   8      -78.04010818      -0.00000000     0.14D-06     0.46D-06     7     0       0.00      0.03    fixocc
   9      -78.04010818      -0.00000000     0.15D-07     0.31D-07     0     0       0.01      0.04    diag

 Final occupancy:   8

 !RHF STATE 1.1 Energy                -78.040108179107
  RHF One-electron energy            -170.148178108664
  RHF Two-electron energy              58.682600358868
  RHF Kinetic energy                   77.901004613827
  RHF Nuclear energy                   33.425469570689
  RHF Virial quotient                  -1.001785645332

 !RHF STATE 1.1 Dipole moment           0.00000000    -0.00000000     0.00000000
 Dipole moment /Debye                   0.00000000    -0.00000000     0.00000000

 Orbital energies:

           1.1          2.1          3.1          4.1          5.1          6.1          7.1          8.1          9.1         10.1
    -11.235551   -11.233843    -1.033065    -0.788987    -0.638328    -0.585041    -0.501046    -0.375627     0.169489     0.203777


 HOMO      8.1    -0.375627 =     -10.2213eV
 LUMO      9.1     0.169489 =       4.6120eV
 LUMO-HOMO         0.545116 =      14.8334eV

 Orbitals saved in record  2100.2


 **********************************************************************************************************************************
 DATASETS  * FILE   NREC   LENGTH (MB)   RECORD NAMES
              1      19       30.46       500      610      700      900      950      970     1000      129      960     1100   
                                          VAR    BASINP    GEOM    SYMINP    ZMAT    AOBASIS   BASIS     P2S    ABASIS      S 
                                         1400     1410     1200     1210     1080     1600     1650     1300     1700   
                                           T        V       H0       H01     AOSYM     SMH    MOLCAS    ERIS     OPER   

              2       4        0.50       700     1000      520     2100   
                                         GEOM     BASIS   MCVARS     RHF  

 PROGRAMS   *        TOTAL    HF-SCF       INT
 CPU TIMES  *         0.28      0.04      0.14
 REAL TIME  *         2.52 SEC
 DISK USED  *        35.47 MB
 **********************************************************************************************************************************


 Program * Restricted Hartree-Fock

 Molecular orbitals read from record     2100.2  Type=RHF/CANONICAL  

 Initial occupancy:   8

 NELEC=   16   SYM=1   MS2= 0   THRE=1.0D-08   THRD=3.2D-06   THRG=3.2D-06  HFMA2=F  DIIS_START=2   DIIS_MAX=10   DIIS_INCORE=F

 Level shifts:    0.00 (CLOSED)    0.00 (OPEN)    0.30 (GAP_MIN)

 ITER           ETOT              DE          GRAD        DDIFF     DIIS  NEXP   TIME(IT)  TIME(TOT)  DIAG
   1      -78.04010818     -78.04010818     0.00D+00     0.15D+00     0     0       0.00      0.00    start
   2      -78.04010818       0.00000000     0.49D-08     0.10D-07     1     0       0.01      0.01    diag

 Final occupancy:   8

 !RHF STATE 1.1 Energy                -78.040108179107
  RHF One-electron energy            -170.148178185129
  RHF Two-electron energy              58.682600435333
  RHF Kinetic energy                   77.901004655020
  RHF Nuclear energy                   33.425469570689
  RHF Virial quotient                  -1.001785644803

 !RHF STATE 1.1 Dipole moment           0.00000000    -0.00000000     0.00000000
 Dipole moment /Debye                   0.00000000    -0.00000000     0.00000000

 Orbital energies:

           1.1          2.1          3.1          4.1          5.1          6.1          7.1          8.1          9.1         10.1
    -11.235551   -11.233843    -1.033065    -0.788987    -0.638328    -0.585041    -0.501046    -0.375627     0.169489     0.203777


 HOMO      8.1    -0.375627 =     -10.2213eV
 LUMO      9.1     0.169489 =       4.6120eV
 LUMO-HOMO         0.545116 =      14.8334eV

 Orbitals saved in record  2101.2


 **********************************************************************************************************************************
 DATASETS  * FILE   NREC   LENGTH (MB)   RECORD NAMES
              1      19       30.46       500      610      700      900      950      970     1000      129      960     1100   
                                          VAR    BASINP    GEOM    SYMINP    ZMAT    AOBASIS   BASIS     P2S    ABASIS      S 
                                         1400     1410     1200     1210     1080     1600     1650     1300     1700   
                                           T        V       H0       H01     AOSYM     SMH    MOLCAS    ERIS     OPER   

              2       5        0.66       700     1000      520     2100     2101   
                                         GEOM     BASIS   MCVARS     RHF      RHF  

 PROGRAMS   *        TOTAL    HF-SCF    HF-SCF       INT
 CPU TIMES  *         0.30      0.02      0.04      0.14
 REAL TIME  *         2.90 SEC
 DISK USED  *        35.47 MB
 **********************************************************************************************************************************


 PROGRAM * PAPT (Closed-shell)     Authors: C. Hampel, H.-J. Werner, 1991, P.J. Knowles, 2021


 Convergence thresholds:  THRVAR = 1.00D-08  THRDEN = 1.00D-06

 Number of core orbitals:           2 (   2 )
 Number of closed-shell orbitals:   6 (   6 )
 Number of external orbitals:      40 (  40 )

 Molecular orbitals read from record     2101.2  Type=RHF/CANONICAL  

 Number of N-1 electron functions:               6
 Number of N-2 electron functions:              21
 Number of singly external CSFs:               240
 Number of doubly external CSFs:             28920
 Total number of CSFs:                       29161

 Length of J-op  integral file:               0.00 MB
 Length of K-op  integral file:               0.22 MB

 Integral transformation finished. Total CPU:   0.00 sec, npass=  1  Memory used:   0.18 MW

 Reference energy:                    -78.04010818

                        CORR.ENERGY   TOTAL ENERGY   ENERGY CHANGE
 MP2:                   -0.27451405   -78.31462223    -0.27451405

 SCS-MP2 correlation energy:           -0.27719655   (PS=  1.200000  PT=  0.333333)
 SCS-MP2 total energy:                -78.31730473
 Iteration:   1     0.2666D+00
 Iteration:   2     0.8508D+00
 Iteration:   3     0.1060D+00
 Iteration:   4     0.1759D+00
 Iteration:   5     0.3830D-01
 Iteration:   6     0.2050D-01
 Iteration:   7     0.5103D-01
 Iteration:   8     0.4416D-02
 Iteration:   9     0.4198D-02
 Iteration:  10     0.1627D-02
 Iteration:  11     0.8247D-03
 Iteration:  12     0.1117D-02
 Iteration:  13     0.1168D-03
 Iteration:  14     0.4595D-04
 PAPT operator written to  7000.1
 PAPT orbitals and eigenvalues written to  7000.2

 MP3(D):                -0.29983944   -78.33994762    -0.02532539



 RESULTS
 =======

  Reference energy                    -78.040108179107
  MP3 singlet pair energy              -0.212296061111
  MP3 triplet pair energy              -0.087543375162
  MP3 correlation energy               -0.299839436272

 !MP3 total energy                    -78.339947615379

 Timing summary (sec):

 STEP                 CPU(USER)    SYS     CPU(TOT)    WALL
 CCSD iterations         0.49      0.02      0.51      1.26

 Program statistics:

 Available memory in ccsd:               393215848
 Min. memory needed in ccsd:                112753
 Max. memory used in ccsd:                  132769
 Max. memory used in cckext:                144410 ( 1 integral passes)



 **********************************************************************************************************************************
 DATASETS  * FILE   NREC   LENGTH (MB)   RECORD NAMES
              1      21       31.06       500      610      700      900      950      970     1000      129      960     1100   
                                          VAR    BASINP    GEOM    SYMINP    ZMAT    AOBASIS   BASIS     P2S    ABASIS      S 
                                         1400     1410     1200     1210     1080     1600     1650     1300     1700     1380   
                                           T        V       H0       H01     AOSYM     SMH    MOLCAS    ERIS     OPER     JKOP   
                                         7000   
                                        PAPT AO    

              2       6        0.81       700     1000      520     2100     2101     7000   
                                         GEOM     BASIS   MCVARS     RHF      RHF     PAPT   

 PROGRAMS   *        TOTAL      PAPT    HF-SCF    HF-SCF       INT
 CPU TIMES  *         0.39      0.09      0.02      0.04      0.14
 REAL TIME  *         4.53 SEC
 DISK USED  *        35.47 MB
 **********************************************************************************************************************************


 PROGRAM * MP4 (Closed-shell)     Authors: C. Hampel, H.-J. Werner, 1991, M. Deegan, P.J. Knowles, 1992


 Convergence thresholds:  THRVAR = 1.00D-08  THRDEN = 1.00D-06

 MP4(T)     terms to be evaluated (factor= 0.000)


 Number of core orbitals:           2 (   2 )
 Number of closed-shell orbitals:   6 (   6 )
 Number of external orbitals:      40 (  40 )

 Molecular orbitals read from record     7000.2  Type=PAPT/CANONICAL (state 1.1)

 Number of N-1 electron functions:               6
 Number of N-2 electron functions:              21
 Number of singly external CSFs:               240
 Number of doubly external CSFs:             28920
 Total number of CSFs:                       29161

 Length of J-op  integral file:               0.00 MB
 Length of K-op  integral file:               0.22 MB

 Memory could be reduced to 0.70 Mwords without degradation in triples

 Integral transformation finished. Total CPU:   0.01 sec, npass=  1  Memory used:   0.58 MW
 Orbital energies read from record       7000.2  Type=PAPT/CANONICAL (state 1.1)

 Reference energy:                    -78.04010818

                        CORR.ENERGY   TOTAL ENERGY   ENERGY CHANGE
 MP2:                   -0.30501696   -78.34512514    -0.30501696

 SCS-MP2 correlation energy:           -0.31022749   (PS=  1.200000  PT=  0.333333)
 SCS-MP2 total energy:                -78.35033567

 MP3(D):                -0.30530374   -78.34541192    -0.00028678
 MP4(DQ):               -0.30221181   -78.34231999     0.00309192
 MP4(SDQ):              -0.30446251   -78.34457069    -0.00225070

 Norm of t1 vector:      0.03992857      S-energy:    -0.00225070      T1 diagnostic:  0.00815038

 Largest off-diagonal element in interal  block of Fock matrix:  0.13D+00
 Largest off-diagonal element in external block of Fock matrix:  0.18D+00


 Total CPU time for triples:      0.05 sec


 RESULTS
 =======

  Reference energy                    -78.040108179107
  MP4(SDQ) singlet pair energy         -0.215421402044
  MP4(SDQ) triplet pair energy         -0.086790411146
  MP4(SDQ) correlation energy          -0.304462514707

  Triples contribution                 -0.011316664564
  Total correlation energy             -0.315779179271

  MP4(SDQ) total energy               -78.344570693814
 !MP4(SDTQ) total energy              -78.355887358378

 Timing summary (sec):

 STEP                 CPU(USER)    SYS     CPU(TOT)    WALL
 Transformation          0.01      0.00      0.01      0.27
 CCSD iterations         0.54      0.00      0.54      0.28
 Triples                 0.05      0.01      0.06      0.05

 Program statistics:

 Available memory in ccsd:               393215848
 Min. memory needed in ccsd:                112753
 Max. memory used in ccsd:                  132769
 Max. memory used in cckext:                144410 ( 1 integral passes)



 **********************************************************************************************************************************
 DATASETS  * FILE   NREC   LENGTH (MB)   RECORD NAMES
              1      22       32.57       500      610      700      900      950      970     1000      129      960     1100   
                                          VAR    BASINP    GEOM    SYMINP    ZMAT    AOBASIS   BASIS     P2S    ABASIS      S 
                                         1400     1410     1200     1210     1080     1600     1650     1300     1700     1380   
                                           T        V       H0       H01     AOSYM     SMH    MOLCAS    ERIS     OPER     JKOP   
                                         7000     1380(1)
                                        PAPT AO   JKOP   

              2       6        0.81       700     1000      520     2100     2101     7000   
                                         GEOM     BASIS   MCVARS     RHF      RHF     PAPT   

 PROGRAMS   *        TOTAL       MP4      PAPT    HF-SCF    HF-SCF       INT
 CPU TIMES  *         0.50      0.11      0.09      0.02      0.04      0.14
 REAL TIME  *         5.24 SEC
 DISK USED  *        37.20 MB
 **********************************************************************************************************************************

 Dump information in style XML to xml output                                                                      

 Orbitals will not be exported.

 **********************************************************************************************************************************

 MP4/cc-pVDZ energy=    -78.355887358378

             MP4            PAPT          HF-SCF          HF-SCF
    -78.35588736    -78.33994762    -78.04010818    -78.04010818
 **********************************************************************************************************************************
 Molpro calculation terminated
