
 Working directory              : /var/folders/2v/xbgp75_9785319ghcgb4zr4r0000gp/T//molpro.HGy9NigEfy/
 Global scratch directory       : /var/folders/2v/xbgp75_9785319ghcgb4zr4r0000gp/T//molpro.HGy9NigEfy/
 Wavefunction directory         : /Users/sacpjk/wfu/
 Main file repository           : /var/folders/2v/xbgp75_9785319ghcgb4zr4r0000gp/T//molpro.HGy9NigEfy/

 id        : peterk

 Nodes                        nprocs
 Cardiff-University-G34YLXT77Y    1
 GA implementation: MPI file
 GA implementation (serial work in mppx): MPI file

 Using customized tuning parameters: mindgm=1; mindgv=20; mindgc=4; mindgr=1; noblas=0; minvec=7
 default implementation of scratch files=df  


 Variables initialized (1032), CPU time= 0.01 sec
 
 symmetry,nosym
 
 
 geometry={
           13
     C         -1.29962070     -0.75666794      0.01298435
     C         -1.20594574      0.65400536      0.01972533
     C          0.00000158      1.33155015      0.18644040
     C          1.20594891      0.65400218      0.01971734
     C          1.29962915     -0.75666265      0.01299234
     H          2.16879749     -1.17936414     -0.48255765
     H          1.03204539     -1.30619735      0.90630825
     H          2.03713290      1.23377407     -0.36536500
     H          0.00000258      2.41110349      0.11904438
     H         -2.03712974      1.23377407     -0.36534172
     H         -2.16879433     -1.17935356     -0.48257670
     H         -0.00000942     -1.03375573     -0.48766898
     H         -1.03205810     -1.30620793      0.90629767
 }
 basis=cc-pVTZ
 
 
 
 hf; ccsd
 
 
 
 {put,xml;noorbitals,nobasis}
 Commands initialized (841), CPU time= 0.00 sec, 704 directives.
 Default parameters read. Elapsed time= 1.22 sec

 Checking input...
 Passed
1


                                         ***  PROGRAM SYSTEM MOLPRO  ***
                                       Copyright, TTI GmbH Stuttgart, 2015
                                    Version 2023.1 linked Tue Jun  6 09:54:11 2023


 **********************************************************************************************************************************
 LABEL *                                                                                                                                                                 
  64 bit serial version                                                                  DATE: 09-Jun-23          TIME: 16:34:46  
 **********************************************************************************************************************************

 SHA1:             8ebb0dd001088a5c915591db1a321413035db0b1
 **********************************************************************************************************************************

 Memory per process:       805 MW
 Total memory per node:   1074 MW
 Total GA space:           268 MW

 GA preallocation disabled
 GA check enabled

 Variable memory set to 805.3 MW

 ZSYMEL=NOSYM


 Geometry recognized as XYZ

 SETTING BASIS          =    CC-PVTZ


 Recomputing integrals since basis changed


 Using spherical harmonics

 Library entry C      S cc-pVTZ              selected for orbital group  1
 Library entry C      P cc-pVTZ              selected for orbital group  1
 Library entry C      D cc-pVTZ              selected for orbital group  1
 Library entry C      F cc-pVTZ              selected for orbital group  1
 Library entry H      S cc-pVTZ              selected for orbital group  2
 Library entry H      P cc-pVTZ              selected for orbital group  2
 Library entry H      D cc-pVTZ              selected for orbital group  2


 PROGRAM * SEWARD (Integral evaluation for generally contracted gaussian basis sets)     Author: Roland Lindh, 1990

 Geometry written to block  1 of record 700


 Point group  C1  



 ATOMIC COORDINATES

 NR  ATOM    CHARGE       X              Y              Z

   1  C       6.00   -2.455927189   -1.429895174    0.024536865
   2  C       6.00   -2.278907170    1.235891014    0.037275471
   3  C       6.00    0.000002986    2.516265105    0.352321295
   4  C       6.00    2.278913160    1.235885005    0.037260373
   5  C       6.00    2.455943157   -1.429885177    0.024551964
   6  H       1.00    4.098433276   -2.228675226   -0.911901798
   7  H       1.00    1.950283135   -2.468355256    1.712674377
   8  H       1.00    3.849623260    2.331495092   -0.690439786
   9  H       1.00    0.000004875    4.556325254    0.224961275
  10  H       1.00   -3.849617289    2.331495092   -0.690395793
  11  H       1.00   -4.098427304   -2.228655233   -0.911937797
  12  H       1.00   -0.000017801   -1.953515209   -0.921560812
  13  H       1.00   -1.950307154   -2.468375250    1.712654384

 Bond lengths in Bohr (Angstrom)

  1- 2  2.671687549   1-11  2.052512863   1-12  2.683424990   1-13  2.045442065   2- 3  2.632877357
       ( 1.413796166)       ( 1.086143032)       ( 1.420007352)       ( 1.082401327)       ( 1.393258697)

  2-10  2.048654203   3- 4  2.632882103   3- 9  2.044031797   4- 5  2.671672096   4- 8  2.048667665
       ( 1.084101117)       ( 1.393261208)       ( 1.081655045)       ( 1.413787988)       ( 1.084108241)

  5- 6  2.052506999   5- 7  2.045450914   5-12  2.683479462
       ( 1.086139929)       ( 1.082406010)       ( 1.420036177)

 Bond angles

  1- 2- 3  122.89823323   1- 2-10  118.75839401   1-12- 5  132.47249780   2- 1-11  116.32740106

  2- 1-12   97.80148335   2- 1-13  119.09567834   2- 3- 4  119.89296999   2- 3- 9  118.54849417

  3- 2-10  116.49106900   3- 4- 5  122.89846759   3- 4- 8  116.49089871   4- 3- 9  118.54845887

  4- 5- 6  116.32826666   4- 5- 7  119.09567108   4- 5-12   97.80101654   5- 4- 8  118.75842205

  6- 5- 7  112.13487529   6- 5-12  119.70854042   7- 5-12   88.03195583  11- 1-12  119.70860643

 11- 1-13  112.13480985  12- 1-13   88.03294460

 NUCLEAR CHARGE:                   38
 NUMBER OF PRIMITIVE AOS:         371
 NUMBER OF SYMMETRY AOS:          338
 NUMBER OF CONTRACTIONS:          262   (  262A   )
 NUMBER OF INNER CORE ORBITALS:     0   (    0A   )
 NUMBER OF OUTER CORE ORBITALS:     5   (    5A   )
 NUMBER OF VALENCE ORBITALS:       28   (   28A   )


 NUCLEAR REPULSION ENERGY  164.93661840


 Eigenvalues of metric

         1 0.239E-03 0.442E-03 0.655E-03 0.804E-03 0.945E-03 0.102E-02 0.123E-02 0.126E-02


 Contracted 2-electron integrals neglected if value below      1.0D-11
 AO integral compression algorithm  1   Integral accuracy      1.0D-11

     2133.328 MB (compressed) written to integral file ( 42.5%)


 NUMBER OF SORTED TWO-ELECTRON INTEGRALS:  593521831.     BUFFER LENGTH:  32768
 NUMBER OF SEGMENTS:  38  SEGMENT LENGTH:   15999762      RECORD LENGTH: 262144

 Memory used in sort:      16.29 MW

 SORT1 READ   626767905. AND WROTE   529201628. INTEGRALS IN   3050 RECORDS. CPU TIME:     5.27 SEC, REAL TIME:     6.89 SEC
 SORT2 READ   529201628. AND WROTE   593521831. INTEGRALS IN   8138 RECORDS. CPU TIME:     3.40 SEC, REAL TIME:     4.78 SEC

 FILE SIZES:   FILE 1:  2166.1 MBYTE,  FILE 4:  6396.4 MBYTE,   TOTAL:   8562.5 MBYTE

 OPERATOR DM      FOR CENTER  0  COORDINATES:    0.000000    0.000000    0.000000


 **********************************************************************************************************************************
 DATASETS  * FILE   NREC   LENGTH (MB)   RECORD NAMES
              1      19     1924.78       500      610      700      900      950      970     1000      129      960     1100   
                                          VAR    BASINP    GEOM    SYMINP    ZMAT    AOBASIS   BASIS     P2S    ABASIS      S 
                                         1400     1410     1200     1210     1080     1600     1650     1300     1700   
                                           T        V       H0       H01     AOSYM     SMH    MOLCAS    ERIS     OPER   

 PROGRAMS   *        TOTAL       INT
 CPU TIMES  *        21.91     21.83
 REAL TIME  *        28.89 SEC
 DISK USED  *         7.97 GB
 **********************************************************************************************************************************


 Program * Restricted Hartree-Fock

 Orbital guess generated from atomic densities. Full valence occupancy:   33

 Initial occupancy:  19

 NELEC=   38   SYM=1   MS2= 0   THRE=1.0D-08   THRD=3.2D-06   THRG=3.2D-06  HFMA2=F  DIIS_START=2   DIIS_MAX=10   DIIS_INCORE=F

 Level shifts:    0.00 (CLOSED)    0.00 (OPEN)    0.30 (GAP_MIN)

 ITER           ETOT              DE          GRAD        DDIFF     DIIS  NEXP   TIME(IT)  TIME(TOT)  DIAG
   1     -193.87233001    -193.87233001     0.00D+00     0.45D-01     0     0       2.34      4.56    start
   2     -193.92523362      -0.05290361     0.28D-02     0.42D-02     1     0       2.28      6.84    diag
   3     -193.93214685      -0.00691323     0.11D-02     0.13D-02     2     0       2.27      9.11    diag
   4     -193.93333067      -0.00118383     0.39D-03     0.55D-03     3     0       2.28     11.39    diag
   5     -193.93339169      -0.00006102     0.99D-04     0.13D-03     4     0       2.29     13.68    diag
   6     -193.93340129      -0.00000960     0.30D-04     0.56D-04     5     0       2.28     15.96    diag
   7     -193.93340285      -0.00000156     0.11D-04     0.19D-04     6     0       2.27     18.23    diag
   8     -193.93340331      -0.00000045     0.44D-05     0.12D-04     7     0       2.28     20.51    fixocc
   9     -193.93340339      -0.00000008     0.17D-05     0.51D-05     8     0       2.32     22.83    diag
  10     -193.93340340      -0.00000001     0.80D-06     0.24D-05     9     0       2.31     25.14    diag/orth
  11     -193.93340341      -0.00000000     0.26D-06     0.73D-06     9     0       2.25     27.39    diag
  12     -193.93340341      -0.00000000     0.92D-07     0.14D-06     0     0       2.27     29.66    diag

 Final occupancy:  19

 !RHF STATE 1.1 Energy               -193.933403406065
  RHF One-electron energy            -586.980301902529
  RHF Two-electron energy             228.110280099259
  RHF Kinetic energy                  193.697057647542
  RHF Nuclear energy                  164.936618397205
  RHF Virial quotient                  -1.001220182492

 !RHF STATE 1.1 Dipole moment          -0.00000056    -0.00021091    -0.09541751
 Dipole moment /Debye                  -0.00000142    -0.00053609    -0.24252712

 Orbital energies:

           1.1          2.1          3.1          4.1          5.1          6.1          7.1          8.1          9.1         10.1
    -11.240075   -11.240035   -11.226002   -11.226001   -11.225261    -1.115872    -1.006607    -0.942203    -0.807523    -0.727067

          11.1         12.1         13.1         14.1         15.1         16.1         17.1         18.1         19.1         20.1
     -0.676788    -0.591271    -0.578319    -0.570469    -0.534358    -0.517466    -0.497906    -0.352594    -0.304056     0.104715

          21.1
      0.143156


 HOMO     19.1    -0.304056 =      -8.2738eV
 LUMO     20.1     0.104715 =       2.8494eV
 LUMO-HOMO         0.408771 =      11.1232eV

 Orbitals saved in record  2100.2


 **********************************************************************************************************************************
 DATASETS  * FILE   NREC   LENGTH (MB)   RECORD NAMES
              1      19     1924.78       500      610      700      900      950      970     1000      129      960     1100   
                                          VAR    BASINP    GEOM    SYMINP    ZMAT    AOBASIS   BASIS     P2S    ABASIS      S 
                                         1400     1410     1200     1210     1080     1600     1650     1300     1700   
                                           T        V       H0       H01     AOSYM     SMH    MOLCAS    ERIS     OPER   

              2       4        1.67       700     1000      520     2100   
                                         GEOM     BASIS   MCVARS     RHF  

 PROGRAMS   *        TOTAL    HF-SCF       INT
 CPU TIMES  *        51.58     29.66     21.83
 REAL TIME  *        63.12 SEC
 DISK USED  *         7.97 GB
 **********************************************************************************************************************************


 PROGRAM * CCSD (Closed-shell coupled cluster)     Authors: C. Hampel, H.-J. Werner, 1991, M. Deegan, P.J. Knowles, 1992


 Convergence thresholds:  THRVAR = 1.00D-08  THRDEN = 1.00D-06

 Number of core orbitals:           5 (   5 )
 Number of closed-shell orbitals:  14 (  14 )
 Number of external orbitals:     243 ( 243 )

 Molecular orbitals read from record     2100.2  Type=RHF/CANONICAL  

 Number of N-1 electron functions:              14
 Number of N-2 electron functions:             105
 Number of singly external CSFs:              3402
 Number of doubly external CSFs:           5788503
 Total number of CSFs:                     5791906

 Length of J-op  integral file:               0.00 MB
 Length of K-op  integral file:               4.78 MB
 Length of 3-ext integral record:             0.00 MB

 Integral transformation finished. Total CPU:  11.36 sec, npass=  1  Memory used: 148.78 MW

 Reference energy:                   -193.93340341

 MP2 singlet pair energy:              -0.55225242
 MP2 triplet pair energy:              -0.31344509
 MP2 correlation energy:               -0.86569752
 MP2 total energy:                   -194.79910092

 SCS-MP2 correlation energy:           -0.85773541   (PS=  1.200000  PT=  0.333333)
 SCS-MP2 total energy:               -194.79113882

 ITER.      SQ.NORM     CORR.ENERGY   TOTAL ENERGY   ENERGY CHANGE        DEN1      VAR(S)    VAR(P)  DIIS     TIME  TIME/IT
   1      1.30475423    -0.89074748  -194.82415089    -0.02504997    -0.00133041  0.36D-02  0.65D-02  1  1    77.91    15.72
   2      1.32673287    -0.89406418  -194.82746759    -0.00331670    -0.02132983  0.60D-04  0.81D-03  2  2    93.20    16.14
   3      1.33542552    -0.89416798  -194.82757138    -0.00010379    -0.00451241  0.37D-04  0.78D-04  3  3   108.78    16.40
   4      1.33890705    -0.89426814  -194.82767154    -0.00010016    -0.00106565  0.39D-05  0.13D-04  4  4   124.04    16.41
   5      1.34032245    -0.89431011  -194.82771352    -0.00004197    -0.00030843  0.16D-05  0.14D-05  5  5   139.39    16.46
   6      1.34073444    -0.89430178  -194.82770518     0.00000834    -0.00005392  0.26D-06  0.14D-06  6  6   154.89    16.53
   7      1.34081336    -0.89430124  -194.82770465     0.00000054    -0.00000183  0.11D-06  0.14D-07  6  2   170.48    16.60
   8      1.34084201    -0.89430110  -194.82770451     0.00000014    -0.00000284  0.19D-07  0.51D-08  6  1   186.25    16.69
   9      1.34085264    -0.89430104  -194.82770445     0.00000006    -0.00000016  0.27D-08  0.10D-08  6  3   200.99    16.59

 Norm of t1 vector:      0.08085082      S-energy:    -0.00000064      T1 diagnostic:  0.01080415
                                                                       D1 diagnostic:  0.03357789
                                                                       D2 diagnostic:  0.19826722 (internal)

 Doubles amplitudes (print threshold =  0.500E-01):

         I         J         SYM. A    SYM. B    A         B      T(IJ, AB)

        14        14         1         1         1         1     -0.09181462


 RESULTS
 =======

  Reference energy                   -193.933403406066
  CCSD singlet pair energy             -0.612698547855
  CCSD triplet pair energy             -0.281601850244
  CCSD correlation energy              -0.894301039965

 !CCSD total energy                  -194.827704446031

 Timing summary (sec):

 STEP                 CPU(USER)    SYS     CPU(TOT)    WALL
 Transformation         11.56      1.75     13.31     13.28
 CCSD iterations       189.58      7.51    197.09    149.54

 Program statistics:

 Available memory in ccsd:               805305565
 Min. memory needed in ccsd:              14535538
 Max. memory used in ccsd:                19778069
 Max. memory used in cckext:              15061820 ( 9 integral passes)



 **********************************************************************************************************************************
 DATASETS  * FILE   NREC   LENGTH (MB)   RECORD NAMES
              1      20     2777.89       500      610      700      900      950      970     1000      129      960     1100   
                                          VAR    BASINP    GEOM    SYMINP    ZMAT    AOBASIS   BASIS     P2S    ABASIS      S 
                                         1400     1410     1200     1210     1080     1600     1650     1300     1700     1380   
                                           T        V       H0       H01     AOSYM     SMH    MOLCAS    ERIS     OPER     JKOP   

              2       4        1.67       700     1000      520     2100   
                                         GEOM     BASIS   MCVARS     RHF  

 PROGRAMS   *        TOTAL      CCSD    HF-SCF       INT
 CPU TIMES  *       201.05    149.47     29.66     21.83
 REAL TIME  *       226.03 SEC
 DISK USED  *         7.97 GB
 **********************************************************************************************************************************

 Dump information in style XML to xml output                                                                      

 Orbitals will not be exported.

 **********************************************************************************************************************************

 CCSD/cc-pVTZ energy=   -194.827704446031

            CCSD          HF-SCF
   -194.82770445   -193.93340341
 **********************************************************************************************************************************
 Molpro calculation terminated
