
 Working directory              : /tmp/peterk/molpro.EY5acgUzWL/
 Global scratch directory       : /tmp/peterk/molpro.EY5acgUzWL/
 Wavefunction directory         : /home/peterk/wfu/
 Main file repository           : /tmp/peterk/molpro.EY5acgUzWL/

 id        : peterk

 Nodes     nprocs
 marat        1
 GA implementation: MPI file
 GA implementation (serial work in mppx): MPI file

 Using customized tuning parameters: mindgm=1; mindgv=20; mindgc=4; mindgr=1; noblas=0; minvec=7
 default implementation of scratch files=df  


 Variables initialized (1032), CPU time= 0.00 sec
 
 symmetry,nosym
 
 
 geometry={
            5
     C          0.00000000      0.00000000      0.06556637
     F          0.00000000      0.00000000     -1.31562859
     H          0.51491633     -0.89186125      0.41668741
     H          0.51491633      0.89186125      0.41668741
     H         -1.02983267      0.00000000      0.41668741
 }
 basis=cc-pVQZ
 
 
 
 hf; ccsd
 
 
 
 {put,xml;noorbitals,nobasis}
 Commands initialized (841), CPU time= 0.01 sec, 708 directives.
 Default parameters read. Elapsed time= 0.06 sec

 Checking input...
 Passed
1


                                         ***  PROGRAM SYSTEM MOLPRO  ***
                                       Copyright, TTI GmbH Stuttgart, 2015
                                    Version 2023.1 linked Sat Jun 10 08:01:27 2023


 **********************************************************************************************************************************
 LABEL *                                                                                                                                                                 
  (16 PROC) 64 bit serial version                                                        DATE: 10-Jun-23          TIME: 19:34:40  
 **********************************************************************************************************************************

 SHA1:             8376d659ba1296ca7ee514c57770fe2c96af278c
 **********************************************************************************************************************************

 Memory per process:      1074 MW
 Total memory per node:   1074 MW

 GA preallocation disabled
 GA check disabled

 Variable memory set to 1073.7 MW

 ZSYMEL=NOSYM


 Geometry recognized as XYZ

 SETTING BASIS          =    CC-PVQZ


 Recomputing integrals since basis changed


 Using spherical harmonics

 Library entry C      S cc-pVQZ              selected for orbital group  1
 Library entry C      P cc-pVQZ              selected for orbital group  1
 Library entry C      D cc-pVQZ              selected for orbital group  1
 Library entry C      F cc-pVQZ              selected for orbital group  1
 Library entry C      G cc-pVQZ              selected for orbital group  1
 Library entry F      S cc-pVQZ              selected for orbital group  2
 Library entry F      P cc-pVQZ              selected for orbital group  2
 Library entry F      D cc-pVQZ              selected for orbital group  2
 Library entry F      F cc-pVQZ              selected for orbital group  2
 Library entry F      G cc-pVQZ              selected for orbital group  2
 Library entry H      S cc-pVQZ              selected for orbital group  3
 Library entry H      P cc-pVQZ              selected for orbital group  3
 Library entry H      D cc-pVQZ              selected for orbital group  3
 Library entry H      F cc-pVQZ              selected for orbital group  3


 PROGRAM * SEWARD (Integral evaluation for generally contracted gaussian basis sets)     Author: Roland Lindh, 1990

 Geometry written to block  1 of record 700


 Point group  C1  



 ATOMIC COORDINATES

 NR  ATOM    CHARGE       X              Y              Z

   1  C       6.00    0.000000000    0.000000000    0.123902482
   2  F       9.00    0.000000000    0.000000000   -2.486177717
   3  H       1.00    0.973050841   -1.685373504    0.787425084
   4  H       1.00    0.973050841    1.685373504    0.787425084
   5  H       1.00   -1.946101700    0.000000000    0.787425084

 Bond lengths in Bohr (Angstrom)

 1-2  2.610080199  1-3  2.056106522  1-4  2.056106522  1-5  2.056106532
     ( 1.381194960)     ( 1.088044715)     ( 1.088044715)     ( 1.088044720)

 Bond angles

  2-1-3  108.82678959   2-1-4  108.82678959   2-1-5  108.82678949   3-1-4  110.10789247

  3-1-5  110.10789219   4-1-5  110.10789219

 NUCLEAR CHARGE:                   18
 NUMBER OF PRIMITIVE AOS:         277
 NUMBER OF SYMMETRY AOS:          232
 NUMBER OF CONTRACTIONS:          200   (  200A   )
 NUMBER OF INNER CORE ORBITALS:     0   (    0A   )
 NUMBER OF OUTER CORE ORBITALS:     2   (    2A   )
 NUMBER OF VALENCE ORBITALS:       11   (   11A   )


 NUCLEAR REPULSION ENERGY   37.42306171


 Eigenvalues of metric

         1 0.155E-03 0.288E-03 0.288E-03 0.438E-03 0.492E-03 0.164E-02 0.164E-02 0.166E-02


 Contracted 2-electron integrals neglected if value below      1.0D-11
 AO integral compression algorithm  1   Integral accuracy      1.0D-11

     752.878 MB (compressed) written to integral file ( 40.6%)


 NUMBER OF SORTED TWO-ELECTRON INTEGRALS:  202015050.     BUFFER LENGTH:  32768
 NUMBER OF SEGMENTS:  13  SEGMENT LENGTH:   15999503      RECORD LENGTH: 524288

 Memory used in sort:      16.56 MW

 SORT1 READ   231754055. AND WROTE   165269791. INTEGRALS IN    480 RECORDS. CPU TIME:     1.52 SEC, REAL TIME:     2.76 SEC
 SORT2 READ   165269791. AND WROTE   202015050. INTEGRALS IN   2872 RECORDS. CPU TIME:     1.55 SEC, REAL TIME:     2.12 SEC

 FILE SIZES:   FILE 1:   784.4 MBYTE,  FILE 4:  2013.3 MBYTE,   TOTAL:   2797.8 MBYTE

 OPERATOR DM      FOR CENTER  0  COORDINATES:    0.000000    0.000000    0.000000


 **********************************************************************************************************************************
 DATASETS  * FILE   NREC   LENGTH (MB)   RECORD NAMES
              1      19      670.81       500      610      700      900      950      970     1000      129      960     1100   
                                          VAR    BASINP    GEOM    SYMINP    ZMAT    AOBASIS   BASIS     P2S    ABASIS      S 
                                         1400     1410     1200     1210     1080     1600     1650     1300     1700   
                                           T        V       H0       H01     AOSYM     SMH    MOLCAS    ERIS     OPER   

 PROGRAMS   *        TOTAL       INT
 CPU TIMES  *         9.40      9.29
 REAL TIME  *        12.68 SEC
 DISK USED  *         2.61 GB
 **********************************************************************************************************************************


 Program * Restricted Hartree-Fock

 Orbital guess generated from atomic densities. Full valence occupancy:   13

 Initial occupancy:   9

 NELEC=   18   SYM=1   MS2= 0   THRE=1.0D-08   THRD=3.2D-06   THRG=3.2D-06  HFMA2=F  DIIS_START=2   DIIS_MAX=10   DIIS_INCORE=F

 Level shifts:    0.00 (CLOSED)    0.00 (OPEN)    0.30 (GAP_MIN)

 ITER           ETOT              DE          GRAD        DDIFF     DIIS  NEXP   TIME(IT)  TIME(TOT)  DIAG
   1     -139.08025149    -139.08025149     0.00D+00     0.42D-01     0     0       1.08      2.14    start
   2     -139.10077916      -0.02052768     0.42D-02     0.32D-02     1     0       1.05      3.19    diag
   3     -139.10580535      -0.00502619     0.23D-02     0.12D-02     2     0       1.07      4.26    diag
   4     -139.10615964      -0.00035428     0.44D-03     0.34D-03     3     0       1.07      5.33    diag
   5     -139.10618202      -0.00002238     0.91D-04     0.90D-04     4     0       1.07      6.40    diag
   6     -139.10618308      -0.00000106     0.20D-04     0.25D-04     5     0       1.09      7.49    diag
   7     -139.10618314      -0.00000006     0.46D-05     0.57D-05     6     0       1.08      8.57    diag
   8     -139.10618314      -0.00000000     0.10D-05     0.13D-05     7     0       1.08      9.65    fixocc
   9     -139.10618314      -0.00000000     0.26D-06     0.24D-06     0     0       1.05     10.70    diag

 Final occupancy:   9

 !RHF STATE 1.1 Energy               -139.106183140667
  RHF One-electron energy            -266.574876983519
  RHF Two-electron energy              90.045632129812
  RHF Kinetic energy                  139.023453821899
  RHF Nuclear energy                   37.423061713039
  RHF Virial quotient                  -1.000595074547

 !RHF STATE 1.1 Dipole moment           0.00000000    -0.00000000     0.80112756
 Dipole moment /Debye                   0.00000000    -0.00000000     2.03626316

 Orbital energies:

           1.1          2.1          3.1          4.1          5.1          6.1          7.1          8.1          9.1         10.1
    -26.272915   -11.303844    -1.585321    -0.954563    -0.695305    -0.695305    -0.673724    -0.530411    -0.530411     0.116886

          11.1
      0.185448


 HOMO      9.1    -0.530411 =     -14.4332eV
 LUMO     10.1     0.116886 =       3.1806eV
 LUMO-HOMO         0.647297 =      17.6139eV

 Orbitals saved in record  2100.2


 **********************************************************************************************************************************
 DATASETS  * FILE   NREC   LENGTH (MB)   RECORD NAMES
              1      19      670.81       500      610      700      900      950      970     1000      129      960     1100   
                                          VAR    BASINP    GEOM    SYMINP    ZMAT    AOBASIS   BASIS     P2S    ABASIS      S 
                                         1400     1410     1200     1210     1080     1600     1650     1300     1700   
                                           T        V       H0       H01     AOSYM     SMH    MOLCAS    ERIS     OPER   

              2       4        1.09       700     1000      520     2100   
                                         GEOM     BASIS   MCVARS     RHF  

 PROGRAMS   *        TOTAL    HF-SCF       INT
 CPU TIMES  *        20.10     10.70      9.29
 REAL TIME  *        24.40 SEC
 DISK USED  *         2.61 GB
 **********************************************************************************************************************************


 PROGRAM * CCSD (Closed-shell coupled cluster)     Authors: C. Hampel, H.-J. Werner, 1991, M. Deegan, P.J. Knowles, 1992


 Convergence thresholds:  THRVAR = 1.00D-08  THRDEN = 1.00D-06

 Number of core orbitals:           2 (   2 )
 Number of closed-shell orbitals:   7 (   7 )
 Number of external orbitals:     191 ( 191 )

 Molecular orbitals read from record     2100.2  Type=RHF/CANONICAL  

 Number of N-1 electron functions:               7
 Number of N-2 electron functions:              28
 Number of singly external CSFs:              1337
 Number of doubly external CSFs:            894453
 Total number of CSFs:                      895791

 Length of J-op  integral file:               0.00 MB
 Length of K-op  integral file:               2.81 MB
 Length of 3-ext integral record:             0.00 MB

 Integral transformation finished. Total CPU:   4.12 sec, npass=  1  Memory used:  34.91 MW

 Reference energy:                   -139.10618314

 MP2 singlet pair energy:              -0.30949134
 MP2 triplet pair energy:              -0.16024160
 MP2 correlation energy:               -0.46973295
 MP2 total energy:                   -139.57591609

 SCS-MP2 correlation energy:           -0.47109550   (PS=  1.200000  PT=  0.333333)
 SCS-MP2 total energy:               -139.57727864

 ITER.      SQ.NORM     CORR.ENERGY   TOTAL ENERGY   ENERGY CHANGE        DEN1      VAR(S)    VAR(P)  DIIS     TIME  TIME/IT
   1      1.10622297    -0.48151267  -139.58769581    -0.01177972    -0.00083084  0.17D-02  0.17D-02  1  1    28.07     3.60
   2      1.11320501    -0.48199602  -139.58817916    -0.00048335    -0.00928789  0.17D-04  0.23D-03  2  2    31.61     3.69
   3      1.11567962    -0.48208867  -139.58827181    -0.00009264    -0.00171394  0.15D-04  0.11D-04  3  3    35.19     3.72
   4      1.11634036    -0.48202697  -139.58821011     0.00006170    -0.00040017  0.35D-06  0.12D-05  4  4    38.70     3.70
   5      1.11649245    -0.48203029  -139.58821343    -0.00000332    -0.00005531  0.62D-07  0.70D-07  5  5    42.22     3.70
   6      1.11651652    -0.48202893  -139.58821207     0.00000136    -0.00000548  0.73D-08  0.56D-08  6  6    45.76     3.70
   7      1.11652130    -0.48202805  -139.58821119     0.00000088    -0.00000166  0.80D-09  0.70D-09  6  2    49.30     3.70
   8      1.11652170    -0.48202804  -139.58821118     0.00000001     0.00000013  0.12D-09  0.48D-10  6  1    52.84     3.70

 Norm of t1 vector:      0.04965704      S-energy:    -0.00000002      T1 diagnostic:  0.00938430
                                                                       D1 diagnostic:  0.02031713
                                                                       D2 diagnostic:  0.13440997 (internal)


 RESULTS
 =======

  Reference energy                   -139.106183140668
  CCSD singlet pair energy             -0.335952387570
  CCSD triplet pair energy             -0.146075628146
  CCSD correlation energy              -0.482028039565

 !CCSD total energy                  -139.588211180232

 Timing summary (sec):

 STEP                 CPU(USER)    SYS     CPU(TOT)    WALL
 Transformation          4.16      0.45      4.61      4.62
 CCSD iterations        48.72      1.26     49.98     29.66

 Program statistics:

 Available memory in ccsd:              1073741619
 Min. memory needed in ccsd:               2832657
 Max. memory used in ccsd:                 3575462
 Max. memory used in cckext:               2555320 ( 8 integral passes)



 **********************************************************************************************************************************
 DATASETS  * FILE   NREC   LENGTH (MB)   RECORD NAMES
              1      20      871.30       500      610      700      900      950      970     1000      129      960     1100   
                                          VAR    BASINP    GEOM    SYMINP    ZMAT    AOBASIS   BASIS     P2S    ABASIS      S 
                                         1400     1410     1200     1210     1080     1600     1650     1300     1700     1380   
                                           T        V       H0       H01     AOSYM     SMH    MOLCAS    ERIS     OPER     JKOP   

              2       4        1.09       700     1000      520     2100   
                                         GEOM     BASIS   MCVARS     RHF  

 PROGRAMS   *        TOTAL      CCSD    HF-SCF       INT
 CPU TIMES  *        52.60     32.50     10.70      9.29
 REAL TIME  *        60.52 SEC
 DISK USED  *         2.61 GB
 **********************************************************************************************************************************

 Dump information in style XML to xml output                                                                      

 Orbitals will not be exported.

 **********************************************************************************************************************************

 CCSD/cc-pVQZ energy=   -139.588211180232

            CCSD          HF-SCF
   -139.58821118   -139.10618314
 **********************************************************************************************************************************
 Molpro calculation terminated
