
 Working directory              : /tmp/peterk/molpro.UU7FQ8mZOD/
 Global scratch directory       : /tmp/peterk/molpro.UU7FQ8mZOD/
 Wavefunction directory         : /home/peterk/wfu/
 Main file repository           : /tmp/peterk/molpro.UU7FQ8mZOD/

 id        : peterk

 Nodes     nprocs
 marat        1
 GA implementation: MPI file
 GA implementation (serial work in mppx): MPI file

 Using customized tuning parameters: mindgm=1; mindgv=20; mindgc=4; mindgr=1; noblas=0; minvec=7
 default implementation of scratch files=df  


 Variables initialized (1032), CPU time= 0.00 sec
 
 core,small
 angstrom
 
 geometry={
 C1;C2,C1,1.33117445;H11,C1,1.08089487,C2,121.44926360;H12,C1,1.08089487,C2,121.44926360,H11,180;H21,C2,1.08089487,C1,121.44926360,H11,0;H22,C2,1.08089487,C1,121.44926360,H12,0
 }
 basis=cc-pCV5Z
 
 
 
 hf; ccsd(t)
 
 
 
 {put,xml;noorbitals,nobasis}
 Commands initialized (841), CPU time= 0.01 sec, 708 directives.
 Default parameters read. Elapsed time= 0.05 sec

 Checking input...
 Passed
1


                                         ***  PROGRAM SYSTEM MOLPRO  ***
                                       Copyright, TTI GmbH Stuttgart, 2015
                                    Version 2023.1 linked Sat Jun 10 08:01:27 2023


 **********************************************************************************************************************************
 LABEL *                                                                                                                                                                 
  (16 PROC) 64 bit serial version                                                        DATE: 12-Jun-23          TIME: 12:52:13  
 **********************************************************************************************************************************

 SHA1:             8376d659ba1296ca7ee514c57770fe2c96af278c
 **********************************************************************************************************************************

 Memory per process:      1074 MW
 Total memory per node:   1074 MW

 GA preallocation disabled
 GA check disabled

 Variable memory set to 1073.7 MW

 ZUNIT=ANG

 SETTING BASIS          =    CC-PCV5Z


 Recomputing integrals since basis changed


 Using spherical harmonics

 Library entry C      S cc-pCV5Z             selected for orbital group  1
 Library entry C      P cc-pCV5Z             selected for orbital group  1
 Library entry C      D cc-pCV5Z             selected for orbital group  1
 Library entry C      F cc-pCV5Z             selected for orbital group  1
 Library entry C      G cc-pCV5Z             selected for orbital group  1
 Library entry C      H cc-pCV5Z             selected for orbital group  1
 Library entry H      S cc-pV5Z              selected for orbital group  2
 Library entry H      P cc-pV5Z              selected for orbital group  2
 Library entry H      D cc-pV5Z              selected for orbital group  2
 Library entry H      F cc-pV5Z              selected for orbital group  2
 Library entry H      G cc-pV5Z              selected for orbital group  2


 PROGRAM * SEWARD (Integral evaluation for generally contracted gaussian basis sets)     Author: Roland Lindh, 1990

 Geometry written to block  1 of record 700

 Orientation using atomic masses  
 Molecule type: Asymmetric top,     Order of principal axis = 2
 Symmetry elements: X,Y,Z
 Rotational constants:      25.0620134     30.1953945    147.4188996 GHz  (calculated with average atomic masses)

 Point group  D2h 



 ATOMIC COORDINATES

 NR  ATOM    CHARGE       X              Y              Z

   1  C1      6.00    0.000000000    0.000000000   -1.257777567
   2  C2      6.00    0.000000000    0.000000000    1.257777567
   3  H11     1.00    0.000000000    1.742543158   -2.323488032
   4  H12     1.00    0.000000000   -1.742543158   -2.323488032
   5  H21     1.00    0.000000000    1.742543158    2.323488032
   6  H22     1.00    0.000000000   -1.742543158    2.323488032

 Bond lengths in Bohr (Angstrom)

 1-2  2.515555135  1-3  2.042595274  1-4  2.042595274  2-5  2.042595274  2-6  2.042595274
     ( 1.331174450)     ( 1.080894870)     ( 1.080894870)     ( 1.080894870)     ( 1.080894870)

 Bond angles

  1-2-5  121.44926360   1-2-6  121.44926360   2-1-3  121.44926360   2-1-4  121.44926360

  3-1-4  117.10147280   5-2-6  117.10147280

 NUCLEAR CHARGE:                   16
 NUMBER OF PRIMITIVE AOS:         716
 NUMBER OF SYMMETRY AOS:          556
 NUMBER OF CONTRACTIONS:          510   (   90Ag  +   55B3u +   70B2u +   40B1g +   90B1u +   55B2g +   70B3g +   40Au  )
 NUMBER OF INNER CORE ORBITALS:     0   (    0Ag  +    0B3u +    0B2u +    0B1g +    0B1u +    0B2g +    0B3g +    0Au  )
 NUMBER OF OUTER CORE ORBITALS:     2   (    1Ag  +    0B3u +    0B2u +    0B1g +    1B1u +    0B2g +    0B3g +    0Au  )
 NUMBER OF VALENCE ORBITALS:       12   (    3Ag  +    1B3u +    2B2u +    0B1g +    3B1u +    1B2g +    2B3g +    0Au  )


 NUCLEAR REPULSION ENERGY   33.43534958


 Eigenvalues of metric

         1 0.240E-05 0.335E-04 0.128E-03 0.247E-03 0.414E-03 0.521E-03 0.679E-03 0.690E-03
         2 0.389E-03 0.103E-02 0.101E-01 0.202E-01 0.272E-01 0.375E-01 0.424E-01 0.449E-01
         3 0.301E-04 0.156E-03 0.297E-03 0.468E-03 0.819E-03 0.247E-02 0.466E-02 0.546E-02
         4 0.131E-02 0.135E-01 0.310E-01 0.375E-01 0.485E-01 0.661E-01 0.866E-01 0.132E+00
         5 0.215E-05 0.205E-04 0.227E-04 0.103E-03 0.152E-03 0.201E-03 0.234E-03 0.424E-03
         6 0.377E-03 0.485E-03 0.794E-03 0.274E-02 0.846E-02 0.222E-01 0.308E-01 0.313E-01
         7 0.170E-04 0.794E-04 0.145E-03 0.163E-03 0.332E-03 0.416E-03 0.537E-03 0.145E-02
         8 0.998E-03 0.559E-02 0.807E-02 0.139E-01 0.288E-01 0.453E-01 0.563E-01 0.622E-01


 Contracted 2-electron integrals neglected if value below      1.0D-12
 AO integral compression algorithm  1   Integral accuracy      1.0D-12

     6355.157 MB (compressed) written to integral file ( 54.4%)


 NUMBER OF SORTED TWO-ELECTRON INTEGRALS: 1074179040.     BUFFER LENGTH:  32768
 NUMBER OF SEGMENTS:  34  SEGMENT LENGTH:   31999800      RECORD LENGTH: 524288

 Memory used in sort:      32.56 MW

 SORT1 READ  1459407448. AND WROTE  1042779424. INTEGRALS IN   3002 RECORDS. CPU TIME:    71.60 SEC, REAL TIME:   580.59 SEC
 SORT2 READ  1042779424. AND WROTE  1074179040. INTEGRALS IN  24243 RECORDS. CPU TIME:    13.14 SEC, REAL TIME:    64.41 SEC

 FILE SIZES:   FILE 1:  6391.0 MBYTE,  FILE 4: 12591.4 MBYTE,   TOTAL:  18982.4 MBYTE

 OPERATOR DM      FOR CENTER  0  COORDINATES:    0.000000    0.000000    0.000000


 **********************************************************************************************************************************
 DATASETS  * FILE   NREC   LENGTH (MB)   RECORD NAMES
              1      19     4745.04       500      610      700      900      950      970     1000      129      960     1100   
                                          VAR    BASINP    GEOM    SYMINP    ZMAT    AOBASIS   BASIS     P2S    ABASIS      S 
                                         1400     1410     1200     1210     1080     1600     1650     1300     1700   
                                           T        V       H0       H01     AOSYM     SMH    MOLCAS    ERIS     OPER   

 PROGRAMS   *        TOTAL       INT
 CPU TIMES  *       257.27    257.17
 REAL TIME  *      1022.41 SEC
 DISK USED  *        17.68 GB
 **********************************************************************************************************************************


 Program * Restricted Hartree-Fock

 Orbital guess generated from atomic densities. Full valence occupancy:    4   1   2   0   4   1   2   0


 Initial occupancy:   3   1   1   0   2   0   1   0

 NELEC=   16   SYM=1   MS2= 0   THRE=1.0D-08   THRD=3.2D-06   THRG=3.2D-06  HFMA2=F  DIIS_START=2   DIIS_MAX=10   DIIS_INCORE=F

 Level shifts:    0.00 (CLOSED)    0.00 (OPEN)    0.30 (GAP_MIN)

 ITER           ETOT              DE          GRAD        DDIFF     DIIS  NEXP   TIME(IT)  TIME(TOT)  DIAG
   1      -78.04658943     -78.04658943     0.00D+00     0.43D-01     0     0       1.51      2.99    start
   2      -78.06789519      -0.02130575     0.51D-02     0.35D-02     1     0       1.60      4.59    diag
   3      -78.07026744      -0.00237225     0.18D-02     0.95D-03     2     0       1.59      6.18    diag
   4      -78.07059630      -0.00032886     0.52D-03     0.40D-03     3     0       1.60      7.78    diag
   5      -78.07060208      -0.00000577     0.63D-04     0.65D-04     4     0       1.56      9.34    diag
   6      -78.07060229      -0.00000021     0.10D-04     0.15D-04     5     0       1.57     10.91    diag
   7      -78.07060230      -0.00000001     0.25D-05     0.35D-05     6     0       1.56     12.47    diag
   8      -78.07060230      -0.00000000     0.40D-06     0.74D-06     7     0       1.56     14.03    fixocc
   9      -78.07060230      -0.00000000     0.50D-07     0.91D-07     0     0       1.57     15.60    diag

 Final occupancy:   3   1   1   0   2   0   1   0

 !RHF STATE 1.1 Energy                -78.070602298501
  RHF One-electron energy            -170.201994518428
  RHF Two-electron energy              58.696042641029
  RHF Kinetic energy                   77.969036216379
  RHF Nuclear energy                   33.435349578897
  RHF Virial quotient                  -1.001302646372

 !RHF STATE 1.1 Dipole moment           0.00000000     0.00000000     0.00000000
 Dipole moment /Debye                   0.00000000     0.00000000     0.00000000

 Orbital energies:

           1.1          2.1          3.1          4.1          5.1
    -11.229772    -1.034580    -0.588597     0.106078     0.207809

           1.2          2.2          3.2
     -0.377630     0.218081     0.606500

           1.3          2.3          3.3
     -0.644658     0.123533     0.300715

           1.4          2.4
      0.437585     0.794031

           1.5          2.5          3.5          4.5
    -11.228035    -0.793422     0.113648     0.245219

           1.6          2.6
      0.128701     0.324739

           1.7          2.7          3.7
     -0.508260     0.157350     0.416084

           1.8          2.8
      0.556529     1.063712


 HOMO      1.2    -0.377630 =     -10.2758eV
 LUMO      4.1     0.106078 =       2.8865eV
 LUMO-HOMO         0.483708 =      13.1624eV

 Orbitals saved in record  2100.2


 **********************************************************************************************************************************
 DATASETS  * FILE   NREC   LENGTH (MB)   RECORD NAMES
              1      19     4745.04       500      610      700      900      950      970     1000      129      960     1100   
                                          VAR    BASINP    GEOM    SYMINP    ZMAT    AOBASIS   BASIS     P2S    ABASIS      S 
                                         1400     1410     1200     1210     1080     1600     1650     1300     1700   
                                           T        V       H0       H01     AOSYM     SMH    MOLCAS    ERIS     OPER   

              2       4        1.07       700     1000      520     2100   
                                         GEOM     BASIS   MCVARS     RHF  

 PROGRAMS   *        TOTAL    HF-SCF       INT
 CPU TIMES  *       272.87     15.59    257.17
 REAL TIME  *      1040.71 SEC
 DISK USED  *        17.68 GB
 **********************************************************************************************************************************


 PROGRAM * CCSD (Closed-shell coupled cluster)     Authors: C. Hampel, H.-J. Werner, 1991, M. Deegan, P.J. Knowles, 1992


 CORETYPE=SMALL

 Convergence thresholds:  THRVAR = 1.00D-08  THRDEN = 1.00D-06

 CCSD(T)     terms to be evaluated (factor= 1.000)


 Number of closed-shell orbitals:   8 (   3   1   1   0   2   0   1   0 )
 Number of external orbitals:     502 (  87  54  69  40  88  55  69  40 )

 Molecular orbitals read from record     2100.2  Type=RHF/CANONICAL  

 Number of N-1 electron functions:               8
 Number of N-2 electron functions:              36
 Number of singly external CSFs:               629
 Number of doubly external CSFs:           1048994
 Total number of CSFs:                     1049624

 Length of J-op  integral file:               0.00 MB
 Length of K-op  integral file:               2.48 MB
 Length of 3-ext integral record:             0.00 MB

 Memory could be reduced to 171.18 Mwords without degradation in triples

 Integral transformation finished. Total CPU:   7.67 sec, npass=  1  Memory used:  43.55 MW

 Reference energy:                    -78.07060230

 MP2 singlet pair energy:              -0.34550924
 MP2 triplet pair energy:              -0.12620282
 MP2 correlation energy:               -0.47171206
 MP2 total energy:                    -78.54231436

 SCS-MP2 correlation energy:           -0.49313729   (PS=  1.200000  PT=  0.333333)
 SCS-MP2 total energy:                -78.56373959

 ITER.      SQ.NORM     CORR.ENERGY   TOTAL ENERGY   ENERGY CHANGE        DEN1      VAR(S)    VAR(P)  DIIS     TIME  TIME/IT
   1      1.12728648    -0.49028488   -78.56088718    -0.01857282    -0.00742467  0.19D-02  0.19D-02  1  1   288.76     8.48
   2      1.13680461    -0.49206418   -78.56266648    -0.00177930    -0.00968687  0.48D-04  0.37D-03  2  2   296.58     8.57
   3      1.14123467    -0.49227866   -78.56288096    -0.00021448    -0.00230091  0.19D-04  0.51D-04  3  3   304.57     8.62
   4      1.14379157    -0.49228408   -78.56288638    -0.00000542    -0.00106004  0.15D-05  0.50D-05  4  4   312.48     8.65
   5      1.14442662    -0.49230117   -78.56290347    -0.00001709    -0.00010475  0.11D-06  0.29D-06  5  5   320.53     8.70
   6      1.14452830    -0.49229975   -78.56290205     0.00000142    -0.00000709  0.69D-08  0.17D-07  6  6   328.56     8.73
   7      1.14454062    -0.49229905   -78.56290135     0.00000070    -0.00000279  0.68D-09  0.12D-08  6  1   336.66     8.74
   8      1.14454183    -0.49229896   -78.56290126     0.00000009     0.00000003  0.91D-10  0.77D-10  6  2   344.58     8.75

 Norm of t1 vector:      0.05955734      S-energy:     0.00000007      T1 diagnostic:  0.01052835
                                                                       D1 diagnostic:  0.03525482
                                                                       D2 diagnostic:  0.19299218 (internal)

 Doubles amplitudes (print threshold =  0.500E-01):

         I         J         SYM. A    SYM. B    A         B      T(IJ, AB)

         4         4         6         6         1         1     -0.08820627
         4         4         6         6         1         2      0.06229979
         4         4         6         6         2         1      0.06229979


 Total CPU time for triples:     87.39 sec


 RESULTS
 =======

  Reference energy                    -78.070602298501

  Correlated core orbitals:             1.1       1.5
  Orbital energies:                   -11.2298  -11.2280

  CCSD core-core energy                -0.083596201681
  CCSD core-valence energy             -0.028252866469
  CCSD valence correlation energy      -0.380449893095

  CCSD singlet pair energy             -0.374971112755
  CCSD triplet pair energy             -0.117327922942
  CCSD correlation energy              -0.492298961245

  Triples (T) contribution             -0.017713606895
  Total correlation energy             -0.510012568140

  CCSD total energy                   -78.562901259746
  CCSD[T] energy                      -78.581202117431
  CCSD-T energy                       -78.580426682667
 !CCSD(T) total energy                -78.580614866641

 Timing summary (sec):

 STEP                 CPU(USER)    SYS     CPU(TOT)    WALL
 Transformation          7.70      1.36      9.06      9.06
 CCSD iterations       336.90      6.46    343.36     70.17
 Triples                87.39      2.32     89.71     89.72

 Program statistics:

 Available memory in ccsd:              1073741565
 Min. memory needed in ccsd:               3083803
 Max. memory used in ccsd:                 3992072
 Max. memory used in cckext:               3789416 ( 8 integral passes)



 **********************************************************************************************************************************
 DATASETS  * FILE   NREC   LENGTH (MB)   RECORD NAMES
              1      20     5249.44       500      610      700      900      950      970     1000      129      960     1100   
                                          VAR    BASINP    GEOM    SYMINP    ZMAT    AOBASIS   BASIS     P2S    ABASIS      S 
                                         1400     1410     1200     1210     1080     1600     1650     1300     1700     1380   
                                           T        V       H0       H01     AOSYM     SMH    MOLCAS    ERIS     OPER     JKOP   

              2       4        1.07       700     1000      520     2100   
                                         GEOM     BASIS   MCVARS     RHF  

 PROGRAMS   *        TOTAL   CCSD(T)    HF-SCF       INT
 CPU TIMES  *       431.54    158.66     15.59    257.17
 REAL TIME  *      1209.85 SEC
 DISK USED  *        17.68 GB
 **********************************************************************************************************************************

 Dump information in style XML to xml output                                                                      

 Orbitals will not be exported.

 **********************************************************************************************************************************

 CCSD(T)/cc-pCV5Z energy=    -78.580614866641

         CCSD(T)          HF-SCF
    -78.58061487    -78.07060230
 **********************************************************************************************************************************
 Molpro calculation terminated
