
 Working directory              : /var/folders/2v/xbgp75_9785319ghcgb4zr4r0000gp/T//molpro.lc848rwf2m/
 Global scratch directory       : /var/folders/2v/xbgp75_9785319ghcgb4zr4r0000gp/T//molpro.lc848rwf2m/
 Wavefunction directory         : /Users/sacpjk/wfu/
 Main file repository           : /var/folders/2v/xbgp75_9785319ghcgb4zr4r0000gp/T//molpro.lc848rwf2m/

 id        : peterk

 Nodes                        nprocs
 Cardiff-University-G34YLXT77Y    1
 GA implementation: MPI file
 GA implementation (serial work in mppx): MPI file

 Using customized tuning parameters: mindgm=1; mindgv=20; mindgc=4; mindgr=1; noblas=0; minvec=7
 default implementation of scratch files=df  


 Variables initialized (1032), CPU time= 0.00 sec
 
 symmetry,nosym
 
 
 geometry={
            5
     N          0.00000000      0.00000000      1.88832511
     N          0.00000000      0.00000000      0.75165554
     C          0.00000000      0.00000000     -0.54332281
     H          0.95203700      0.00000000     -1.04832892
     H         -0.95203700      0.00000000     -1.04832892
 }
 basis=cc-pVDZ
 
 
 
 hf; hf; papt; mp4
 
 
 
 {put,xml;noorbitals,nobasis}
 Commands initialized (841), CPU time= 0.01 sec, 704 directives.
 Default parameters read. Elapsed time= 0.75 sec

 Checking input...
 Passed
1


                                         ***  PROGRAM SYSTEM MOLPRO  ***
                                       Copyright, TTI GmbH Stuttgart, 2015
                                    Version 2023.1 linked Tue Jun  6 09:54:11 2023


 **********************************************************************************************************************************
 LABEL *                                                                                                                                                                 
  64 bit serial version                                                                  DATE: 11-Jun-23          TIME: 14:04:23  
 **********************************************************************************************************************************

 SHA1:             8ebb0dd001088a5c915591db1a321413035db0b1
 **********************************************************************************************************************************

 Memory per process:       393 MW
 Total memory per node:    524 MW
 Total GA space:           131 MW

 GA preallocation disabled
 GA check enabled

 Variable memory set to 393.2 MW

 ZSYMEL=NOSYM


 Geometry recognized as XYZ

 SETTING BASIS          =    CC-PVDZ


 Recomputing integrals since basis changed


 Using spherical harmonics

 Library entry N      S cc-pVDZ              selected for orbital group  1
 Library entry N      P cc-pVDZ              selected for orbital group  1
 Library entry N      D cc-pVDZ              selected for orbital group  1
 Library entry C      S cc-pVDZ              selected for orbital group  2
 Library entry C      P cc-pVDZ              selected for orbital group  2
 Library entry C      D cc-pVDZ              selected for orbital group  2
 Library entry H      S cc-pVDZ              selected for orbital group  3
 Library entry H      P cc-pVDZ              selected for orbital group  3


 PROGRAM * SEWARD (Integral evaluation for generally contracted gaussian basis sets)     Author: Roland Lindh, 1990

 Geometry written to block  1 of record 700


 Point group  C1  



 ATOMIC COORDINATES

 NR  ATOM    CHARGE       X              Y              Z

   1  N       7.00    0.000000000    0.000000000    3.568417292
   2  N       7.00    0.000000000    0.000000000    1.420423111
   3  C       6.00    0.000000000    0.000000000   -1.026731308
   4  H       1.00    1.799089191    0.000000000   -1.981054547
   5  H       1.00   -1.799089191    0.000000000   -1.981054547

 Bond lengths in Bohr (Angstrom)

 1-2  2.147994181  2-3  2.447154419  3-4  2.036530078  3-5  2.036530078
     ( 1.136669570)     ( 1.294978350)     ( 1.077685307)     ( 1.077685307)

 Bond angles

  1-2-3  180.00000000   2-3-4  117.94362484   2-3-5  117.94362484   4-3-5  124.11275032

 NUCLEAR CHARGE:                   22
 NUMBER OF PRIMITIVE AOS:          95
 NUMBER OF SYMMETRY AOS:           92
 NUMBER OF CONTRACTIONS:           52   (   52A   )
 NUMBER OF INNER CORE ORBITALS:     0   (    0A   )
 NUMBER OF OUTER CORE ORBITALS:     3   (    3A   )
 NUMBER OF VALENCE ORBITALS:       14   (   14A   )


 NUCLEAR REPULSION ENERGY   61.32323683

 EXTRA SYMMETRY OF AOS IN SYMMETRY 1:   1 1 1 1 2 1 1 2 1 1   2 1 1 2 1 1 1 1 2 1   1 2 1 1 2 1 1 2 1 1   1 1 2 1 1 2 1 1 2 1
                                        1 2 1 1 1 2 1 1 1 1   2 1

 Eigenvalues of metric

         1 0.312E-02 0.713E-02 0.177E-01 0.264E-01 0.368E-01 0.377E-01 0.508E-01 0.570E-01


 Contracted 2-electron integrals neglected if value below      1.0D-11
 AO integral compression algorithm  1   Integral accuracy      1.0D-11

     2.621 MB (compressed) written to integral file ( 25.8%)


 NUMBER OF SORTED TWO-ELECTRON INTEGRALS:     950131.     BUFFER LENGTH:  32768
 NUMBER OF SEGMENTS:   1  SEGMENT LENGTH:     950131      RECORD LENGTH: 524288

 Memory used in sort:       1.51 MW

 SORT1 READ     1168367. AND WROTE      382995. INTEGRALS IN      2 RECORDS. CPU TIME:     0.01 SEC, REAL TIME:     0.01 SEC
 SORT2 READ      382995. AND WROTE      950131. INTEGRALS IN     10 RECORDS. CPU TIME:     0.02 SEC, REAL TIME:     0.03 SEC

 FILE SIZES:   FILE 1:    32.8 MBYTE,  FILE 4:     8.5 MBYTE,   TOTAL:     41.2 MBYTE

 OPERATOR DM      FOR CENTER  0  COORDINATES:    0.000000    0.000000    0.000000


 **********************************************************************************************************************************
 DATASETS  * FILE   NREC   LENGTH (MB)   RECORD NAMES
              1      19       30.60       500      610      700      900      950      970     1000      129      960     1100   
                                          VAR    BASINP    GEOM    SYMINP    ZMAT    AOBASIS   BASIS     P2S    ABASIS      S 
                                         1400     1410     1200     1210     1080     1600     1650     1300     1700   
                                           T        V       H0       H01     AOSYM     SMH    MOLCAS    ERIS     OPER   

 PROGRAMS   *        TOTAL       INT
 CPU TIMES  *         0.27      0.16
 REAL TIME  *         2.67 SEC
 DISK USED  *        39.71 MB
 **********************************************************************************************************************************


 Program * Restricted Hartree-Fock

 Orbital guess generated from atomic densities. Full valence occupancy:   17

 Initial occupancy:  11

 NELEC=   22   SYM=1   MS2= 0   THRE=1.0D-08   THRD=3.2D-06   THRG=3.2D-06  HFMA2=F  DIIS_START=2   DIIS_MAX=10   DIIS_INCORE=F

 Level shifts:    0.00 (CLOSED)    0.00 (OPEN)    0.30 (GAP_MIN)

 ITER           ETOT              DE          GRAD        DDIFF     DIIS  NEXP   TIME(IT)  TIME(TOT)  DIAG
   1     -147.80717719    -147.80717719     0.00D+00     0.16D+00     0     0       0.01      0.01    start
   2     -147.84060378      -0.03342659     0.10D-01     0.20D-01     1     0       0.00      0.01    diag
   3     -147.85560013      -0.01499635     0.64D-02     0.90D-02     2     0       0.01      0.02    diag
   4     -147.85702499      -0.00142486     0.13D-02     0.27D-02     3     0       0.00      0.02    diag
   5     -147.85754526      -0.00052027     0.73D-03     0.15D-02     4     0       0.00      0.02    diag
   6     -147.85777379      -0.00022853     0.33D-03     0.11D-02     5     0       0.01      0.03    diag
   7     -147.85783607      -0.00006229     0.15D-03     0.76D-03     6     0       0.00      0.03    diag
   8     -147.85783945      -0.00000337     0.40D-04     0.20D-03     7     0       0.01      0.04    fixocc
   9     -147.85783952      -0.00000008     0.89D-05     0.25D-04     8     0       0.01      0.05    diag
  10     -147.85783953      -0.00000001     0.29D-05     0.75D-05     9     0       0.00      0.05    diag/orth
  11     -147.85783953      -0.00000000     0.63D-06     0.23D-05     9     0       0.01      0.06    diag
  12     -147.85783953      -0.00000000     0.10D-06     0.22D-06     0     0       0.00      0.06    diag

 Final occupancy:  11

 !RHF STATE 1.1 Energy               -147.857839531676
  RHF One-electron energy            -320.659184693114
  RHF Two-electron energy             111.478108335710
  RHF Kinetic energy                  147.578423072402
  RHF Nuclear energy                   61.323236825727
  RHF Virial quotient                  -1.001893342221

 !RHF STATE 1.1 Dipole moment           0.00000000    -0.00000000    -0.58035958
 Dipole moment /Debye                   0.00000000    -0.00000000    -1.47512692

 Orbital energies:

           1.1          2.1          3.1          4.1          5.1          6.1          7.1          8.1          9.1         10.1
    -15.738024   -15.657487   -11.269695    -1.457500    -1.119936    -0.754853    -0.690544    -0.655459    -0.649429    -0.533944

          11.1         12.1         13.1
     -0.324613     0.135608     0.182884


 HOMO     11.1    -0.324613 =      -8.8332eV
 LUMO     12.1     0.135608 =       3.6901eV
 LUMO-HOMO         0.460221 =      12.5233eV

 Orbitals saved in record  2100.2


 **********************************************************************************************************************************
 DATASETS  * FILE   NREC   LENGTH (MB)   RECORD NAMES
              1      19       30.60       500      610      700      900      950      970     1000      129      960     1100   
                                          VAR    BASINP    GEOM    SYMINP    ZMAT    AOBASIS   BASIS     P2S    ABASIS      S 
                                         1400     1410     1200     1210     1080     1600     1650     1300     1700   
                                           T        V       H0       H01     AOSYM     SMH    MOLCAS    ERIS     OPER   

              2       4        0.49       700     1000      520     2100   
                                         GEOM     BASIS   MCVARS     RHF  

 PROGRAMS   *        TOTAL    HF-SCF       INT
 CPU TIMES  *         0.33      0.06      0.16
 REAL TIME  *         3.90 SEC
 DISK USED  *        39.71 MB
 **********************************************************************************************************************************


 Program * Restricted Hartree-Fock

 Molecular orbitals read from record     2100.2  Type=RHF/CANONICAL  

 Initial occupancy:  11

 NELEC=   22   SYM=1   MS2= 0   THRE=1.0D-08   THRD=3.2D-06   THRG=3.2D-06  HFMA2=F  DIIS_START=2   DIIS_MAX=10   DIIS_INCORE=F

 Level shifts:    0.00 (CLOSED)    0.00 (OPEN)    0.30 (GAP_MIN)

 ITER           ETOT              DE          GRAD        DDIFF     DIIS  NEXP   TIME(IT)  TIME(TOT)  DIAG
   1     -147.85783953    -147.85783953     0.00D+00     0.17D+00     0     0       0.00      0.00    start
   2     -147.85783953      -0.00000000     0.43D-07     0.10D-06     1     0       0.01      0.01    diag

 Final occupancy:  11

 !RHF STATE 1.1 Energy               -147.857839531679
  RHF One-electron energy            -320.659187977453
  RHF Two-electron energy             111.478111620046
  RHF Kinetic energy                  147.578424344994
  RHF Nuclear energy                   61.323236825727
  RHF Virial quotient                  -1.001893333581

 !RHF STATE 1.1 Dipole moment          -0.00000000     0.00000000    -0.58036299
 Dipole moment /Debye                  -0.00000000     0.00000000    -1.47513559

 Orbital energies:

           1.1          2.1          3.1          4.1          5.1          6.1          7.1          8.1          9.1         10.1
    -15.738025   -15.657487   -11.269695    -1.457500    -1.119936    -0.754853    -0.690544    -0.655459    -0.649429    -0.533944

          11.1         12.1         13.1
     -0.324613     0.135608     0.182884


 HOMO     11.1    -0.324613 =      -8.8332eV
 LUMO     12.1     0.135608 =       3.6901eV
 LUMO-HOMO         0.460221 =      12.5233eV

 Orbitals saved in record  2101.2


 **********************************************************************************************************************************
 DATASETS  * FILE   NREC   LENGTH (MB)   RECORD NAMES
              1      19       30.60       500      610      700      900      950      970     1000      129      960     1100   
                                          VAR    BASINP    GEOM    SYMINP    ZMAT    AOBASIS   BASIS     P2S    ABASIS      S 
                                         1400     1410     1200     1210     1080     1600     1650     1300     1700   
                                           T        V       H0       H01     AOSYM     SMH    MOLCAS    ERIS     OPER   

              2       5        0.66       700     1000      520     2100     2101   
                                         GEOM     BASIS   MCVARS     RHF      RHF  

 PROGRAMS   *        TOTAL    HF-SCF    HF-SCF       INT
 CPU TIMES  *         0.35      0.02      0.06      0.16
 REAL TIME  *         4.22 SEC
 DISK USED  *        39.71 MB
 **********************************************************************************************************************************


 PROGRAM * PAPT (Closed-shell)     Authors: C. Hampel, H.-J. Werner, 1991, P.J. Knowles, 2021


 Convergence thresholds:  THRVAR = 1.00D-08  THRDEN = 1.00D-06

 Number of core orbitals:           3 (   3 )
 Number of closed-shell orbitals:   8 (   8 )
 Number of external orbitals:      41 (  41 )

 Molecular orbitals read from record     2101.2  Type=RHF/CANONICAL  

 Number of N-1 electron functions:               8
 Number of N-2 electron functions:              36
 Number of singly external CSFs:               328
 Number of doubly external CSFs:             53956
 Total number of CSFs:                       54285

 Length of J-op  integral file:               0.00 MB
 Length of K-op  integral file:               0.25 MB

 Integral transformation finished. Total CPU:   0.01 sec, npass=  1  Memory used:   0.27 MW

 Reference energy:                   -147.85783953

                        CORR.ENERGY   TOTAL ENERGY   ENERGY CHANGE
 MP2:                   -0.46341059  -148.32125013    -0.46341059

 SCS-MP2 correlation energy:           -0.45055439   (PS=  1.200000  PT=  0.333333)
 SCS-MP2 total energy:               -148.30839392
 Iteration:   1     0.4018D+00
 Iteration:   2     0.4388D+00
 Iteration:   3     0.1636D+00
 Iteration:   4     0.1199D+00
 Iteration:   5     0.1007D+00
 Iteration:   6     0.5985D-01
 Iteration:   7     0.2675D+00
 Iteration:   8     0.2116D-01
 Iteration:   9     0.2393D-01
 Iteration:  10     0.9514D-02
 Iteration:  11     0.9233D-02
 Iteration:  12     0.6107D-02
 Iteration:  13     0.2532D-02
 Iteration:  14     0.1474D-01
 Iteration:  15     0.5535D-03
 Iteration:  16     0.1576D-02
 Iteration:  17     0.1724D-03
 Iteration:  18     0.1612D-03
 Iteration:  19     0.6751D-04
 PAPT operator written to  7000.1
 PAPT orbitals and eigenvalues written to  7000.2

 MP3(D):                -0.46713468  -148.32497421    -0.00372408



 RESULTS
 =======

  Reference energy                   -147.857839531679
  MP3 singlet pair energy              -0.306427358230
  MP3 triplet pair energy              -0.160707319449
  MP3 correlation energy               -0.467134677679

 !MP3 total energy                   -148.324974209358

 Timing summary (sec):

 STEP                 CPU(USER)    SYS     CPU(TOT)    WALL
 Transformation          0.01      0.00      0.01      0.10
 CCSD iterations         0.65      0.04      0.69      1.51

 Program statistics:

 Available memory in ccsd:               393215733
 Min. memory needed in ccsd:                186609
 Max. memory used in ccsd:                  225821
 Max. memory used in cckext:                249002 ( 1 integral passes)



 **********************************************************************************************************************************
 DATASETS  * FILE   NREC   LENGTH (MB)   RECORD NAMES
              1      21       31.78       500      610      700      900      950      970     1000      129      960     1100   
                                          VAR    BASINP    GEOM    SYMINP    ZMAT    AOBASIS   BASIS     P2S    ABASIS      S 
                                         1400     1410     1200     1210     1080     1600     1650     1300     1700     1380   
                                           T        V       H0       H01     AOSYM     SMH    MOLCAS    ERIS     OPER     JKOP   
                                         7000   
                                        PAPT AO    

              2       6        0.82       700     1000      520     2100     2101     7000   
                                         GEOM     BASIS   MCVARS     RHF      RHF     PAPT   

 PROGRAMS   *        TOTAL      PAPT    HF-SCF    HF-SCF       INT
 CPU TIMES  *         0.55      0.20      0.02      0.06      0.16
 REAL TIME  *         6.10 SEC
 DISK USED  *        39.71 MB
 **********************************************************************************************************************************


 PROGRAM * MP4 (Closed-shell)     Authors: C. Hampel, H.-J. Werner, 1991, M. Deegan, P.J. Knowles, 1992


 Convergence thresholds:  THRVAR = 1.00D-08  THRDEN = 1.00D-06

 MP4(T)     terms to be evaluated (factor= 0.000)


 Number of core orbitals:           3 (   3 )
 Number of closed-shell orbitals:   8 (   8 )
 Number of external orbitals:      41 (  41 )

 Molecular orbitals read from record     7000.2  Type=PAPT/CANONICAL (state 1.1)

 Number of N-1 electron functions:               8
 Number of N-2 electron functions:              36
 Number of singly external CSFs:               328
 Number of doubly external CSFs:             53956
 Total number of CSFs:                       54285

 Length of J-op  integral file:               0.00 MB
 Length of K-op  integral file:               0.25 MB

 Memory could be reduced to 0.94 Mwords without degradation in triples

 Integral transformation finished. Total CPU:   0.02 sec, npass=  1  Memory used:   0.92 MW
 Orbital energies read from record       7000.2  Type=PAPT/CANONICAL (state 1.1)

 Reference energy:                   -147.85783953

                        CORR.ENERGY   TOTAL ENERGY   ENERGY CHANGE
 MP2:                   -0.47296633  -148.33080587    -0.47296633

 SCS-MP2 correlation energy:           -0.46320136   (PS=  1.200000  PT=  0.333333)
 SCS-MP2 total energy:               -148.32104090

 MP3(D):                -0.47314267  -148.33098220    -0.00017634
 MP4(DQ):               -0.46941686  -148.32725639     0.00372582
 MP4(SDQ):              -0.47560868  -148.33344821    -0.00619182

 Norm of t1 vector:      0.07182005      S-energy:    -0.00619182      T1 diagnostic:  0.01269611

 Largest off-diagonal element in interal  block of Fock matrix:  0.18D+00
 Largest off-diagonal element in external block of Fock matrix:  0.24D+00


 Total CPU time for triples:      0.16 sec


 RESULTS
 =======

  Reference energy                   -147.857839531679
  MP4(SDQ) singlet pair energy         -0.306376847903
  MP4(SDQ) triplet pair energy         -0.163040007855
  MP4(SDQ) correlation energy          -0.475608679245

  Triples contribution                 -0.022590599705
  Total correlation energy             -0.498199278951

  MP4(SDQ) total energy              -148.333448210924
 !MP4(SDTQ) total energy             -148.356038810629

 Timing summary (sec):

 STEP                 CPU(USER)    SYS     CPU(TOT)    WALL
 Transformation          0.03      0.01      0.04      0.40
 CCSD iterations         0.76      0.00      0.76      0.35
 Triples                 0.16      0.02      0.18      0.20

 Program statistics:

 Available memory in ccsd:               393215733
 Min. memory needed in ccsd:                186609
 Max. memory used in ccsd:                  225821
 Max. memory used in cckext:                249002 ( 1 integral passes)



 **********************************************************************************************************************************
 DATASETS  * FILE   NREC   LENGTH (MB)   RECORD NAMES
              1      22       33.93       500      610      700      900      950      970     1000      129      960     1100   
                                          VAR    BASINP    GEOM    SYMINP    ZMAT    AOBASIS   BASIS     P2S    ABASIS      S 
                                         1400     1410     1200     1210     1080     1600     1650     1300     1700     1380   
                                           T        V       H0       H01     AOSYM     SMH    MOLCAS    ERIS     OPER     JKOP   
                                         7000     1380(1)
                                        PAPT AO   JKOP   

              2       6        0.82       700     1000      520     2100     2101     7000   
                                         GEOM     BASIS   MCVARS     RHF      RHF     PAPT   

 PROGRAMS   *        TOTAL       MP4      PAPT    HF-SCF    HF-SCF       INT
 CPU TIMES  *         0.84      0.29      0.20      0.02      0.06      0.16
 REAL TIME  *         7.52 SEC
 DISK USED  *        41.04 MB
 **********************************************************************************************************************************

 Dump information in style XML to xml output                                                                      

 Orbitals will not be exported.

 **********************************************************************************************************************************

 MP4/cc-pVDZ energy=   -148.356038810629

             MP4            PAPT          HF-SCF          HF-SCF
   -148.35603881   -148.32497421   -147.85783953   -147.85783953
 **********************************************************************************************************************************
 Molpro calculation terminated
