
 Working directory              : /var/folders/2v/xbgp75_9785319ghcgb4zr4r0000gp/T//molpro.rU8sF4VAA7/
 Global scratch directory       : /var/folders/2v/xbgp75_9785319ghcgb4zr4r0000gp/T//molpro.rU8sF4VAA7/
 Wavefunction directory         : /Users/sacpjk/wfu/
 Main file repository           : /var/folders/2v/xbgp75_9785319ghcgb4zr4r0000gp/T//molpro.rU8sF4VAA7/

 id        : peterk

 Nodes                        nprocs
 Cardiff-University-G34YLXT77Y    1
 GA implementation: MPI file
 GA implementation (serial work in mppx): MPI file

 Using customized tuning parameters: mindgm=1; mindgv=20; mindgc=4; mindgr=1; noblas=0; minvec=7
 default implementation of scratch files=df  


 Variables initialized (1032), CPU time= 0.00 sec
 
 core,small
 angstrom
 
 geometry={
 C1;C2,C1,1.33117445;H11,C1,1.08089487,C2,121.44926360;H12,C1,1.08089487,C2,121.44926360,H11,180;H21,C2,1.08089487,C1,121.44926360,H11,0;H22,C2,1.08089487,C1,121.44926360,H12,0
 }
 basis=cc-pCVQZ
 
 
 
 hf; ccsd
 
 
 
 {put,xml;noorbitals,nobasis}
 Commands initialized (841), CPU time= 0.00 sec, 704 directives.
 Default parameters read. Elapsed time= 0.76 sec

 Checking input...
 Passed
1


                                         ***  PROGRAM SYSTEM MOLPRO  ***
                                       Copyright, TTI GmbH Stuttgart, 2015
                                    Version 2023.1 linked Tue Jun  6 09:54:11 2023


 **********************************************************************************************************************************
 LABEL *                                                                                                                                                                 
  64 bit serial version                                                                  DATE: 12-Jun-23          TIME: 10:46:24  
 **********************************************************************************************************************************

 SHA1:             8ebb0dd001088a5c915591db1a321413035db0b1
 **********************************************************************************************************************************

 Memory per process:       393 MW
 Total memory per node:    524 MW
 Total GA space:           131 MW

 GA preallocation disabled
 GA check enabled

 Variable memory set to 393.2 MW

 ZUNIT=ANG

 SETTING BASIS          =    CC-PCVQZ


 Recomputing integrals since basis changed


 Using spherical harmonics

 Library entry C      S cc-pCVQZ             selected for orbital group  1
 Library entry C      P cc-pCVQZ             selected for orbital group  1
 Library entry C      D cc-pCVQZ             selected for orbital group  1
 Library entry C      F cc-pCVQZ             selected for orbital group  1
 Library entry C      G cc-pCVQZ             selected for orbital group  1
 Library entry H      S cc-pVQZ              selected for orbital group  2
 Library entry H      P cc-pVQZ              selected for orbital group  2
 Library entry H      D cc-pVQZ              selected for orbital group  2
 Library entry H      F cc-pVQZ              selected for orbital group  2


 PROGRAM * SEWARD (Integral evaluation for generally contracted gaussian basis sets)     Author: Roland Lindh, 1990

 Geometry written to block  1 of record 700

 Orientation using atomic masses  
 Molecule type: Asymmetric top,     Order of principal axis = 2
 Symmetry elements: X,Y,Z
 Rotational constants:      25.0620134     30.1953945    147.4188996 GHz  (calculated with average atomic masses)

 Point group  D2h 



 ATOMIC COORDINATES

 NR  ATOM    CHARGE       X              Y              Z

   1  C1      6.00    0.000000000    0.000000000   -1.257777567
   2  C2      6.00    0.000000000    0.000000000    1.257777567
   3  H11     1.00    0.000000000    1.742543158   -2.323488032
   4  H12     1.00    0.000000000   -1.742543158   -2.323488032
   5  H21     1.00    0.000000000    1.742543158    2.323488032
   6  H22     1.00    0.000000000   -1.742543158    2.323488032

 Bond lengths in Bohr (Angstrom)

 1-2  2.515555135  1-3  2.042595274  1-4  2.042595274  2-5  2.042595274  2-6  2.042595274
     ( 1.331174450)     ( 1.080894870)     ( 1.080894870)     ( 1.080894870)     ( 1.080894870)

 Bond angles

  1-2-5  121.44926360   1-2-6  121.44926360   2-1-3  121.44926360   2-1-4  121.44926360

  3-1-4  117.10147280   5-2-6  117.10147280

 NUCLEAR CHARGE:                   16
 NUMBER OF PRIMITIVE AOS:         382
 NUMBER OF SYMMETRY AOS:          322
 NUMBER OF CONTRACTIONS:          288   (   54Ag  +   30B3u +   40B2u +   20B1g +   54B1u +   30B2g +   40B3g +   20Au  )
 NUMBER OF INNER CORE ORBITALS:     0   (    0Ag  +    0B3u +    0B2u +    0B1g +    0B1u +    0B2g +    0B3g +    0Au  )
 NUMBER OF OUTER CORE ORBITALS:     2   (    1Ag  +    0B3u +    0B2u +    0B1g +    1B1u +    0B2g +    0B3g +    0Au  )
 NUMBER OF VALENCE ORBITALS:       12   (    3Ag  +    1B3u +    2B2u +    0B1g +    3B1u +    1B2g +    2B3g +    0Au  )


 NUCLEAR REPULSION ENERGY   33.43534958

 Eigenvalues of metric

         1 0.263E-04 0.201E-03 0.900E-03 0.133E-02 0.174E-02 0.372E-02 0.592E-02 0.941E-02
         2 0.170E-02 0.138E-01 0.520E-01 0.941E-01 0.108E+00 0.155E+00 0.193E+00 0.236E+00
         3 0.268E-03 0.123E-02 0.187E-02 0.612E-02 0.804E-02 0.127E-01 0.255E-01 0.381E-01
         4 0.116E-01 0.476E-01 0.159E+00 0.224E+00 0.249E+00 0.346E+00 0.403E+00 0.502E+00
         5 0.253E-04 0.115E-03 0.172E-03 0.506E-03 0.864E-03 0.105E-02 0.202E-02 0.304E-02
         6 0.136E-02 0.500E-02 0.950E-02 0.313E-01 0.435E-01 0.970E-01 0.102E+00 0.147E+00
         7 0.116E-03 0.430E-03 0.938E-03 0.153E-02 0.175E-02 0.542E-02 0.788E-02 0.105E-01
         8 0.856E-02 0.187E-01 0.590E-01 0.128E+00 0.170E+00 0.262E+00 0.338E+00 0.416E+00


 Contracted 2-electron integrals neglected if value below      1.0D-12
 AO integral compression algorithm  1   Integral accuracy      1.0D-12

     766.771 MB (compressed) written to integral file ( 60.4%)


 NUMBER OF SORTED TWO-ELECTRON INTEGRALS:  110802680.     BUFFER LENGTH:  32768
 NUMBER OF SEGMENTS:   7  SEGMENT LENGTH:   15999135      RECORD LENGTH: 524288

 Memory used in sort:      16.56 MW

 SORT1 READ   158670304. AND WROTE   108089579. INTEGRALS IN    311 RECORDS. CPU TIME:     3.32 SEC, REAL TIME:     4.85 SEC
 SORT2 READ   108089579. AND WROTE   110802680. INTEGRALS IN   2925 RECORDS. CPU TIME:     1.23 SEC, REAL TIME:     1.46 SEC

 FILE SIZES:   FILE 1:   798.8 MBYTE,  FILE 4:  1304.5 MBYTE,   TOTAL:   2103.2 MBYTE

 OPERATOR DM      FOR CENTER  0  COORDINATES:    0.000000    0.000000    0.000000


 **********************************************************************************************************************************
 DATASETS  * FILE   NREC   LENGTH (MB)   RECORD NAMES
              1      19      565.53       500      610      700      900      950      970     1000      129      960     1100   
                                          VAR    BASINP    GEOM    SYMINP    ZMAT    AOBASIS   BASIS     P2S    ABASIS      S 
                                         1400     1410     1200     1210     1080     1600     1650     1300     1700   
                                           T        V       H0       H01     AOSYM     SMH    MOLCAS    ERIS     OPER   

 PROGRAMS   *        TOTAL       INT
 CPU TIMES  *        12.71     12.61
 REAL TIME  *        17.99 SEC
 DISK USED  *         1.96 GB
 **********************************************************************************************************************************


 Program * Restricted Hartree-Fock

 Orbital guess generated from atomic densities. Full valence occupancy:    4   1   2   0   4   1   2   0


 Initial occupancy:   3   1   1   0   2   0   1   0

 NELEC=   16   SYM=1   MS2= 0   THRE=1.0D-08   THRD=3.2D-06   THRG=3.2D-06  HFMA2=F  DIIS_START=2   DIIS_MAX=10   DIIS_INCORE=F

 Level shifts:    0.00 (CLOSED)    0.00 (OPEN)    0.30 (GAP_MIN)

 ITER           ETOT              DE          GRAD        DDIFF     DIIS  NEXP   TIME(IT)  TIME(TOT)  DIAG
   1      -78.04556322     -78.04556322     0.00D+00     0.76D-01     0     0       0.13      0.25    start
   2      -78.06676566      -0.02120244     0.67D-02     0.63D-02     1     0       0.12      0.37    diag
   3      -78.06910401      -0.00233835     0.24D-02     0.16D-02     2     0       0.13      0.50    diag
   4      -78.06942329      -0.00031928     0.68D-03     0.71D-03     3     0       0.13      0.63    diag
   5      -78.06942830      -0.00000502     0.79D-04     0.10D-03     4     0       0.13      0.76    diag
   6      -78.06942846      -0.00000015     0.12D-04     0.21D-04     5     0       0.14      0.90    diag
   7      -78.06942846      -0.00000001     0.27D-05     0.45D-05     6     0       0.14      1.04    diag
   8      -78.06942846      -0.00000000     0.41D-06     0.69D-06     7     0       0.14      1.18    fixocc
   9      -78.06942846      -0.00000000     0.58D-07     0.94D-07     0     0       0.13      1.31    diag

 Final occupancy:   3   1   1   0   2   0   1   0

 !RHF STATE 1.1 Energy                -78.069428463461
  RHF One-electron energy            -170.207133732228
  RHF Two-electron energy              58.702355689870
  RHF Kinetic energy                   77.968409801844
  RHF Nuclear energy                   33.435349578897
  RHF Virial quotient                  -1.001295635782

 !RHF STATE 1.1 Dipole moment           0.00000000     0.00000000     0.00000000
 Dipole moment /Debye                   0.00000000     0.00000000     0.00000000

 Orbital energies:

           1.1          2.1          3.1          4.1          5.1
    -11.229313    -1.034088    -0.588010     0.131014     0.281601

           1.2          2.2          3.2
     -0.377355     0.331182     0.704925

           1.3          2.3          3.3
     -0.644133     0.162616     0.371099

           1.4          2.4
      0.513476     0.951646

           1.5          2.5          3.5          4.5
    -11.227576    -0.792970     0.152571     0.301265

           1.6          2.6
      0.141922     0.437609

           1.7          2.7          3.7
     -0.507766     0.201628     0.556874

           1.8          2.8
      0.661721     1.263860


 HOMO      1.2    -0.377355 =     -10.2683eV
 LUMO      4.1     0.131014 =       3.5651eV
 LUMO-HOMO         0.508368 =      13.8334eV

 Orbitals saved in record  2100.2


 **********************************************************************************************************************************
 DATASETS  * FILE   NREC   LENGTH (MB)   RECORD NAMES
              1      19      565.53       500      610      700      900      950      970     1000      129      960     1100   
                                          VAR    BASINP    GEOM    SYMINP    ZMAT    AOBASIS   BASIS     P2S    ABASIS      S 
                                         1400     1410     1200     1210     1080     1600     1650     1300     1700   
                                           T        V       H0       H01     AOSYM     SMH    MOLCAS    ERIS     OPER   

              2       4        0.65       700     1000      520     2100   
                                         GEOM     BASIS   MCVARS     RHF  

 PROGRAMS   *        TOTAL    HF-SCF       INT
 CPU TIMES  *        14.02      1.31     12.61
 REAL TIME  *        19.88 SEC
 DISK USED  *         1.96 GB
 **********************************************************************************************************************************


 PROGRAM * CCSD (Closed-shell coupled cluster)     Authors: C. Hampel, H.-J. Werner, 1991, M. Deegan, P.J. Knowles, 1992


 CORETYPE=SMALL

 Convergence thresholds:  THRVAR = 1.00D-08  THRDEN = 1.00D-06

 Number of closed-shell orbitals:   8 (   3   1   1   0   2   0   1   0 )
 Number of external orbitals:     280 (  51  29  39  20  52  30  39  20 )

 Molecular orbitals read from record     2100.2  Type=RHF/CANONICAL  

 Number of N-1 electron functions:               8
 Number of N-2 electron functions:              36
 Number of singly external CSFs:               364
 Number of doubly external CSFs:            331796
 Total number of CSFs:                      332161

 Length of J-op  integral file:               0.00 MB
 Length of K-op  integral file:               0.86 MB
 Length of 3-ext integral record:             0.00 MB

 Integral transformation finished. Total CPU:   0.58 sec, npass=  1  Memory used:   7.84 MW

 Reference energy:                    -78.06942846

 MP2 singlet pair energy:              -0.33650271
 MP2 triplet pair energy:              -0.12501009
 MP2 correlation energy:               -0.46151280
 MP2 total energy:                    -78.53094126

 SCS-MP2 correlation energy:           -0.48158730   (PS=  1.200000  PT=  0.333333)
 SCS-MP2 total energy:                -78.55101577

 ITER.      SQ.NORM     CORR.ENERGY   TOTAL ENERGY   ENERGY CHANGE        DEN1      VAR(S)    VAR(P)  DIIS     TIME  TIME/IT
   1      1.12752131    -0.48291942   -78.55234788    -0.02140662    -0.01048120  0.18D-02  0.19D-02  1  1    15.38     0.77
   2      1.13720264    -0.48471930   -78.55414777    -0.00179988    -0.00961621  0.41D-04  0.36D-03  2  2    16.03     0.76
   3      1.14159053    -0.48492823   -78.55435670    -0.00020893    -0.00223809  0.17D-04  0.48D-04  3  3    16.69     0.76
   4      1.14405865    -0.48494037   -78.55436884    -0.00001214    -0.00100099  0.10D-05  0.46D-05  4  4    17.37     0.78
   5      1.14465807    -0.48495475   -78.55438321    -0.00001438    -0.00009682  0.56D-07  0.24D-06  5  5    18.06     0.78
   6      1.14473806    -0.48495346   -78.55438192     0.00000129    -0.00000463  0.34D-08  0.15D-07  6  6    18.72     0.79
   7      1.14474825    -0.48495290   -78.55438137     0.00000056    -0.00000250  0.35D-09  0.10D-08  6  1    19.38     0.79
   8      1.14474905    -0.48495284   -78.55438131     0.00000006     0.00000014  0.48D-10  0.63D-10  6  2    20.04     0.78

 Norm of t1 vector:      0.05834652      S-energy:     0.00000016      T1 diagnostic:  0.01031431
                                                                       D1 diagnostic:  0.03455808
                                                                       D2 diagnostic:  0.19349960 (internal)

 Doubles amplitudes (print threshold =  0.500E-01):

         I         J         SYM. A    SYM. B    A         B      T(IJ, AB)

         4         4         6         6         1         1     -0.10563777
         4         4         6         6         1         2      0.05701700
         4         4         6         6         2         1      0.05701700


 RESULTS
 =======

  Reference energy                    -78.069428463460

  Correlated core orbitals:             1.1       1.5
  Orbital energies:                   -11.2293  -11.2276

  CCSD core-core energy                -0.082020605277
  CCSD core-valence energy             -0.027134643670
  CCSD valence correlation energy      -0.375797595486

  CCSD singlet pair energy             -0.368666819749
  CCSD triplet pair energy             -0.116286182323
  CCSD correlation energy              -0.484952844434

 !CCSD total energy                   -78.554381307894

 Timing summary (sec):

 STEP                 CPU(USER)    SYS     CPU(TOT)    WALL
 Transformation          0.58      0.11      0.69      1.04
 CCSD iterations        19.47      0.62     20.09      6.69

 Program statistics:

 Available memory in ccsd:               393215741
 Min. memory needed in ccsd:                989643
 Max. memory used in ccsd:                 1274315
 Max. memory used in cckext:               1115184 ( 8 integral passes)



 **********************************************************************************************************************************
 DATASETS  * FILE   NREC   LENGTH (MB)   RECORD NAMES
              1      20      656.17       500      610      700      900      950      970     1000      129      960     1100   
                                          VAR    BASINP    GEOM    SYMINP    ZMAT    AOBASIS   BASIS     P2S    ABASIS      S 
                                         1400     1410     1200     1210     1080     1600     1650     1300     1700     1380   
                                           T        V       H0       H01     AOSYM     SMH    MOLCAS    ERIS     OPER     JKOP   

              2       4        0.65       700     1000      520     2100   
                                         GEOM     BASIS   MCVARS     RHF  

 PROGRAMS   *        TOTAL      CCSD    HF-SCF       INT
 CPU TIMES  *        19.94      5.92      1.31     12.61
 REAL TIME  *        27.91 SEC
 DISK USED  *         1.96 GB
 **********************************************************************************************************************************

 Dump information in style XML to xml output                                                                      

 Orbitals will not be exported.

 **********************************************************************************************************************************

 CCSD/cc-pCVQZ energy=    -78.554381307894

            CCSD          HF-SCF
    -78.55438131    -78.06942846
 **********************************************************************************************************************************
 Molpro calculation terminated
