
 Working directory              : /var/folders/2v/xbgp75_9785319ghcgb4zr4r0000gp/T//molpro.WzWdktmnya/
 Global scratch directory       : /var/folders/2v/xbgp75_9785319ghcgb4zr4r0000gp/T//molpro.WzWdktmnya/
 Wavefunction directory         : /Users/sacpjk/wfu/
 Main file repository           : /var/folders/2v/xbgp75_9785319ghcgb4zr4r0000gp/T//molpro.WzWdktmnya/

 id        : peterk

 Nodes                        nprocs
 Cardiff-University-G34YLXT77Y    1
 GA implementation: MPI file
 GA implementation (serial work in mppx): MPI file

 Using customized tuning parameters: mindgm=1; mindgv=20; mindgc=4; mindgr=1; noblas=0; minvec=7
 default implementation of scratch files=df  


 Variables initialized (1032), CPU time= 0.00 sec
 
 core,small
 angstrom
 
 geometry={
 O1;C,O1,1.16039505;O2,C,1.16039505,O1,180
 }
 basis=cc-pCVDZ
 
 
 
 hf; ccsd(t)
 
 
 
 {put,xml;noorbitals,nobasis}
 Commands initialized (841), CPU time= 0.00 sec, 704 directives.
 Default parameters read. Elapsed time= 0.92 sec

 Checking input...
 Passed
1


                                         ***  PROGRAM SYSTEM MOLPRO  ***
                                       Copyright, TTI GmbH Stuttgart, 2015
                                    Version 2023.1 linked Tue Jun  6 09:54:11 2023


 **********************************************************************************************************************************
 LABEL *                                                                                                                                                                 
  64 bit serial version                                                                  DATE: 12-Jun-23          TIME: 09:41:57  
 **********************************************************************************************************************************

 SHA1:             8ebb0dd001088a5c915591db1a321413035db0b1
 **********************************************************************************************************************************

 Memory per process:       393 MW
 Total memory per node:    524 MW
 Total GA space:           131 MW

 GA preallocation disabled
 GA check enabled

 Variable memory set to 393.2 MW

 ZUNIT=ANG

 SETTING BASIS          =    CC-PCVDZ


 Recomputing integrals since basis changed


 Using spherical harmonics

 Library entry O      S cc-pCVDZ             selected for orbital group  1
 Library entry O      P cc-pCVDZ             selected for orbital group  1
 Library entry O      D cc-pCVDZ             selected for orbital group  1
 Library entry C      S cc-pCVDZ             selected for orbital group  2
 Library entry C      P cc-pCVDZ             selected for orbital group  2
 Library entry C      D cc-pCVDZ             selected for orbital group  2


 PROGRAM * SEWARD (Integral evaluation for generally contracted gaussian basis sets)     Author: Roland Lindh, 1990

 Geometry written to block  1 of record 700

 Orientation using atomic masses  
 Molecule type: Linear
 Symmetry elements: X,Y,Z
 Rotational constants:      11.7292910     11.7292910      0.0000000 GHz  (calculated with average atomic masses)

 Point group  D2h 



 ATOMIC COORDINATES

 NR  ATOM    CHARGE       X              Y              Z

   1  O1      8.00    0.000000000    0.000000000   -2.192828841
   2  O2      8.00    0.000000000    0.000000000    2.192828841
   3  C       6.00    0.000000000    0.000000000    0.000000000

 Bond lengths in Bohr (Angstrom)

 1-3  2.192828841  2-3  2.192828841
     ( 1.160395050)     ( 1.160395050)

 Bond angles

  1-3-2  179.99999879

 NUCLEAR CHARGE:                   22
 NUMBER OF PRIMITIVE AOS:          93
 NUMBER OF SYMMETRY AOS:           90
 NUMBER OF CONTRACTIONS:           54   (   15Ag  +    7B3u +    7B2u +    2B1g +   12B1u +    5B2g +    5B3g +    1Au  )
 NUMBER OF INNER CORE ORBITALS:     0   (    0Ag  +    0B3u +    0B2u +    0B1g +    0B1u +    0B2g +    0B3g +    0Au  )
 NUMBER OF OUTER CORE ORBITALS:     3   (    2Ag  +    0B3u +    0B2u +    0B1g +    1B1u +    0B2g +    0B3g +    0Au  )
 NUMBER OF VALENCE ORBITALS:       12   (    3Ag  +    2B3u +    2B2u +    0B1g +    3B1u +    1B2g +    1B3g +    0Au  )


 NUCLEAR REPULSION ENERGY   58.37208888

 EXTRA SYMMETRY OF AOS IN SYMMETRY 1:   1 1 1 1 1 1 1 1 2 1   1 1 1 1 2
 EXTRA SYMMETRY OF AOS IN SYMMETRY 5:   1 1 1 1 1 1 1 1 2 1   1 1

 Eigenvalues of metric

         1 0.129E-01 0.248E-01 0.462E-01 0.732E-01 0.862E-01 0.137E+00 0.819E+00 0.922E+00
         2 0.103E+00 0.176E+00 0.582E+00 0.994E+00 0.101E+01 0.112E+01 0.310E+01
         3 0.103E+00 0.176E+00 0.582E+00 0.994E+00 0.101E+01 0.112E+01 0.310E+01
         4 0.819E+00 0.118E+01
         5 0.970E-02 0.635E-01 0.722E-01 0.148E+00 0.189E+00 0.956E+00 0.986E+00 0.100E+01
         6 0.169E+00 0.281E+00 0.990E+00 0.121E+01 0.226E+01
         7 0.169E+00 0.281E+00 0.990E+00 0.121E+01 0.226E+01
         8 0.100E+01


 Contracted 2-electron integrals neglected if value below      1.0D-11
 AO integral compression algorithm  1   Integral accuracy      1.0D-11

     1.311 MB (compressed) written to integral file ( 59.1%)


 NUMBER OF SORTED TWO-ELECTRON INTEGRALS:     162537.     BUFFER LENGTH:  32768
 NUMBER OF SEGMENTS:   1  SEGMENT LENGTH:     162537      RECORD LENGTH: 524288

 Memory used in sort:       0.72 MW

 SORT1 READ      254445. AND WROTE      144762. INTEGRALS IN      1 RECORDS. CPU TIME:     0.00 SEC, REAL TIME:     0.00 SEC
 SORT2 READ      144762. AND WROTE      162537. INTEGRALS IN      5 RECORDS. CPU TIME:     0.02 SEC, REAL TIME:     0.02 SEC

 FILE SIZES:   FILE 1:    31.4 MBYTE,  FILE 4:     4.3 MBYTE,   TOTAL:     35.6 MBYTE

 OPERATOR DM      FOR CENTER  0  COORDINATES:    0.000000    0.000000    0.000000


 **********************************************************************************************************************************
 DATASETS  * FILE   NREC   LENGTH (MB)   RECORD NAMES
              1      19       29.39       500      610      700      900      950      970     1000      129      960     1100   
                                          VAR    BASINP    GEOM    SYMINP    ZMAT    AOBASIS   BASIS     P2S    ABASIS      S 
                                         1400     1410     1200     1210     1080     1600     1650     1300     1700   
                                           T        V       H0       H01     AOSYM     SMH    MOLCAS    ERIS     OPER   

 PROGRAMS   *        TOTAL       INT
 CPU TIMES  *         0.21      0.12
 REAL TIME  *         2.54 SEC
 DISK USED  *        34.33 MB
 **********************************************************************************************************************************


 Program * Restricted Hartree-Fock

 Orbital guess generated from atomic densities. Full valence occupancy:    5   2   2   0   4   1   1   0


 Initial occupancy:   4   1   1   0   3   1   1   0

 NELEC=   22   SYM=1   MS2= 0   THRE=1.0D-08   THRD=3.2D-06   THRG=3.2D-06  HFMA2=F  DIIS_START=2   DIIS_MAX=10   DIIS_INCORE=F

 Level shifts:    0.00 (CLOSED)    0.00 (OPEN)    0.30 (GAP_MIN)

 ITER           ETOT              DE          GRAD        DDIFF     DIIS  NEXP   TIME(IT)  TIME(TOT)  DIAG
   1     -187.58152839    -187.58152839     0.00D+00     0.36D+00     0     0       0.00      0.00    start
   2     -187.62043111      -0.03890272     0.33D-01     0.79D-01     1     0       0.00      0.00    diag
   3     -187.65187430      -0.03144319     0.22D-01     0.30D-01     2     0       0.00      0.00    diag
   4     -187.65214242      -0.00026812     0.19D-02     0.33D-02     3     0       0.00      0.00    diag
   5     -187.65217161      -0.00002919     0.54D-03     0.16D-02     4     0       0.00      0.00    diag
   6     -187.65217317      -0.00000156     0.11D-03     0.35D-03     5     0       0.00      0.00    diag
   7     -187.65217322      -0.00000005     0.16D-04     0.42D-04     6     0       0.01      0.01    diag
   8     -187.65217322      -0.00000000     0.25D-05     0.68D-05     7     0       0.00      0.01    fixocc
   9     -187.65217322      -0.00000000     0.30D-06     0.82D-06     8     0       0.00      0.01    diag
  10     -187.65217322      -0.00000000     0.21D-07     0.44D-07     0     0       0.00      0.01    diag/orth

 Final occupancy:   4   1   1   0   3   1   1   0

 !RHF STATE 1.1 Energy               -187.652173217712
  RHF One-electron energy            -372.455639054117
  RHF Two-electron energy             126.431376955482
  RHF Kinetic energy                  187.389730003175
  RHF Nuclear energy                   58.372088880924
  RHF Virial quotient                  -1.001400520800

 !RHF STATE 1.1 Dipole moment           0.00000000     0.00000000     0.00000000
 Dipole moment /Debye                   0.00000000     0.00000000     0.00000000

 Orbital energies:

           1.1          2.1          3.1          4.1          5.1          6.1
    -20.650681   -11.466726    -1.529557    -0.795081     0.249457     0.748969

           1.2          2.2          3.2
     -0.708726     0.217003     0.600182

           1.3          2.3          3.3
     -0.708726     0.217003     0.600182

           1.4          2.4
      1.255131     3.013645

           1.5          2.5          3.5          4.5          5.5
    -20.650717    -1.475851    -0.737202     0.485630     0.983114

           1.6          2.6          3.6
     -0.536588     1.121435     1.578673

           1.7          2.7          3.7
     -0.536588     1.121435     1.578673

           1.8
      2.872046


 HOMO      1.7    -0.536588 =     -14.6013eV
 LUMO      2.2     0.217003 =       5.9050eV
 LUMO-HOMO         0.753591 =      20.5063eV

 Orbitals saved in record  2100.2


 **********************************************************************************************************************************
 DATASETS  * FILE   NREC   LENGTH (MB)   RECORD NAMES
              1      19       29.39       500      610      700      900      950      970     1000      129      960     1100   
                                          VAR    BASINP    GEOM    SYMINP    ZMAT    AOBASIS   BASIS     P2S    ABASIS      S 
                                         1400     1410     1200     1210     1080     1600     1650     1300     1700   
                                           T        V       H0       H01     AOSYM     SMH    MOLCAS    ERIS     OPER   

              2       4        0.40       700     1000      520     2100   
                                         GEOM     BASIS   MCVARS     RHF  

 PROGRAMS   *        TOTAL    HF-SCF       INT
 CPU TIMES  *         0.22      0.01      0.12
 REAL TIME  *         3.33 SEC
 DISK USED  *        34.33 MB
 **********************************************************************************************************************************


 PROGRAM * CCSD (Closed-shell coupled cluster)     Authors: C. Hampel, H.-J. Werner, 1991, M. Deegan, P.J. Knowles, 1992


 CORETYPE=SMALL

 Convergence thresholds:  THRVAR = 1.00D-08  THRDEN = 1.00D-06

 CCSD(T)     terms to be evaluated (factor= 1.000)


 Number of closed-shell orbitals:  11 (   4   1   1   0   3   1   1   0 )
 Number of external orbitals:      43 (  11   6   6   2   9   4   4   1 )

 Molecular orbitals read from record     2100.2  Type=RHF/CANONICAL  

 Number of N-1 electron functions:              11
 Number of N-2 electron functions:              66
 Number of singly external CSFs:                91
 Number of doubly external CSFs:             15998
 Total number of CSFs:                       16090

 Length of J-op  integral file:               0.00 MB
 Length of K-op  integral file:               0.10 MB
 Length of 3-ext integral record:             0.00 MB

 Memory could be reduced to 0.24 Mwords without degradation in triples

 Integral transformation finished. Total CPU:   0.00 sec, npass=  1  Memory used:   0.14 MW

 Reference energy:                   -187.65217322

 MP2 singlet pair energy:              -0.37831095
 MP2 triplet pair energy:              -0.21891837
 MP2 correlation energy:               -0.59722932
 MP2 total energy:                   -188.24940254

 SCS-MP2 correlation energy:           -0.59018901   (PS=  1.200000  PT=  0.333333)
 SCS-MP2 total energy:               -188.24236223

 ITER.      SQ.NORM     CORR.ENERGY   TOTAL ENERGY   ENERGY CHANGE        DEN1      VAR(S)    VAR(P)  DIIS     TIME  TIME/IT
   1      1.13237961    -0.59893913  -188.25111234    -0.00170981     0.01735523  0.69D-02  0.37D-02  1  1     0.35     0.08
   2      1.14416610    -0.59766883  -188.24984204     0.00127030    -0.01443774  0.82D-04  0.56D-03  2  2     0.36     0.05
   3      1.14879998    -0.59807351  -188.25024673    -0.00040468    -0.00152456  0.13D-03  0.28D-04  3  3     0.37     0.04
   4      1.15193892    -0.59772268  -188.24989589     0.00035083    -0.00162647  0.42D-05  0.26D-05  4  4     0.38     0.04
   5      1.15260274    -0.59765875  -188.24983197     0.00006392    -0.00019829  0.21D-06  0.25D-06  5  5     0.40     0.04
   6      1.15269191    -0.59765431  -188.24982753     0.00000444     0.00001140  0.21D-07  0.20D-07  6  6     0.41     0.04
   7      1.15270845    -0.59765166  -188.24982487     0.00000265    -0.00000327  0.70D-09  0.28D-08  6  1     0.42     0.04
   8      1.15270646    -0.59765222  -188.24982544    -0.00000057     0.00000154  0.18D-09  0.16D-09  6  3     0.43     0.04
   9      1.15270786    -0.59765182  -188.24982504     0.00000040    -0.00000066  0.14D-10  0.12D-10  6  2     0.44     0.03

 Norm of t1 vector:      0.10750938      S-energy:     0.00000019      T1 diagnostic:  0.01620765
                                                                       D1 diagnostic:  0.04967112
                                                                       D2 diagnostic:  0.15284193 (external, symmetry=2)

 Doubles amplitudes (print threshold =  0.500E-01):

         I         J         SYM. A    SYM. B    A         B      T(IJ, AB)

        10        10         2         2         1         1     -0.06879295
        11        11         3         3         1         1     -0.06879295
        11        10         3         2         1         1     -0.05144990


 Total CPU time for triples:      0.08 sec


 RESULTS
 =======

  Reference energy                   -187.652173217712

  Correlated core orbitals:             1.1       2.1       1.5
  Orbital energies:                   -20.6507  -11.4667  -20.6507

  CCSD core-core energy                -0.092695768384
  CCSD core-valence energy             -0.021188966512
  CCSD valence correlation energy      -0.483767089842

  CCSD singlet pair energy             -0.409897000917
  CCSD triplet pair energy             -0.187755012617
  CCSD correlation energy              -0.597651824738

  Triples (T) contribution             -0.018882619441
  Total correlation energy             -0.616534444179

  CCSD total energy                  -188.249825042449
  CCSD[T] energy                     -188.271002365092
  CCSD-T energy                      -188.267912104639
 !CCSD(T) total energy               -188.268707661891

 Timing summary (sec):

 STEP                 CPU(USER)    SYS     CPU(TOT)    WALL
 CCSD iterations         0.45      0.02      0.47      1.08
 Triples                 0.08      0.01      0.09      0.08

 Program statistics:

 Available memory in ccsd:               393215512
 Min. memory needed in ccsd:                 53401
 Max. memory used in ccsd:                   65924
 Max. memory used in cckext:                 96821 ( 9 integral passes)



 **********************************************************************************************************************************
 DATASETS  * FILE   NREC   LENGTH (MB)   RECORD NAMES
              1      20       30.19       500      610      700      900      950      970     1000      129      960     1100   
                                          VAR    BASINP    GEOM    SYMINP    ZMAT    AOBASIS   BASIS     P2S    ABASIS      S 
                                         1400     1410     1200     1210     1080     1600     1650     1300     1700     1380   
                                           T        V       H0       H01     AOSYM     SMH    MOLCAS    ERIS     OPER     JKOP   

              2       4        0.40       700     1000      520     2100   
                                         GEOM     BASIS   MCVARS     RHF  

 PROGRAMS   *        TOTAL   CCSD(T)    HF-SCF       INT
 CPU TIMES  *         0.43      0.21      0.01      0.12
 REAL TIME  *         5.11 SEC
 DISK USED  *        34.33 MB
 **********************************************************************************************************************************

 Dump information in style XML to xml output                                                                      

 Orbitals will not be exported.

 **********************************************************************************************************************************

 CCSD(T)/cc-pCVDZ energy=   -188.268707661891

         CCSD(T)          HF-SCF
   -188.26870766   -187.65217322
 **********************************************************************************************************************************
 Molpro calculation terminated
