
 Working directory              : /tmp/peterk/molpro.yfVxyiihsT/
 Global scratch directory       : /tmp/peterk/molpro.yfVxyiihsT/
 Wavefunction directory         : /home/peterk/wfu/
 Main file repository           : /tmp/peterk/molpro.yfVxyiihsT/

 id        : peterk

 Nodes     nprocs
 marat        1
 GA implementation: MPI file
 GA implementation (serial work in mppx): MPI file

 Using customized tuning parameters: mindgm=1; mindgv=20; mindgc=4; mindgr=1; noblas=0; minvec=7
 default implementation of scratch files=df  


 Variables initialized (1032), CPU time= 0.00 sec
 
 symmetry,nosym
 
 
 geometry={
            6
     CL         0.00000000      0.00000000     -2.21807245
     C          0.00000000      0.00000000     -0.39966597
     H         -0.51253198      0.88773143     -0.05771428
     H         -0.51253198     -0.88773143     -0.05771428
     H          1.02506396      0.00000000     -0.05771428
     CL         0.00000000      0.00000000      2.79088125
 }
 basis=cc-pVQZ
 
 charge=-1
 
 hf; ccsd(t)
 
 
 
 {put,xml;noorbitals,nobasis}
 Commands initialized (841), CPU time= 0.01 sec, 708 directives.
 Default parameters read. Elapsed time= 0.05 sec

 Checking input...
 Passed
1


                                         ***  PROGRAM SYSTEM MOLPRO  ***
                                       Copyright, TTI GmbH Stuttgart, 2015
                                    Version 2023.1 linked Sat Jun 10 08:01:27 2023


 **********************************************************************************************************************************
 LABEL *                                                                                                                                                                 
  (16 PROC) 64 bit serial version                                                        DATE: 11-Jun-23          TIME: 20:40:56  
 **********************************************************************************************************************************

 SHA1:             8376d659ba1296ca7ee514c57770fe2c96af278c
 **********************************************************************************************************************************

 Memory per process:      1074 MW
 Total memory per node:   1074 MW

 GA preallocation disabled
 GA check disabled

 Variable memory set to 1073.7 MW

 ZSYMEL=NOSYM


 Geometry recognized as XYZ

 SETTING BASIS          =    CC-PVQZ
 SETTING CHARGE         =        -1.00000000                                  


 Recomputing integrals since basis changed


 Using spherical harmonics

 Library entry CL     S cc-pVQZ              selected for orbital group  1
 Library entry CL     P cc-pVQZ              selected for orbital group  1
 Library entry CL     D cc-pVQZ              selected for orbital group  1
 Library entry CL     F cc-pVQZ              selected for orbital group  1
 Library entry CL     G cc-pVQZ              selected for orbital group  1
 Library entry C      S cc-pVQZ              selected for orbital group  2
 Library entry C      P cc-pVQZ              selected for orbital group  2
 Library entry C      D cc-pVQZ              selected for orbital group  2
 Library entry C      F cc-pVQZ              selected for orbital group  2
 Library entry C      G cc-pVQZ              selected for orbital group  2
 Library entry H      S cc-pVQZ              selected for orbital group  3
 Library entry H      P cc-pVQZ              selected for orbital group  3
 Library entry H      D cc-pVQZ              selected for orbital group  3
 Library entry H      F cc-pVQZ              selected for orbital group  3


 PROGRAM * SEWARD (Integral evaluation for generally contracted gaussian basis sets)     Author: Roland Lindh, 1990

 Geometry written to block  1 of record 700


 Point group  C1  



 ATOMIC COORDINATES

 NR  ATOM    CHARGE       X              Y              Z

   1  CL     17.00    0.000000000    0.000000000   -4.191549455
   2  C       6.00    0.000000000    0.000000000   -0.755259225
   3  H       1.00   -0.968545072    1.677569275   -0.109064183
   4  H       1.00   -0.968545072   -1.677569275   -0.109064183
   5  H       1.00    1.937090145    0.000000000   -0.109064183
   6  CL     17.00    0.000000000    0.000000000    5.274001209

 Bond lengths in Bohr (Angstrom)

 1-2  3.436290230  2-3  2.042029936  2-4  2.042029936  2-5  2.042029936
     ( 1.818406480)     ( 1.080595706)     ( 1.080595706)     ( 1.080595706)

 Bond angles

  1-2-3  108.44821349   1-2-4  108.44821349   1-2-5  108.44821349   3-2-4  110.47456744

  3-2-5  110.47456743   4-2-5  110.47456743

 NUCLEAR CHARGE:                   43
 NUMBER OF PRIMITIVE AOS:         398
 NUMBER OF SYMMETRY AOS:          338
 NUMBER OF CONTRACTIONS:          263   (  263A   )
 NUMBER OF INNER CORE ORBITALS:     2   (    2A   )
 NUMBER OF OUTER CORE ORBITALS:     9   (    9A   )
 NUMBER OF VALENCE ORBITALS:       15   (   15A   )


 NUCLEAR REPULSION ENERGY  107.04222592


 Eigenvalues of metric

         1 0.133E-03 0.188E-03 0.231E-03 0.265E-03 0.265E-03 0.300E-03 0.397E-03 0.397E-03


 Contracted 2-electron integrals neglected if value below      1.0D-11
 AO integral compression algorithm  1   Integral accuracy      1.0D-11

     1570.243 MB (compressed) written to integral file ( 28.9%)


 NUMBER OF SORTED TWO-ELECTRON INTEGRALS:  602617686.     BUFFER LENGTH:  32768
 NUMBER OF SEGMENTS:  38  SEGMENT LENGTH:   15999762      RECORD LENGTH: 262144

 Memory used in sort:      16.29 MW

 SORT1 READ   678104459. AND WROTE   385397102. INTEGRALS IN   2223 RECORDS. CPU TIME:     5.46 SEC, REAL TIME:    20.16 SEC
 SORT2 READ   385397102. AND WROTE   602617686. INTEGRALS IN   5990 RECORDS. CPU TIME:     9.91 SEC, REAL TIME:    50.34 SEC

 FILE SIZES:   FILE 1:  1602.9 MBYTE,  FILE 4:  4662.0 MBYTE,   TOTAL:   6264.9 MBYTE

 OPERATOR DM      FOR CENTER  0  COORDINATES:    0.000000    0.000000    0.000000


 **********************************************************************************************************************************
 DATASETS  * FILE   NREC   LENGTH (MB)   RECORD NAMES
              1      19     1334.59       500      610      700      900      950      970     1000      129      960     1100   
                                          VAR    BASINP    GEOM    SYMINP    ZMAT    AOBASIS   BASIS     P2S    ABASIS      S 
                                         1400     1410     1200     1210     1080     1600     1650     1300     1700   
                                           T        V       H0       H01     AOSYM     SMH    MOLCAS    ERIS     OPER   

 PROGRAMS   *        TOTAL       INT
 CPU TIMES  *        33.15     33.02
 REAL TIME  *        90.67 SEC
 DISK USED  *         5.84 GB
 **********************************************************************************************************************************


 Program * Restricted Hartree-Fock

 Orbital guess generated from atomic densities. Full valence occupancy:   26

 Initial occupancy:  22

 NELEC=   44   SYM=1   MS2= 0   THRE=1.0D-08   THRD=3.2D-06   THRG=3.2D-06  HFMA2=F  DIIS_START=2   DIIS_MAX=10   DIIS_INCORE=F

 Level shifts:    0.00 (CLOSED)    0.00 (OPEN)    0.30 (GAP_MIN)

 ITER           ETOT              DE          GRAD        DDIFF     DIIS  NEXP   TIME(IT)  TIME(TOT)  DIAG
   1     -958.68186612    -958.68186612     0.00D+00     0.50D-01     0     0       3.35      6.52    start
   2     -958.73490056      -0.05303443     0.28D-02     0.66D-02     1     0       3.41      9.93    diag
   3     -958.74169160      -0.00679104     0.13D-02     0.23D-02     2     0       3.47     13.40    diag
   4     -958.74215833      -0.00046673     0.20D-03     0.35D-03     3     0       3.39     16.79    diag
   5     -958.74219065      -0.00003233     0.54D-04     0.11D-03     4     0       3.33     20.12    diag
   6     -958.74219367      -0.00000301     0.20D-04     0.34D-04     5     0       3.40     23.52    diag
   7     -958.74219385      -0.00000019     0.41D-05     0.10D-04     6     0       3.37     26.89    diag
   8     -958.74219386      -0.00000001     0.79D-06     0.21D-05     7     0       3.44     30.33    fixocc
   9     -958.74219386      -0.00000000     0.29D-06     0.51D-06     0     0       3.41     33.74    diag

 Final occupancy:  22

 !RHF STATE 1.1 Energy               -958.742193862341
  RHF One-electron energy           -1546.084464429458
  RHF Two-electron energy             480.300044645409
  RHF Kinetic energy                  958.774583593047
  RHF Nuclear energy                  107.042225921708
  RHF Virial quotient                  -0.999966217575

 !RHF STATE 1.1 Dipole moment           0.00000001    -0.00000000    -3.65001692
 Dipole moment /Debye                   0.00000002    -0.00000000    -9.27741763

 Orbital energies:

           1.1          2.1          3.1          4.1          5.1          6.1          7.1          8.1          9.1         10.1
   -104.693500  -104.513782   -11.141179   -10.419342   -10.238852    -7.886394    -7.885011    -7.885011    -7.705259    -7.705228

          11.1         12.1         13.1         14.1         15.1         16.1         17.1         18.1         19.1         20.1
     -7.705228    -0.986833    -0.774317    -0.746185    -0.469130    -0.469130    -0.403324    -0.308647    -0.308647    -0.166388

          21.1         22.1         23.1         24.1
     -0.165426    -0.165426     0.254785     0.296142


 HOMO     22.1    -0.165426 =      -4.5015eV
 LUMO     23.1     0.254785 =       6.9331eV
 LUMO-HOMO         0.420211 =      11.4345eV

 Orbitals saved in record  2100.2


 **********************************************************************************************************************************
 DATASETS  * FILE   NREC   LENGTH (MB)   RECORD NAMES
              1      19     1334.59       500      610      700      900      950      970     1000      129      960     1100   
                                          VAR    BASINP    GEOM    SYMINP    ZMAT    AOBASIS   BASIS     P2S    ABASIS      S 
                                         1400     1410     1200     1210     1080     1600     1650     1300     1700   
                                           T        V       H0       H01     AOSYM     SMH    MOLCAS    ERIS     OPER   

              2       4        1.56       700     1000      520     2100   
                                         GEOM     BASIS   MCVARS     RHF  

 PROGRAMS   *        TOTAL    HF-SCF       INT
 CPU TIMES  *        66.89     33.75     33.02
 REAL TIME  *       126.05 SEC
 DISK USED  *         5.84 GB
 **********************************************************************************************************************************


 PROGRAM * CCSD (Closed-shell coupled cluster)     Authors: C. Hampel, H.-J. Werner, 1991, M. Deegan, P.J. Knowles, 1992


 Convergence thresholds:  THRVAR = 1.00D-08  THRDEN = 1.00D-06

 CCSD(T)     terms to be evaluated (factor= 1.000)


 Number of core orbitals:          11 (  11 )
 Number of closed-shell orbitals:  11 (  11 )
 Number of external orbitals:     241 ( 241 )

 Molecular orbitals read from record     2100.2  Type=RHF/CANONICAL  

 Number of N-1 electron functions:              11
 Number of N-2 electron functions:              66
 Number of singly external CSFs:              2651
 Number of doubly external CSFs:           3515226
 Total number of CSFs:                     3517878

 Length of J-op  integral file:               0.00 MB
 Length of K-op  integral file:               4.81 MB
 Length of 3-ext integral record:             0.00 MB

 Memory could be reduced to 198.35 Mwords without degradation in triples

 Integral transformation finished. Total CPU:  18.95 sec, npass=  1  Memory used: 118.68 MW

 Reference energy:                   -958.74219386

 MP2 singlet pair energy:              -0.41472070
 MP2 triplet pair energy:              -0.21331490
 MP2 correlation energy:               -0.62803560
 MP2 total energy:                   -959.37022946

 SCS-MP2 correlation energy:           -0.63039411   (PS=  1.200000  PT=  0.333333)
 SCS-MP2 total energy:               -959.37258797

 ITER.      SQ.NORM     CORR.ENERGY   TOTAL ENERGY   ENERGY CHANGE        DEN1      VAR(S)    VAR(P)  DIIS     TIME  TIME/IT
   1      1.23288108    -0.66752109  -959.40971495    -0.03948549    -0.02548314  0.13D-02  0.27D-02  1  1   109.05    22.91
   2      1.24572253    -0.66981098  -959.41200484    -0.00228989    -0.01366245  0.29D-04  0.24D-03  2  2   132.30    23.31
   3      1.24894240    -0.66974760  -959.41194147     0.00006338    -0.00214314  0.16D-04  0.14D-04  3  3   155.39    23.42
   4      1.24980627    -0.66974126  -959.41193512     0.00000635    -0.00034778  0.14D-05  0.17D-05  4  4   178.61    23.49
   5      1.25005209    -0.66974960  -959.41194346    -0.00000834    -0.00005355  0.54D-06  0.15D-06  5  5   201.79    23.52
   6      1.25011683    -0.66974710  -959.41194096     0.00000250    -0.00001365  0.10D-06  0.31D-07  6  6   224.90    23.54
   7      1.25014212    -0.66974453  -959.41193839     0.00000257    -0.00000435  0.17D-07  0.54D-08  6  1   247.93    23.54
   8      1.25014987    -0.66974443  -959.41193829     0.00000010    -0.00000120  0.38D-08  0.73D-09  6  2   270.90    23.54
   9      1.25015281    -0.66974446  -959.41193832    -0.00000003     0.00000022  0.34D-09  0.17D-09  6  3   293.92    23.54

 Norm of t1 vector:      0.04969999      S-energy:    -0.00000005      T1 diagnostic:  0.00749256
                                                                       D1 diagnostic:  0.02355754
                                                                       D2 diagnostic:  0.15542402 (internal)


 Total CPU time for triples:    403.93 sec


 RESULTS
 =======

  Reference energy                   -958.742193862342
  CCSD singlet pair energy             -0.467736274747
  CCSD triplet pair energy             -0.202008126599
  CCSD correlation energy              -0.669744455118

  Triples (T) contribution             -0.028485322363
  Total correlation energy             -0.698229777482

  CCSD total energy                  -959.411938317460
  CCSD[T] energy                     -959.440800620265
  CCSD-T energy                      -959.440304851603
 !CCSD(T) total energy               -959.440423639823

 Timing summary (sec):

 STEP                 CPU(USER)    SYS     CPU(TOT)    WALL
 Transformation         19.17      1.36     20.53     20.53
 CCSD iterations       274.99      4.34    279.33    212.12
 Triples               403.93      6.23    410.16    410.29

 Program statistics:

 Available memory in ccsd:              1073741318
 Min. memory needed in ccsd:               9397503
 Max. memory used in ccsd:                12472641
 Max. memory used in cckext:               9720553 ( 9 integral passes)



 **********************************************************************************************************************************
 DATASETS  * FILE   NREC   LENGTH (MB)   RECORD NAMES
              1      20     1977.75       500      610      700      900      950      970     1000      129      960     1100   
                                          VAR    BASINP    GEOM    SYMINP    ZMAT    AOBASIS   BASIS     P2S    ABASIS      S 
                                         1400     1410     1200     1210     1080     1600     1650     1300     1700     1380   
                                           T        V       H0       H01     AOSYM     SMH    MOLCAS    ERIS     OPER     JKOP   

              2       4        1.56       700     1000      520     2100   
                                         GEOM     BASIS   MCVARS     RHF  

 PROGRAMS   *        TOTAL   CCSD(T)    HF-SCF       INT
 CPU TIMES  *       697.78    630.89     33.75     33.02
 REAL TIME  *       769.10 SEC
 DISK USED  *         5.84 GB
 **********************************************************************************************************************************

 Dump information in style XML to xml output                                                                      

 Orbitals will not be exported.

 **********************************************************************************************************************************

 CCSD(T)/cc-pVQZ energy=   -959.440423639823

         CCSD(T)          HF-SCF
   -959.44042364   -958.74219386
 **********************************************************************************************************************************
 Molpro calculation terminated
