
 Working directory              : /var/folders/2v/xbgp75_9785319ghcgb4zr4r0000gp/T//molpro.0jixSzqimU/
 Global scratch directory       : /var/folders/2v/xbgp75_9785319ghcgb4zr4r0000gp/T//molpro.0jixSzqimU/
 Wavefunction directory         : /Users/sacpjk/wfu/
 Main file repository           : /var/folders/2v/xbgp75_9785319ghcgb4zr4r0000gp/T//molpro.0jixSzqimU/

 id        : peterk

 Nodes                        nprocs
 Cardiff-University-G34YLXT77Y    1
 GA implementation: MPI file
 GA implementation (serial work in mppx): MPI file

 Using customized tuning parameters: mindgm=1; mindgv=20; mindgc=4; mindgr=1; noblas=0; minvec=7
 default implementation of scratch files=df  


 Variables initialized (1032), CPU time= 0.01 sec
 
 core,small
 angstrom
 
 geometry={
 H;F,H,0.91576748
 }
 basis=cc-pCVDZ
 
 
 
 hf; ccsd
 
 
 
 {put,xml;noorbitals,nobasis}
 Commands initialized (841), CPU time= 0.00 sec, 704 directives.
 Default parameters read. Elapsed time= 1.26 sec

 Checking input...
 Passed
1


                                         ***  PROGRAM SYSTEM MOLPRO  ***
                                       Copyright, TTI GmbH Stuttgart, 2015
                                    Version 2023.1 linked Tue Jun  6 09:54:11 2023


 **********************************************************************************************************************************
 LABEL *                                                                                                                                                                 
  64 bit serial version                                                                  DATE: 12-Jun-23          TIME: 09:36:03  
 **********************************************************************************************************************************

 SHA1:             8ebb0dd001088a5c915591db1a321413035db0b1
 **********************************************************************************************************************************

 Memory per process:       393 MW
 Total memory per node:    524 MW
 Total GA space:           131 MW

 GA preallocation disabled
 GA check enabled

 Variable memory set to 393.2 MW

 ZUNIT=ANG

 SETTING BASIS          =    CC-PCVDZ


 Recomputing integrals since basis changed


 Using spherical harmonics

 Library entry H      S cc-pVDZ              selected for orbital group  1
 Library entry H      P cc-pVDZ              selected for orbital group  1
 Library entry F      S cc-pCVDZ             selected for orbital group  2
 Library entry F      P cc-pCVDZ             selected for orbital group  2
 Library entry F      D cc-pCVDZ             selected for orbital group  2


 PROGRAM * SEWARD (Integral evaluation for generally contracted gaussian basis sets)     Author: Roland Lindh, 1990

 Geometry written to block  1 of record 700

 Orientation using atomic masses  
 Molecule type: Linear
 Symmetry elements: X,Y
 Rotational constants:     629.5970564    629.5970564      0.0000000 GHz  (calculated with average atomic masses)

 Point group  C2v 



 ATOMIC COORDINATES

 NR  ATOM    CHARGE       X              Y              Z

   1  H       1.00    0.000000000    0.000000000   -1.643362868
   2  F       9.00    0.000000000    0.000000000    0.087186863

 Bond lengths in Bohr (Angstrom)

 1-2  1.730549731
     ( 0.915767480)

 NUCLEAR CHARGE:                   10
 NUMBER OF PRIMITIVE AOS:          38
 NUMBER OF SYMMETRY AOS:           37
 NUMBER OF CONTRACTIONS:           23   (   12A1  +    5B1  +    5B2  +    1A2  )
 NUMBER OF INNER CORE ORBITALS:     0   (    0A1  +    0B1  +    0B2  +    0A2  )
 NUMBER OF OUTER CORE ORBITALS:     1   (    1A1  +    0B1  +    0B2  +    0A2  )
 NUMBER OF VALENCE ORBITALS:        5   (    3A1  +    1B1  +    1B2  +    0A2  )


 NUCLEAR REPULSION ENERGY    5.20065956

 EXTRA SYMMETRY OF AOS IN SYMMETRY 1:   1 1 1 1 1 1 1 1 1 1   1 2

 Eigenvalues of metric

         1 0.220E-01 0.459E-01 0.798E-01 0.164E+00 0.240E+00 0.971E+00 0.100E+01 0.102E+01
         2 0.177E+00 0.613E+00 0.993E+00 0.114E+01 0.208E+01
         3 0.177E+00 0.613E+00 0.993E+00 0.114E+01 0.208E+01
         4 0.100E+01


 Contracted 2-electron integrals neglected if value below      1.0D-11
 AO integral compression algorithm  1   Integral accuracy      1.0D-11

     0.262 MB (compressed) written to integral file (100.0%)


 NUMBER OF SORTED TWO-ELECTRON INTEGRALS:      12241.     BUFFER LENGTH:  32768
 NUMBER OF SEGMENTS:   1  SEGMENT LENGTH:      12241      RECORD LENGTH: 524288

 Memory used in sort:       0.57 MW

 SORT1 READ       16495. AND WROTE        9376. INTEGRALS IN      1 RECORDS. CPU TIME:     0.00 SEC, REAL TIME:     0.00 SEC
 SORT2 READ        9376. AND WROTE       12241. INTEGRALS IN      1 RECORDS. CPU TIME:     0.00 SEC, REAL TIME:     0.00 SEC

 FILE SIZES:   FILE 1:    30.2 MBYTE,  FILE 4:     4.3 MBYTE,   TOTAL:     34.5 MBYTE

 OPERATOR DM      FOR CENTER  0  COORDINATES:    0.000000    0.000000    0.000000


 **********************************************************************************************************************************
 DATASETS  * FILE   NREC   LENGTH (MB)   RECORD NAMES
              1      19       28.65       500      610      700      900      950      970     1000      129      960     1100   
                                          VAR    BASINP    GEOM    SYMINP    ZMAT    AOBASIS   BASIS     P2S    ABASIS      S 
                                         1400     1410     1200     1210     1080     1600     1650     1300     1700   
                                           T        V       H0       H01     AOSYM     SMH    MOLCAS    ERIS     OPER   

 PROGRAMS   *        TOTAL       INT
 CPU TIMES  *         0.16      0.07
 REAL TIME  *         2.23 SEC
 DISK USED  *        33.23 MB
 **********************************************************************************************************************************


 Program * Restricted Hartree-Fock

 Orbital guess generated from atomic densities. Full valence occupancy:    4   1   1   0

 Initial occupancy:   3   1   1   0

 NELEC=   10   SYM=1   MS2= 0   THRE=1.0D-08   THRD=3.2D-06   THRG=3.2D-06  HFMA2=F  DIIS_START=2   DIIS_MAX=10   DIIS_INCORE=F

 Level shifts:    0.00 (CLOSED)    0.00 (OPEN)    0.30 (GAP_MIN)

 ITER           ETOT              DE          GRAD        DDIFF     DIIS  NEXP   TIME(IT)  TIME(TOT)  DIAG
   1      -99.99314985     -99.99314985     0.00D+00     0.42D+00     0     0       0.00      0.00    start
   2     -100.01463726      -0.02148741     0.32D-01     0.67D-01     1     0       0.00      0.00    diag
   3     -100.01956192      -0.00492466     0.17D-01     0.18D-01     2     0       0.00      0.00    diag
   4     -100.01970987      -0.00014795     0.19D-02     0.36D-02     3     0       0.00      0.00    diag
   5     -100.01972830      -0.00001843     0.59D-03     0.13D-02     4     0       0.00      0.00    diag
   6     -100.01972912      -0.00000081     0.11D-03     0.25D-03     5     0       0.00      0.00    diag
   7     -100.01972913      -0.00000002     0.16D-04     0.43D-04     6     0       0.00      0.00    diag
   8     -100.01972913      -0.00000000     0.12D-05     0.37D-05     7     0       0.00      0.00    fixocc
   9     -100.01972913      -0.00000000     0.11D-06     0.26D-06     8     0       0.00      0.00    diag
  10     -100.01972913      -0.00000000     0.79D-08     0.15D-07     0     0       0.00      0.00    diag/orth

 Final occupancy:   3   1   1   0

 !RHF STATE 1.1 Energy               -100.019729133146
  RHF One-electron energy            -150.705062520264
  RHF Two-electron energy              45.484673828725
  RHF Kinetic energy                  100.036491339966
  RHF Nuclear energy                    5.200659558392
  RHF Virial quotient                  -0.999832439077

 !RHF STATE 1.1 Dipole moment           0.00000000     0.00000000    -0.76662291
 Dipole moment /Debye                   0.00000000     0.00000000    -1.94856108

 Orbital energies:

           1.1          2.1          3.1          4.1          5.1
    -26.277119    -1.583916    -0.748071     0.183840     0.810923

           1.2          2.2          3.2
     -0.629376     1.409810     1.602979

           1.3          2.3          3.3
     -0.629376     1.409810     1.602979

           1.4
      4.003805


 HOMO      1.3    -0.629376 =     -17.1262eV
 LUMO      4.1     0.183840 =       5.0025eV
 LUMO-HOMO         0.813216 =      22.1287eV

 Orbitals saved in record  2100.2


 **********************************************************************************************************************************
 DATASETS  * FILE   NREC   LENGTH (MB)   RECORD NAMES
              1      19       28.65       500      610      700      900      950      970     1000      129      960     1100   
                                          VAR    BASINP    GEOM    SYMINP    ZMAT    AOBASIS   BASIS     P2S    ABASIS      S 
                                         1400     1410     1200     1210     1080     1600     1650     1300     1700   
                                           T        V       H0       H01     AOSYM     SMH    MOLCAS    ERIS     OPER   

              2       4        0.38       700     1000      520     2100   
                                         GEOM     BASIS   MCVARS     RHF  

 PROGRAMS   *        TOTAL    HF-SCF       INT
 CPU TIMES  *         0.17      0.01      0.07
 REAL TIME  *         3.08 SEC
 DISK USED  *        33.23 MB
 **********************************************************************************************************************************


 PROGRAM * CCSD (Closed-shell coupled cluster)     Authors: C. Hampel, H.-J. Werner, 1991, M. Deegan, P.J. Knowles, 1992


 CORETYPE=SMALL

 Convergence thresholds:  THRVAR = 1.00D-08  THRDEN = 1.00D-06

 Number of closed-shell orbitals:   5 (   3   1   1   0 )
 Number of external orbitals:      18 (   9   4   4   1 )

 Molecular orbitals read from record     2100.2  Type=RHF/CANONICAL  

 Number of N-1 electron functions:               5
 Number of N-2 electron functions:              15
 Number of singly external CSFs:                35
 Number of doubly external CSFs:              1202
 Total number of CSFs:                        1238

 Length of J-op  integral file:               0.00 MB
 Length of K-op  integral file:               0.08 MB
 Length of 3-ext integral record:             0.00 MB

 Integral transformation finished. Total CPU:   0.00 sec, npass=  1  Memory used:   0.07 MW

 Reference energy:                   -100.01972913

 MP2 singlet pair energy:              -0.15522866
 MP2 triplet pair energy:              -0.08757416
 MP2 correlation energy:               -0.24280282
 MP2 total energy:                   -100.26253195

 SCS-MP2 correlation energy:           -0.24076498   (PS=  1.200000  PT=  0.333333)
 SCS-MP2 total energy:               -100.26049411

 ITER.      SQ.NORM     CORR.ENERGY   TOTAL ENERGY   ENERGY CHANGE        DEN1      VAR(S)    VAR(P)  DIIS     TIME  TIME/IT
   1      1.04079038    -0.24801271  -100.26774185    -0.00520989    -0.00235503  0.27D-03  0.44D-03  1  1     0.29     0.05
   2      1.04247247    -0.24850157  -100.26823070    -0.00048886    -0.00260389  0.51D-05  0.46D-04  2  2     0.29     0.03
   3      1.04312834    -0.24858049  -100.26830962    -0.00007892    -0.00068152  0.26D-05  0.16D-05  3  3     0.29     0.03
   4      1.04327430    -0.24856810  -100.26829723     0.00001239    -0.00012243  0.94D-07  0.97D-07  4  4     0.29     0.03
   5      1.04329445    -0.24856885  -100.26829798    -0.00000075    -0.00000212  0.19D-07  0.34D-08  5  5     0.30     0.03
   6      1.04329889    -0.24856863  -100.26829776     0.00000022    -0.00000026  0.18D-08  0.33D-09  6  6     0.30     0.03

 Norm of t1 vector:      0.02197896      S-energy:    -0.00000051      T1 diagnostic:  0.00491464
                                                                       D1 diagnostic:  0.01349079
                                                                       D2 diagnostic:  0.11445141 (internal)


 RESULTS
 =======

  Reference energy                   -100.019729133146

  Correlated core orbitals:             1.1
  Orbital energies:                   -26.2771

  CCSD core-core energy                -0.030094590736
  CCSD core-valence energy             -0.008667264771
  CCSD valence correlation energy      -0.209806772661

  CCSD singlet pair energy             -0.169963554204
  CCSD triplet pair energy             -0.078604566654
  CCSD correlation energy              -0.248568628169

 !CCSD total energy                  -100.268297761315

 Timing summary (sec):

 STEP                 CPU(USER)    SYS     CPU(TOT)    WALL
 CCSD iterations         0.30      0.01      0.31      0.44

 Program statistics:

 Available memory in ccsd:               393215897
 Min. memory needed in ccsd:                  6785
 Max. memory used in ccsd:                    7417
 Max. memory used in cckext:                 39878 ( 6 integral passes)



 **********************************************************************************************************************************
 DATASETS  * FILE   NREC   LENGTH (MB)   RECORD NAMES
              1      20       28.72       500      610      700      900      950      970     1000      129      960     1100   
                                          VAR    BASINP    GEOM    SYMINP    ZMAT    AOBASIS   BASIS     P2S    ABASIS      S 
                                         1400     1410     1200     1210     1080     1600     1650     1300     1700     1380   
                                           T        V       H0       H01     AOSYM     SMH    MOLCAS    ERIS     OPER     JKOP   

              2       4        0.38       700     1000      520     2100   
                                         GEOM     BASIS   MCVARS     RHF  

 PROGRAMS   *        TOTAL      CCSD    HF-SCF       INT
 CPU TIMES  *         0.21      0.04      0.01      0.07
 REAL TIME  *         3.70 SEC
 DISK USED  *        33.23 MB
 **********************************************************************************************************************************

 Dump information in style XML to xml output                                                                      

 Orbitals will not be exported.

 **********************************************************************************************************************************

 CCSD/cc-pCVDZ energy=   -100.268297761315

            CCSD          HF-SCF
   -100.26829776   -100.01972913
 **********************************************************************************************************************************
 Molpro calculation terminated
