
 Working directory              : /var/folders/2v/xbgp75_9785319ghcgb4zr4r0000gp/T//molpro.o3b7K7QnE3/
 Global scratch directory       : /var/folders/2v/xbgp75_9785319ghcgb4zr4r0000gp/T//molpro.o3b7K7QnE3/
 Wavefunction directory         : /Users/sacpjk/wfu/
 Main file repository           : /var/folders/2v/xbgp75_9785319ghcgb4zr4r0000gp/T//molpro.o3b7K7QnE3/

 id        : peterk

 Nodes                        nprocs
 Cardiff-University-G34YLXT77Y    1
 GA implementation: MPI file
 GA implementation (serial work in mppx): MPI file

 Using customized tuning parameters: mindgm=1; mindgv=20; mindgc=4; mindgr=1; noblas=0; minvec=7
 default implementation of scratch files=df  


 Variables initialized (1032), CPU time= 0.00 sec
 
 symmetry,nosym
 
 
 geometry={
           12
     C         -1.11892819     -0.39300694      0.06045902
     C         -1.06961559      0.98569179     -0.03334154
     O          1.04351911      1.35627307     -0.21429353
     N          1.47852950      0.22573745      0.22941624
     C          0.95782302     -0.89868106     -0.27213199
     H         -1.24594514     -0.86133041      1.03067153
     H         -1.48801729     -0.97414862     -0.77721283
     H         -1.09461977      1.61014793      0.84916022
     H         -1.26644925      1.48844296     -0.97025939
     H          1.75317167      0.20428368      1.21443326
     H          0.82089701     -0.92013135     -1.34318470
     H          1.22963493     -1.82327849      0.22628373
 }
 basis=cc-pVTZ
 
 
 
 hf; ccsd(t)
 
 
 
 {put,xml;noorbitals,nobasis}
 Commands initialized (841), CPU time= 0.01 sec, 704 directives.
 Default parameters read. Elapsed time= 1.43 sec

 Checking input...
 Passed
1


                                         ***  PROGRAM SYSTEM MOLPRO  ***
                                       Copyright, TTI GmbH Stuttgart, 2015
                                    Version 2023.1 linked Tue Jun  6 09:54:11 2023


 **********************************************************************************************************************************
 LABEL *                                                                                                                                                                 
  64 bit serial version                                                                  DATE: 12-Jun-23          TIME: 01:54:29  
 **********************************************************************************************************************************

 SHA1:             8ebb0dd001088a5c915591db1a321413035db0b1
 **********************************************************************************************************************************

 Memory per process:       393 MW
 Total memory per node:    524 MW
 Total GA space:           131 MW

 GA preallocation disabled
 GA check enabled

 Variable memory set to 393.2 MW

 ZSYMEL=NOSYM


 Geometry recognized as XYZ

 SETTING BASIS          =    CC-PVTZ


 Recomputing integrals since basis changed


 Using spherical harmonics

 Library entry C      S cc-pVTZ              selected for orbital group  1
 Library entry C      P cc-pVTZ              selected for orbital group  1
 Library entry C      D cc-pVTZ              selected for orbital group  1
 Library entry C      F cc-pVTZ              selected for orbital group  1
 Library entry O      S cc-pVTZ              selected for orbital group  2
 Library entry O      P cc-pVTZ              selected for orbital group  2
 Library entry O      D cc-pVTZ              selected for orbital group  2
 Library entry O      F cc-pVTZ              selected for orbital group  2
 Library entry N      S cc-pVTZ              selected for orbital group  3
 Library entry N      P cc-pVTZ              selected for orbital group  3
 Library entry N      D cc-pVTZ              selected for orbital group  3
 Library entry N      F cc-pVTZ              selected for orbital group  3
 Library entry H      S cc-pVTZ              selected for orbital group  5
 Library entry H      P cc-pVTZ              selected for orbital group  5
 Library entry H      D cc-pVTZ              selected for orbital group  5


 PROGRAM * SEWARD (Integral evaluation for generally contracted gaussian basis sets)     Author: Roland Lindh, 1990

 Geometry written to block  1 of record 700


 Point group  C1  



 ATOMIC COORDINATES

 NR  ATOM    CHARGE       X              Y              Z

   1  C       6.00   -2.114467832   -0.742675482    0.114250990
   2  C       6.00   -2.021280524    1.862687526   -0.063006379
   3  O       8.00    1.971965324    2.562984653   -0.404956082
   4  N       7.00    2.794015822    0.426581957    0.433533862
   5  C       6.00    1.810023184   -1.698261077   -0.514254931
   6  H       1.00   -2.354495081   -1.627678578    1.947686916
   7  H       1.00   -2.811945147   -1.840874096   -1.468719389
   8  H       1.00   -2.068531576    3.042738608    1.604680252
   9  H       1.00   -2.393242233    2.812749547   -1.833524517
  10  H       1.00    3.313014306    0.386040207    2.294946258
  11  H       1.00    1.551270525   -1.738796250   -2.538251218
  12  H       1.00    2.323673251   -3.445496995    0.427614276

 Bond lengths in Bohr (Angstrom)

 1-2  2.613048115  1-6  2.049958745  1-7  2.048977799  2-8  2.043509705  2-9  2.043454876
     ( 1.382765514)     ( 1.084791451)     ( 1.084272357)     ( 1.081378766)     ( 1.081349752)

  3- 4  2.437836928   4- 5  2.526163697   4-10  1.932837077   5-11  2.040871629   5-12  2.050313963
       ( 1.290047746)       ( 1.336788260)       ( 1.022813334)       ( 1.079982757)       ( 1.084979425)

 Bond angles

  1-2-8  121.30409335   1-2-9  121.05397866   2-1-6  119.68913623   2-1-7  119.61238021

  3- 4- 5  118.47242249   3- 4-10  116.11441286   4- 5-11  115.98772127   4- 5-12  116.54242229

  5- 4-10  116.63301031   6- 1- 7  114.81681703   8- 2- 9  115.74705984  11- 5-12  118.06133276

 NUCLEAR CHARGE:                   40
 NUMBER OF PRIMITIVE AOS:         354
 NUMBER OF SYMMETRY AOS:          322
 NUMBER OF CONTRACTIONS:          248   (  248A   )
 NUMBER OF INNER CORE ORBITALS:     0   (    0A   )
 NUMBER OF OUTER CORE ORBITALS:     5   (    5A   )
 NUMBER OF VALENCE ORBITALS:       27   (   27A   )


 NUCLEAR REPULSION ENERGY  180.61848696


 Eigenvalues of metric

         1 0.440E-03 0.839E-03 0.946E-03 0.119E-02 0.131E-02 0.139E-02 0.146E-02 0.170E-02


 Contracted 2-electron integrals neglected if value below      1.0D-11
 AO integral compression algorithm  1   Integral accuracy      1.0D-11

     1755.054 MB (compressed) written to integral file ( 43.0%)


 NUMBER OF SORTED TWO-ELECTRON INTEGRALS:  476679126.     BUFFER LENGTH:  32768
 NUMBER OF SEGMENTS:  30  SEGMENT LENGTH:   15999762      RECORD LENGTH: 524288

 Memory used in sort:      16.56 MW

 SORT1 READ   510246327. AND WROTE   437196681. INTEGRALS IN   1265 RECORDS. CPU TIME:     4.11 SEC, REAL TIME:     5.95 SEC
 SORT2 READ   437196681. AND WROTE   476679126. INTEGRALS IN   6695 RECORDS. CPU TIME:     2.95 SEC, REAL TIME:     5.04 SEC

 FILE SIZES:   FILE 1:  1787.5 MBYTE,  FILE 4:  5305.9 MBYTE,   TOTAL:   7093.4 MBYTE

 OPERATOR DM      FOR CENTER  0  COORDINATES:    0.000000    0.000000    0.000000


 **********************************************************************************************************************************
 DATASETS  * FILE   NREC   LENGTH (MB)   RECORD NAMES
              1      19     1579.03       500      610      700      900      950      970     1000      129      960     1100   
                                          VAR    BASINP    GEOM    SYMINP    ZMAT    AOBASIS   BASIS     P2S    ABASIS      S 
                                         1400     1410     1200     1210     1080     1600     1650     1300     1700   
                                           T        V       H0       H01     AOSYM     SMH    MOLCAS    ERIS     OPER   

 PROGRAMS   *        TOTAL       INT
 CPU TIMES  *        18.67     18.57
 REAL TIME  *        28.92 SEC
 DISK USED  *         6.61 GB
 **********************************************************************************************************************************


 Program * Restricted Hartree-Fock

 Orbital guess generated from atomic densities. Full valence occupancy:   32

 Initial occupancy:  20

 NELEC=   40   SYM=1   MS2= 0   THRE=1.0D-08   THRD=3.2D-06   THRG=3.2D-06  HFMA2=F  DIIS_START=2   DIIS_MAX=10   DIIS_INCORE=F

 Level shifts:    0.00 (CLOSED)    0.00 (OPEN)    0.30 (GAP_MIN)

 ITER           ETOT              DE          GRAD        DDIFF     DIIS  NEXP   TIME(IT)  TIME(TOT)  DIAG
   1     -246.78512118    -246.78512118     0.00D+00     0.48D-01     0     0       2.46      4.75    start
   2     -246.84474348      -0.05962230     0.46D-02     0.64D-02     1     0       2.54      7.29    diag
   3     -246.88893479      -0.04419131     0.36D-02     0.27D-02     2     0       2.58      9.87    diag
   4     -246.89093034      -0.00199556     0.53D-03     0.71D-03     3     0       2.54     12.41    diag
   5     -246.89130101      -0.00037066     0.21D-03     0.29D-03     4     0       2.57     14.98    diag
   6     -246.89143067      -0.00012966     0.12D-03     0.15D-03     5     0       2.49     17.47    diag
   7     -246.89148761      -0.00005694     0.47D-04     0.14D-03     6     0       2.53     20.00    diag
   8     -246.89149834      -0.00001073     0.23D-04     0.68D-04     7     0       2.58     22.58    fixocc
   9     -246.89149937      -0.00000103     0.73D-05     0.22D-04     8     0       2.46     25.04    diag
  10     -246.89149944      -0.00000007     0.22D-05     0.56D-05     9     0       2.52     27.56    diag/orth
  11     -246.89149945      -0.00000001     0.66D-06     0.13D-05     9     0       2.43     29.99    diag
  12     -246.89149945      -0.00000000     0.26D-06     0.39D-06     0     0       2.55     32.54    diag

 Final occupancy:  20

 !RHF STATE 1.1 Energy               -246.891499450293
  RHF One-electron energy            -693.930134246479
  RHF Two-electron energy             266.420147834874
  RHF Kinetic energy                  246.488826507570
  RHF Nuclear energy                  180.618486961312
  RHF Virial quotient                  -1.001633635684

 !RHF STATE 1.1 Dipole moment          -0.02466934    -1.16909387     0.46382951
 Dipole moment /Debye                  -0.06270320    -2.97154022     1.17893702

 Orbital energies:

           1.1          2.1          3.1          4.1          5.1          6.1          7.1          8.1          9.1         10.1
    -20.530731   -15.657468   -11.300388   -11.247097   -11.214548    -1.416006    -1.116055    -1.023659    -0.877694    -0.795804

          11.1         12.1         13.1         14.1         15.1         16.1         17.1         18.1         19.1         20.1
     -0.725768    -0.653929    -0.629089    -0.601782    -0.574780    -0.569358    -0.502276    -0.432556    -0.359013    -0.316946

          21.1         22.1
      0.104962     0.135444


 HOMO     20.1    -0.316946 =      -8.6245eV
 LUMO     21.1     0.104962 =       2.8562eV
 LUMO-HOMO         0.421907 =      11.4807eV

 Orbitals saved in record  2100.2


 **********************************************************************************************************************************
 DATASETS  * FILE   NREC   LENGTH (MB)   RECORD NAMES
              1      19     1579.03       500      610      700      900      950      970     1000      129      960     1100   
                                          VAR    BASINP    GEOM    SYMINP    ZMAT    AOBASIS   BASIS     P2S    ABASIS      S 
                                         1400     1410     1200     1210     1080     1600     1650     1300     1700   
                                           T        V       H0       H01     AOSYM     SMH    MOLCAS    ERIS     OPER   

              2       4        1.54       700     1000      520     2100   
                                         GEOM     BASIS   MCVARS     RHF  

 PROGRAMS   *        TOTAL    HF-SCF       INT
 CPU TIMES  *        51.22     32.55     18.57
 REAL TIME  *        66.34 SEC
 DISK USED  *         6.61 GB
 **********************************************************************************************************************************


 PROGRAM * CCSD (Closed-shell coupled cluster)     Authors: C. Hampel, H.-J. Werner, 1991, M. Deegan, P.J. Knowles, 1992


 Convergence thresholds:  THRVAR = 1.00D-08  THRDEN = 1.00D-06

 CCSD(T)     terms to be evaluated (factor= 1.000)


 Number of core orbitals:           5 (   5 )
 Number of closed-shell orbitals:  15 (  15 )
 Number of external orbitals:     228 ( 228 )

 Molecular orbitals read from record     2100.2  Type=RHF/CANONICAL  

 Number of N-1 electron functions:              15
 Number of N-2 electron functions:             120
 Number of singly external CSFs:              3420
 Number of doubly external CSFs:           5849910
 Total number of CSFs:                     5853331

 Length of J-op  integral file:               0.00 MB
 Length of K-op  integral file:               4.29 MB
 Length of 3-ext integral record:             0.00 MB

 Memory could be reduced to 222.14 Mwords without degradation in triples

 Integral transformation finished. Total CPU:  17.05 sec, npass=  1  Memory used: 135.98 MW

 Reference energy:                   -246.89149945

 MP2 singlet pair energy:              -0.63004373
 MP2 triplet pair energy:              -0.36978061
 MP2 correlation energy:               -0.99982434
 MP2 total energy:                   -247.89132379

 SCS-MP2 correlation energy:           -0.98613819   (PS=  1.200000  PT=  0.333333)
 SCS-MP2 total energy:               -247.87763764

 ITER.      SQ.NORM     CORR.ENERGY   TOTAL ENERGY   ENERGY CHANGE        DEN1      VAR(S)    VAR(P)  DIIS     TIME  TIME/IT
   1      1.31079167    -1.01513829  -247.90663774    -0.01531395     0.01900758  0.10D-01  0.85D-02  1  1    97.76    30.58
   2      1.33659025    -1.01597858  -247.90747804    -0.00084030    -0.02722676  0.25D-03  0.13D-02  2  2   127.18    31.30
   3      1.35100533    -1.01689252  -247.90839197    -0.00091393    -0.00554096  0.52D-03  0.10D-03  3  3   156.45    31.38
   4      1.35766914    -1.01677502  -247.90827447     0.00011749    -0.00184234  0.10D-03  0.32D-04  4  4   186.12    31.54
   5      1.36407988    -1.01686692  -247.90836637    -0.00009190    -0.00102989  0.27D-04  0.38D-05  5  5   216.29    31.69
   6      1.36673241    -1.01678025  -247.90827970     0.00008667    -0.00023887  0.35D-05  0.84D-06  6  6   245.07    31.60
   7      1.36762178    -1.01674729  -247.90824674     0.00003296    -0.00004737  0.56D-06  0.24D-06  6  2   275.06    31.70
   8      1.36780194    -1.01674229  -247.90824174     0.00000501    -0.00000081  0.14D-06  0.48D-07  6  1   304.18    31.67
   9      1.36789190    -1.01673793  -247.90823738     0.00000436     0.00000511  0.38D-07  0.96D-08  6  4   333.15    31.60
  10      1.36789974    -1.01673913  -247.90823858    -0.00000120    -0.00000373  0.12D-07  0.25D-08  6  3   363.27    31.69
  11      1.36790676    -1.01673890  -247.90823835     0.00000023     0.00000039  0.39D-08  0.98D-09  6  5   392.63    31.68
  12      1.36790951    -1.01673904  -247.90823849    -0.00000014     0.00000012  0.89D-09  0.23D-09  6  6   422.17    31.69

 Norm of t1 vector:      0.16396637      S-energy:     0.00000183      T1 diagnostic:  0.02116797
                                                                       D1 diagnostic:  0.09943853
                                                                       D2 diagnostic:  0.20798207 (external, symmetry=1)

 Singles amplitudes (print threshold =  0.500E-01):

         I         SYM. A    A   T(IA)

        14         1         1     -0.05788858
        15         1         1      0.06086823

 Doubles amplitudes (print threshold =  0.500E-01):

         I         J         SYM. A    SYM. B    A         B      T(IJ, AB)

        14        14         1         1         1         1     -0.06519749
        15        15         1         1         1         1     -0.06545177


 Total CPU time for triples:    612.82 sec


 RESULTS
 =======

  Reference energy                   -246.891499450294
  CCSD singlet pair energy             -0.690871106060
  CCSD triplet pair energy             -0.325869760021
  CCSD correlation energy              -1.016739039806

  Triples (T) contribution             -0.052478489874
  Total correlation energy             -1.069217529680

  CCSD total energy                  -247.908238490100
  CCSD[T] energy                     -247.963801243086
  CCSD-T energy                      -247.959962407697
 !CCSD(T) total energy               -247.960716979974

 Timing summary (sec):

 STEP                 CPU(USER)    SYS     CPU(TOT)    WALL
 Transformation         17.42      2.08     19.50     19.55
 CCSD iterations       404.97     12.82    417.79    380.92
 Triples               612.82     16.64    629.46    653.48

 Program statistics:

 Available memory in ccsd:               393215080
 Min. memory needed in ccsd:              14547714
 Max. memory used in ccsd:                19866654
 Max. memory used in cckext:              15370617 (12 integral passes)



 **********************************************************************************************************************************
 DATASETS  * FILE   NREC   LENGTH (MB)   RECORD NAMES
              1      20     2345.72       500      610      700      900      950      970     1000      129      960     1100   
                                          VAR    BASINP    GEOM    SYMINP    ZMAT    AOBASIS   BASIS     P2S    ABASIS      S 
                                         1400     1410     1200     1210     1080     1600     1650     1300     1700     1380   
                                           T        V       H0       H01     AOSYM     SMH    MOLCAS    ERIS     OPER     JKOP   

              2       4        1.54       700     1000      520     2100   
                                         GEOM     BASIS   MCVARS     RHF  

 PROGRAMS   *        TOTAL   CCSD(T)    HF-SCF       INT
 CPU TIMES  *      1035.10    983.88     32.55     18.57
 REAL TIME  *      1120.93 SEC
 DISK USED  *         6.61 GB
 **********************************************************************************************************************************

 Dump information in style XML to xml output                                                                      

 Orbitals will not be exported.

 **********************************************************************************************************************************

 CCSD(T)/cc-pVTZ energy=   -247.960716979974

         CCSD(T)          HF-SCF
   -247.96071698   -246.89149945
 **********************************************************************************************************************************
 Molpro calculation terminated
