
 Working directory              : /var/folders/2v/xbgp75_9785319ghcgb4zr4r0000gp/T//molpro.wEOSRy80tf/
 Global scratch directory       : /var/folders/2v/xbgp75_9785319ghcgb4zr4r0000gp/T//molpro.wEOSRy80tf/
 Wavefunction directory         : /Users/sacpjk/wfu/
 Main file repository           : /var/folders/2v/xbgp75_9785319ghcgb4zr4r0000gp/T//molpro.wEOSRy80tf/

 id        : peterk

 Nodes                        nprocs
 Cardiff-University-G34YLXT77Y    1
 GA implementation: MPI file
 GA implementation (serial work in mppx): MPI file

 Using customized tuning parameters: mindgm=1; mindgv=20; mindgc=4; mindgr=1; noblas=0; minvec=7
 default implementation of scratch files=df  


 Variables initialized (1032), CPU time= 0.01 sec
 
 symmetry,nosym
 
 
 geometry={
 6
  o         -0.476185399392   -0.219086500579   -0.963658318301
  h         -0.007396089470    0.395298023300   -1.533324272224
  c          0.032648526195   -0.062067562648    0.358059006132
  h         -0.520920553815   -0.750263989314    0.988189885964
  h          1.091644628339   -0.312506461406    0.414782146705
  h         -0.119791111857    0.948626490648    0.735951551724
 }
 basis=aug-cc-pVDZ
 
 
 
 hf; hf; papt; mp3
 
 
 
 {put,xml;noorbitals,nobasis}
 Commands initialized (841), CPU time= 0.00 sec, 704 directives.
 Default parameters read. Elapsed time= 0.07 sec

 Checking input...
 Passed
1


                                         ***  PROGRAM SYSTEM MOLPRO  ***
                                       Copyright, TTI GmbH Stuttgart, 2015
                                    Version 2023.1 linked Tue Jun  6 09:54:11 2023


 **********************************************************************************************************************************
 LABEL *                                                                                                                                                                 
  64 bit serial version                                                                  DATE: 08-Jun-23          TIME: 21:54:56  
 **********************************************************************************************************************************

 SHA1:             8ebb0dd001088a5c915591db1a321413035db0b1
 **********************************************************************************************************************************

 Memory per process:       805 MW
 Total memory per node:   1074 MW
 Total GA space:           268 MW

 GA preallocation disabled
 GA check enabled

 Variable memory set to 805.3 MW

 ZSYMEL=NOSYM


 Geometry recognized as XYZ

 SETTING BASIS          =    AUG-CC-PVDZ


 Recomputing integrals since basis changed


 Using spherical harmonics

 Library entry O      S aug-cc-pVDZ          selected for orbital group  1
 Library entry O      P aug-cc-pVDZ          selected for orbital group  1
 Library entry O      D aug-cc-pVDZ          selected for orbital group  1
 Library entry H      S aug-cc-pVDZ          selected for orbital group  2
 Library entry H      P aug-cc-pVDZ          selected for orbital group  2
 Library entry C      S aug-cc-pVDZ          selected for orbital group  3
 Library entry C      P aug-cc-pVDZ          selected for orbital group  3
 Library entry C      D aug-cc-pVDZ          selected for orbital group  3


 PROGRAM * SEWARD (Integral evaluation for generally contracted gaussian basis sets)     Author: Roland Lindh, 1990

 Geometry written to block  1 of record 700


 Point group  C1  



 ATOMIC COORDINATES

 NR  ATOM    CHARGE       X              Y              Z

   1  O       8.00   -0.899859989   -0.414013484   -1.821050299
   2  H       1.00   -0.013976583    0.747005002   -2.897562935
   3  C       6.00    0.061696773   -0.117290695    0.676633458
   4  H       1.00   -0.984397179   -1.417793461    1.867408244
   5  H       1.00    2.062909373   -0.590551624    0.783824659
   6  H       1.00   -0.226372394    1.792644262    1.390746874

 Bond lengths in Bohr (Angstrom)

 1-2  1.814285751  1-3  2.692779228  3-4  2.050259640  3-5  2.059203179  3-6  2.059318662
     ( 0.960078674)     ( 1.424957402)     ( 1.084950678)     ( 1.089683395)     ( 1.089744506)

 Bond angles

  1-3-4  106.65583751   1-3-5  111.71494432   1-3-6  111.95602746   2-1-3  107.78761844

  4-3-5  108.65333214   4-3-6  108.39236687   5-3-6  109.33255661

 NUCLEAR CHARGE:                   18
 NUMBER OF PRIMITIVE AOS:         118
 NUMBER OF SYMMETRY AOS:          114
 NUMBER OF CONTRACTIONS:           82   (   82A   )
 NUMBER OF INNER CORE ORBITALS:     0   (    0A   )
 NUMBER OF OUTER CORE ORBITALS:     2   (    2A   )
 NUMBER OF VALENCE ORBITALS:       12   (   12A   )


 NUCLEAR REPULSION ENERGY   40.29806389

 Eigenvalues of metric

         1 0.649E-03 0.791E-03 0.807E-03 0.110E-02 0.249E-02 0.437E-02 0.492E-02 0.521E-02


 Contracted 2-electron integrals neglected if value below      1.0D-11
 AO integral compression algorithm  1   Integral accuracy      1.0D-11

     32.506 MB (compressed) written to integral file ( 56.3%)


 NUMBER OF SORTED TWO-ELECTRON INTEGRALS:    5791906.     BUFFER LENGTH:  32768
 NUMBER OF SEGMENTS:   1  SEGMENT LENGTH:    5791906      RECORD LENGTH: 524288

 Memory used in sort:       6.35 MW

 SORT1 READ     7210272. AND WROTE     5721694. INTEGRALS IN     17 RECORDS. CPU TIME:     0.04 SEC, REAL TIME:     0.05 SEC
 SORT2 READ     5721694. AND WROTE     5791906. INTEGRALS IN    124 RECORDS. CPU TIME:     0.07 SEC, REAL TIME:     0.09 SEC

 FILE SIZES:   FILE 1:    62.8 MBYTE,  FILE 4:    71.4 MBYTE,   TOTAL:    134.2 MBYTE

 OPERATOR DM      FOR CENTER  0  COORDINATES:    0.000000    0.000000    0.000000


 **********************************************************************************************************************************
 DATASETS  * FILE   NREC   LENGTH (MB)   RECORD NAMES
              1      19       54.33       500      610      700      900      950      970     1000      129      960     1100   
                                          VAR    BASINP    GEOM    SYMINP    ZMAT    AOBASIS   BASIS     P2S    ABASIS      S 
                                         1400     1410     1200     1210     1080     1600     1650     1300     1700   
                                           T        V       H0       H01     AOSYM     SMH    MOLCAS    ERIS     OPER   

 PROGRAMS   *        TOTAL       INT
 CPU TIMES  *         0.48      0.38
 REAL TIME  *         0.79 SEC
 DISK USED  *       128.40 MB
 **********************************************************************************************************************************


 Program * Restricted Hartree-Fock

 Orbital guess generated from atomic densities. Full valence occupancy:   14

 Initial occupancy:   9

 NELEC=   18   SYM=1   MS2= 0   THRE=1.0D-08   THRD=3.2D-06   THRG=3.2D-06  HFMA2=F  DIIS_START=2   DIIS_MAX=10   DIIS_INCORE=F

 Level shifts:    0.00 (CLOSED)    0.00 (OPEN)    0.30 (GAP_MIN)

 ITER           ETOT              DE          GRAD        DDIFF     DIIS  NEXP   TIME(IT)  TIME(TOT)  DIAG
   1     -115.02701931    -115.02701931     0.00D+00     0.97D-01     0     0       0.02      0.04    start
   2     -115.05425597      -0.02723665     0.72D-02     0.12D-01     1     0       0.03      0.07    diag
   3     -115.06091313      -0.00665716     0.37D-02     0.38D-02     2     0       0.02      0.09    diag
   4     -115.06143690      -0.00052377     0.79D-03     0.12D-02     3     0       0.02      0.11    diag
   5     -115.06146483      -0.00002792     0.15D-03     0.28D-03     4     0       0.03      0.14    diag
   6     -115.06146604      -0.00000121     0.26D-04     0.58D-04     5     0       0.02      0.16    diag
   7     -115.06146609      -0.00000005     0.51D-05     0.12D-04     6     0       0.03      0.19    diag
   8     -115.06146609      -0.00000000     0.12D-05     0.25D-05     7     0       0.02      0.21    fixocc
   9     -115.06146609      -0.00000000     0.28D-06     0.45D-06     0     0       0.02      0.23    diag

 Final occupancy:   9

 !RHF STATE 1.1 Energy               -115.061466093521
  RHF One-electron energy            -236.727652146336
  RHF Two-electron energy              81.368122164954
  RHF Kinetic energy                  114.890699404361
  RHF Nuclear energy                   40.298063887860
  RHF Virial quotient                  -1.001486340409

 !RHF STATE 1.1 Dipole moment           0.51291771     0.45143085     0.22187642
 Dipole moment /Debye                   1.30370678     1.14742278     0.56395362

 Orbital energies:

           1.1          2.1          3.1          4.1          5.1          6.1          7.1          8.1          9.1         10.1
    -20.568345   -11.278592    -1.359751    -0.928328    -0.691166    -0.620512    -0.592650    -0.505035    -0.451337     0.034510

          11.1
      0.051730


 HOMO      9.1    -0.451337 =     -12.2815eV
 LUMO     10.1     0.034510 =       0.9391eV
 LUMO-HOMO         0.485846 =      13.2206eV

 Orbitals saved in record  2100.2


 **********************************************************************************************************************************
 DATASETS  * FILE   NREC   LENGTH (MB)   RECORD NAMES
              1      19       54.33       500      610      700      900      950      970     1000      129      960     1100   
                                          VAR    BASINP    GEOM    SYMINP    ZMAT    AOBASIS   BASIS     P2S    ABASIS      S 
                                         1400     1410     1200     1210     1080     1600     1650     1300     1700   
                                           T        V       H0       H01     AOSYM     SMH    MOLCAS    ERIS     OPER   

              2       4        0.57       700     1000      520     2100   
                                         GEOM     BASIS   MCVARS     RHF  

 PROGRAMS   *        TOTAL    HF-SCF       INT
 CPU TIMES  *         0.71      0.23      0.38
 REAL TIME  *         1.13 SEC
 DISK USED  *       128.40 MB
 **********************************************************************************************************************************


 Program * Restricted Hartree-Fock

 Molecular orbitals read from record     2100.2  Type=RHF/CANONICAL  

 Initial occupancy:   9

 NELEC=   18   SYM=1   MS2= 0   THRE=1.0D-08   THRD=3.2D-06   THRG=3.2D-06  HFMA2=F  DIIS_START=2   DIIS_MAX=10   DIIS_INCORE=F

 Level shifts:    0.00 (CLOSED)    0.00 (OPEN)    0.30 (GAP_MIN)

 ITER           ETOT              DE          GRAD        DDIFF     DIIS  NEXP   TIME(IT)  TIME(TOT)  DIAG
   1     -115.06146609    -115.06146609     0.00D+00     0.99D-01     0     0       0.03      0.03    start
   2     -115.06146609      -0.00000000     0.12D-06     0.19D-06     1     0       0.02      0.05    diag

 Final occupancy:   9

 !RHF STATE 1.1 Energy               -115.061466093540
  RHF One-electron energy            -236.727646237705
  RHF Two-electron energy              81.368116256305
  RHF Kinetic energy                  114.890697736686
  RHF Nuclear energy                   40.298063887860
  RHF Virial quotient                  -1.001486354946

 !RHF STATE 1.1 Dipole moment           0.51291789     0.45143011     0.22188013
 Dipole moment /Debye                   1.30370723     1.14742089     0.56396304

 Orbital energies:

           1.1          2.1          3.1          4.1          5.1          6.1          7.1          8.1          9.1         10.1
    -20.568345   -11.278586    -1.359751    -0.928326    -0.691165    -0.620511    -0.592649    -0.505034    -0.451336     0.034510

          11.1
      0.051730


 HOMO      9.1    -0.451336 =     -12.2815eV
 LUMO     10.1     0.034510 =       0.9391eV
 LUMO-HOMO         0.485846 =      13.2205eV

 Orbitals saved in record  2101.2


 **********************************************************************************************************************************
 DATASETS  * FILE   NREC   LENGTH (MB)   RECORD NAMES
              1      19       54.33       500      610      700      900      950      970     1000      129      960     1100   
                                          VAR    BASINP    GEOM    SYMINP    ZMAT    AOBASIS   BASIS     P2S    ABASIS      S 
                                         1400     1410     1200     1210     1080     1600     1650     1300     1700   
                                           T        V       H0       H01     AOSYM     SMH    MOLCAS    ERIS     OPER   

              2       5        0.85       700     1000      520     2100     2101   
                                         GEOM     BASIS   MCVARS     RHF      RHF  

 PROGRAMS   *        TOTAL    HF-SCF    HF-SCF       INT
 CPU TIMES  *         0.77      0.05      0.23      0.38
 REAL TIME  *         1.25 SEC
 DISK USED  *       128.40 MB
 **********************************************************************************************************************************


 PROGRAM * PAPT (Closed-shell)     Authors: C. Hampel, H.-J. Werner, 1991, P.J. Knowles, 2021


 Convergence thresholds:  THRVAR = 1.00D-08  THRDEN = 1.00D-06

 Number of core orbitals:           2 (   2 )
 Number of closed-shell orbitals:   7 (   7 )
 Number of external orbitals:      73 (  73 )

 Molecular orbitals read from record     2101.2  Type=RHF/CANONICAL  

 Number of N-1 electron functions:               7
 Number of N-2 electron functions:              28
 Number of singly external CSFs:               511
 Number of doubly external CSFs:            130816
 Total number of CSFs:                      131328

 Length of J-op  integral file:               0.00 MB
 Length of K-op  integral file:               0.52 MB

 Integral transformation finished. Total CPU:   0.05 sec, npass=  1  Memory used:   0.49 MW

 Reference energy:                   -115.06146609

                        CORR.ENERGY   TOTAL ENERGY   ENERGY CHANGE
 MP2:                   -0.36002768  -115.42149377    -0.36002768

 SCS-MP2 correlation energy:           -0.35751819   (PS=  1.200000  PT=  0.333333)
 SCS-MP2 total energy:               -115.41898428
 Iteration:   1     0.2088D+00
 Iteration:   2     0.3375D+00
 Iteration:   3     0.8047D-01
 Iteration:   4     0.3632D-01
 Iteration:   5     0.3960D+00
 Iteration:   6     0.1523D-01
 Iteration:   7     0.2074D-01
 Iteration:   8     0.8329D-02
 Iteration:   9     0.2974D-02
 Iteration:  10     0.9253D-02
 Iteration:  11     0.1225D-02
 Iteration:  12     0.1409D-02
 Iteration:  13     0.8252D-03
 Iteration:  14     0.5640D-03
 Iteration:  15     0.5517D-03
 Iteration:  16     0.1179D-03
 Iteration:  17     0.2188D-03
 Iteration:  18     0.4554D-04
 PAPT operator written to  7000.1
 PAPT orbitals and eigenvalues written to  7000.2

 MP3(D):                -0.37793218  -115.43939828    -0.01790451



 RESULTS
 =======

  Reference energy                   -115.061466093540
  MP3 singlet pair energy              -0.257320660187
  MP3 triplet pair energy              -0.120611523670
  MP3 correlation energy               -0.377932183857

 !MP3 total energy                   -115.439398277397

 Timing summary (sec):

 STEP                 CPU(USER)    SYS     CPU(TOT)    WALL
 Transformation          0.05      0.01      0.06      0.08
 CCSD iterations         1.23      0.03      1.26      0.44

 Program statistics:

 Available memory in ccsd:               805306163
 Min. memory needed in ccsd:                438437
 Max. memory used in ccsd:                  541092
 Max. memory used in cckext:                448927 ( 1 integral passes)



 **********************************************************************************************************************************
 DATASETS  * FILE   NREC   LENGTH (MB)   RECORD NAMES
              1      21       56.62       500      610      700      900      950      970     1000      129      960     1100   
                                          VAR    BASINP    GEOM    SYMINP    ZMAT    AOBASIS   BASIS     P2S    ABASIS      S 
                                         1400     1410     1200     1210     1080     1600     1650     1300     1700     1380   
                                           T        V       H0       H01     AOSYM     SMH    MOLCAS    ERIS     OPER     JKOP   
                                         7000   
                                        PAPT AO    

              2       6        1.10       700     1000      520     2100     2101     7000   
                                         GEOM     BASIS   MCVARS     RHF      RHF     PAPT   

 PROGRAMS   *        TOTAL      PAPT    HF-SCF    HF-SCF       INT
 CPU TIMES  *         1.18      0.41      0.05      0.23      0.38
 REAL TIME  *         1.81 SEC
 DISK USED  *       128.40 MB
 **********************************************************************************************************************************


 PROGRAM * MP3 (Closed-shell)     Authors: C. Hampel, H.-J. Werner, 1991, M. Deegan, P.J. Knowles, 1992


 Convergence thresholds:  THRVAR = 1.00D-08  THRDEN = 1.00D-06

 Number of core orbitals:           2 (   2 )
 Number of closed-shell orbitals:   7 (   7 )
 Number of external orbitals:      73 (  73 )

 Molecular orbitals read from record     7000.2  Type=PAPT/CANONICAL (state 1.1)

 Number of N-1 electron functions:               7
 Number of N-2 electron functions:              28
 Number of singly external CSFs:               511
 Number of doubly external CSFs:            130816
 Total number of CSFs:                      131328

 Length of J-op  integral file:               0.00 MB
 Length of K-op  integral file:               0.52 MB

 Integral transformation finished. Total CPU:   0.04 sec, npass=  1  Memory used:   0.49 MW
 Orbital energies read from record       7000.2  Type=PAPT/CANONICAL (state 1.1)

 Reference energy:                   -115.06146609

                        CORR.ENERGY   TOTAL ENERGY   ENERGY CHANGE
 MP2:                   -0.38235404  -115.44382013    -0.38235404

 SCS-MP2 correlation energy:           -0.38195987   (PS=  1.200000  PT=  0.333333)
 SCS-MP2 total energy:               -115.44342596

 MP3(D):                -0.38256077  -115.44402686    -0.00020673



 RESULTS
 =======

  Reference energy                   -115.061466093540
  MP3 singlet pair energy              -0.262036805775
  MP3 triplet pair energy              -0.120523959839
  MP3 correlation energy               -0.382560765614

 !MP3 total energy                   -115.444026859154

 Timing summary (sec):

 STEP                 CPU(USER)    SYS     CPU(TOT)    WALL
 Transformation          0.08      0.01      0.09      0.15
 CCSD iterations         1.41      0.01      1.42      0.25

 Program statistics:

 Available memory in ccsd:               805306163
 Min. memory needed in ccsd:                438437
 Max. memory used in ccsd:                  541092
 Max. memory used in cckext:                448927 ( 1 integral passes)



 **********************************************************************************************************************************
 DATASETS  * FILE   NREC   LENGTH (MB)   RECORD NAMES
              1      21       56.62       500      610      700      900      950      970     1000      129      960     1100   
                                          VAR    BASINP    GEOM    SYMINP    ZMAT    AOBASIS   BASIS     P2S    ABASIS      S 
                                         1400     1410     1200     1210     1080     1600     1650     1300     1700     1380   
                                           T        V       H0       H01     AOSYM     SMH    MOLCAS    ERIS     OPER     JKOP   
                                         7000   
                                        PAPT AO    

              2       6        1.10       700     1000      520     2100     2101     7000   
                                         GEOM     BASIS   MCVARS     RHF      RHF     PAPT   

 PROGRAMS   *        TOTAL       MP3      PAPT    HF-SCF    HF-SCF       INT
 CPU TIMES  *         1.41      0.23      0.41      0.05      0.23      0.38
 REAL TIME  *         2.31 SEC
 DISK USED  *       128.40 MB
 **********************************************************************************************************************************

 Dump information in style XML to xml output                                                                      

 Orbitals will not be exported.

 **********************************************************************************************************************************

 MP3/aug-cc-pVDZ energy=   -115.444026859154

             MP3            PAPT          HF-SCF          HF-SCF
   -115.44402686   -115.43939828   -115.06146609   -115.06146609
 **********************************************************************************************************************************
 Molpro calculation terminated
