
 Working directory              : /var/folders/2v/xbgp75_9785319ghcgb4zr4r0000gp/T//molpro.mcgCE2SomI/
 Global scratch directory       : /var/folders/2v/xbgp75_9785319ghcgb4zr4r0000gp/T//molpro.mcgCE2SomI/
 Wavefunction directory         : /Users/sacpjk/wfu/
 Main file repository           : /var/folders/2v/xbgp75_9785319ghcgb4zr4r0000gp/T//molpro.mcgCE2SomI/

 id        : peterk

 Nodes                        nprocs
 Cardiff-University-G34YLXT77Y    1
 GA implementation: MPI file
 GA implementation (serial work in mppx): MPI file

 Using customized tuning parameters: mindgm=1; mindgv=20; mindgc=4; mindgr=1; noblas=0; minvec=7
 default implementation of scratch files=df  


 Variables initialized (1032), CPU time= 0.00 sec
 
 symmetry,nosym
 
 
 geometry={
 9
  o         -2.235437230087    0.143124292817    0.279182781720
  h         -2.652114069471    0.941997007504    0.604952458971
  h         -1.306410910992    0.253881357629    0.520131274942
  o          0.606525854540    0.239596225744    0.665558031726
  h          0.974508678778   -0.332481177259    1.343086358835
  c          1.071530925880   -0.232033690184   -0.596601078094
  h          0.640713830642    0.419060000765   -1.349715110074
  h          2.157494612880   -0.181240829481   -0.670913006230
  h          0.743188307883   -1.251903187533   -0.795681711954
 }
 basis=aug-cc-pVDZ
 
 
 
 hf; hf; papt; mp4; counterpoise
 
 
 
 {put,xml;noorbitals,nobasis}
 Commands initialized (841), CPU time= 0.01 sec, 704 directives.
 Default parameters read. Elapsed time= 2.71 sec

 Checking input...
 Passed
1


                                         ***  PROGRAM SYSTEM MOLPRO  ***
                                       Copyright, TTI GmbH Stuttgart, 2015
                                    Version 2023.1 linked Tue Jun  6 09:54:11 2023


 **********************************************************************************************************************************
 LABEL *                                                                                                                                                                 
  64 bit serial version                                                                  DATE: 08-Jun-23          TIME: 16:49:40  
 **********************************************************************************************************************************

 SHA1:             8ebb0dd001088a5c915591db1a321413035db0b1
 **********************************************************************************************************************************

 Memory per process:       805 MW
 Total memory per node:   1074 MW
 Total GA space:           268 MW

 GA preallocation disabled
 GA check enabled

 Variable memory set to 805.3 MW

 ZSYMEL=NOSYM


 Geometry recognized as XYZ

 SETTING BASIS          =    AUG-CC-PVDZ


 Recomputing integrals since basis changed


 Using spherical harmonics

 Library entry O      S aug-cc-pVDZ          selected for orbital group  1
 Library entry O      P aug-cc-pVDZ          selected for orbital group  1
 Library entry O      D aug-cc-pVDZ          selected for orbital group  1
 Library entry H      S aug-cc-pVDZ          selected for orbital group  2
 Library entry H      P aug-cc-pVDZ          selected for orbital group  2
 Library entry C      S aug-cc-pVDZ          selected for orbital group  5
 Library entry C      P aug-cc-pVDZ          selected for orbital group  5
 Library entry C      D aug-cc-pVDZ          selected for orbital group  5


 PROGRAM * SEWARD (Integral evaluation for generally contracted gaussian basis sets)     Author: Roland Lindh, 1990

 Geometry written to block  1 of record 700


 Point group  C1  



 ATOMIC COORDINATES

 NR  ATOM    CHARGE       X              Y              Z

   1  O       8.00   -4.224364134    0.270465715    0.527578996
   2  H       1.00   -5.011769243    1.780116354    1.143194466
   3  H       1.00   -2.468758828    0.479766234    0.982905658
   4  O       8.00    1.146167753    0.452771247    1.257722400
   5  H       1.00    1.841554509   -0.628298367    2.538065380
   6  C       6.00    2.024899984   -0.438480126   -1.127412643
   7  H       1.00    1.210773664    0.791908631   -2.550591904
   8  H       1.00    4.077073934   -0.342495530   -1.267841835
   9  H       1.00    1.404422361   -2.365754159   -1.503620518

 Bond lengths in Bohr (Angstrom)

 1-2  1.810534248  1-3  1.825726997  4-5  1.814263596  4-6  2.693579128  6-7  2.049901795
     ( 0.958093464)     ( 0.966133120)     ( 0.960066950)     ( 1.425380690)     ( 1.084761314)

 6-8  2.059211335  6-9  2.059346994
     ( 1.089687711)     ( 1.089759499)

 Bond angles

  2-1-3  103.75741037   4-6-7  106.65459098   4-6-8  111.72059385   4-6-9  111.90879544

  5-4-6  107.61952491   7-6-8  108.69153235   7-6-9  108.37480423   8-6-9  109.35579189

 NUCLEAR CHARGE:                   28
 NUMBER OF PRIMITIVE AOS:         177
 NUMBER OF SYMMETRY AOS:          171
 NUMBER OF CONTRACTIONS:          123   (  123A   )
 NUMBER OF INNER CORE ORBITALS:     0   (    0A   )
 NUMBER OF OUTER CORE ORBITALS:     3   (    3A   )
 NUMBER OF VALENCE ORBITALS:       18   (   18A   )


 NUCLEAR REPULSION ENERGY   79.98338108


 Eigenvalues of metric

         1 0.533E-03 0.541E-03 0.709E-03 0.775E-03 0.137E-02 0.205E-02 0.232E-02 0.324E-02


 Contracted 2-electron integrals neglected if value below      1.0D-11
 AO integral compression algorithm  1   Integral accuracy      1.0D-11

     139.985 MB (compressed) written to integral file ( 51.3%)


 NUMBER OF SORTED TWO-ELECTRON INTEGRALS:   29081751.     BUFFER LENGTH:  32768
 NUMBER OF SEGMENTS:   2  SEGMENT LENGTH:   15997996      RECORD LENGTH: 524288

 Memory used in sort:      16.56 MW

 SORT1 READ    34029761. AND WROTE    28603919. INTEGRALS IN     83 RECORDS. CPU TIME:     0.22 SEC, REAL TIME:     0.46 SEC
 SORT2 READ    28603919. AND WROTE    29081751. INTEGRALS IN    534 RECORDS. CPU TIME:     0.23 SEC, REAL TIME:     0.30 SEC

 FILE SIZES:   FILE 1:   170.7 MBYTE,  FILE 4:   348.2 MBYTE,   TOTAL:    518.9 MBYTE

 OPERATOR DM      FOR CENTER  0  COORDINATES:    0.000000    0.000000    0.000000


 **********************************************************************************************************************************
 DATASETS  * FILE   NREC   LENGTH (MB)   RECORD NAMES
              1      19      145.15       500      610      700      900      950      970     1000      129      960     1100   
                                          VAR    BASINP    GEOM    SYMINP    ZMAT    AOBASIS   BASIS     P2S    ABASIS      S 
                                         1400     1410     1200     1210     1080     1600     1650     1300     1700   
                                           T        V       H0       H01     AOSYM     SMH    MOLCAS    ERIS     OPER   

 PROGRAMS   *        TOTAL       INT
 CPU TIMES  *         1.36      1.25
 REAL TIME  *         6.46 SEC
 DISK USED  *       495.31 MB
 **********************************************************************************************************************************


 Program * Restricted Hartree-Fock

 Orbital guess generated from atomic densities. Full valence occupancy:   21

 Initial occupancy:  14

 NELEC=   28   SYM=1   MS2= 0   THRE=1.0D-08   THRD=3.2D-06   THRG=3.2D-06  HFMA2=F  DIIS_START=2   DIIS_MAX=10   DIIS_INCORE=F

 Level shifts:    0.00 (CLOSED)    0.00 (OPEN)    0.30 (GAP_MIN)

 ITER           ETOT              DE          GRAD        DDIFF     DIIS  NEXP   TIME(IT)  TIME(TOT)  DIAG
   1     -191.04196446    -191.04196446     0.00D+00     0.82D-01     0     0       0.12      0.23    start
   2     -191.09367371      -0.05170925     0.68D-02     0.12D-01     1     0       0.12      0.35    diag
   3     -191.10817813      -0.01450442     0.37D-02     0.38D-02     2     0       0.14      0.49    diag
   4     -191.10885929      -0.00068116     0.58D-03     0.94D-03     3     0       0.12      0.61    diag
   5     -191.10889912      -0.00003983     0.12D-03     0.22D-03     4     0       0.12      0.73    diag
   6     -191.10890108      -0.00000197     0.22D-04     0.52D-04     5     0       0.12      0.85    diag
   7     -191.10890117      -0.00000009     0.54D-05     0.11D-04     6     0       0.12      0.97    diag
   8     -191.10890119      -0.00000001     0.23D-05     0.36D-05     7     0       0.12      1.09    fixocc
   9     -191.10890119      -0.00000000     0.64D-06     0.10D-05     8     0       0.12      1.21    diag
  10     -191.10890119      -0.00000000     0.16D-06     0.25D-06     0     0       0.12      1.33    diag/orth

 Final occupancy:  14

 !RHF STATE 1.1 Energy               -191.108901186881
  RHF One-electron energy            -420.670011429955
  RHF Two-electron energy             149.577729165182
  RHF Kinetic energy                  190.840647809913
  RHF Nuclear energy                   79.983381077893
  RHF Virial quotient                  -1.001405640675

 !RHF STATE 1.1 Dipole moment           1.00460901     0.00878906     0.21971969
 Dipole moment /Debye                   2.55346140     0.02233957     0.55847175

 Orbital energies:

           1.1          2.1          3.1          4.1          5.1          6.1          7.1          8.1          9.1         10.1
    -20.590761   -20.545221   -11.289573    -1.383981    -1.324874    -0.942009    -0.717484    -0.689083    -0.632600    -0.610899

          11.1         12.1         13.1         14.1         15.1         16.1
     -0.559644    -0.520788    -0.480062    -0.470315     0.031323     0.048266


 HOMO     14.1    -0.470315 =     -12.7979eV
 LUMO     15.1     0.031323 =       0.8523eV
 LUMO-HOMO         0.501638 =      13.6503eV

 Orbitals saved in record  2100.2


 **********************************************************************************************************************************
 DATASETS  * FILE   NREC   LENGTH (MB)   RECORD NAMES
              1      19      145.15       500      610      700      900      950      970     1000      129      960     1100   
                                          VAR    BASINP    GEOM    SYMINP    ZMAT    AOBASIS   BASIS     P2S    ABASIS      S 
                                         1400     1410     1200     1210     1080     1600     1650     1300     1700   
                                           T        V       H0       H01     AOSYM     SMH    MOLCAS    ERIS     OPER   

              2       4        0.75       700     1000      520     2100   
                                         GEOM     BASIS   MCVARS     RHF  

 PROGRAMS   *        TOTAL    HF-SCF       INT
 CPU TIMES  *         2.70      1.33      1.25
 REAL TIME  *        10.08 SEC
 DISK USED  *       495.31 MB
 **********************************************************************************************************************************


 Program * Restricted Hartree-Fock

 Molecular orbitals read from record     2100.2  Type=RHF/CANONICAL  

 Initial occupancy:  14

 NELEC=   28   SYM=1   MS2= 0   THRE=1.0D-08   THRD=3.2D-06   THRG=3.2D-06  HFMA2=F  DIIS_START=2   DIIS_MAX=10   DIIS_INCORE=F

 Level shifts:    0.00 (CLOSED)    0.00 (OPEN)    0.30 (GAP_MIN)

 ITER           ETOT              DE          GRAD        DDIFF     DIIS  NEXP   TIME(IT)  TIME(TOT)  DIAG
   1     -191.10890119    -191.10890119     0.00D+00     0.84D-01     0     0       0.12      0.12    start
   2     -191.10890119      -0.00000000     0.72D-07     0.12D-06     1     0       0.12      0.24    diag

 Final occupancy:  14

 !RHF STATE 1.1 Energy               -191.108901186892
  RHF One-electron energy            -420.669997395393
  RHF Two-electron energy             149.577715130608
  RHF Kinetic energy                  190.840639574260
  RHF Nuclear energy                   79.983381077893
  RHF Virial quotient                  -1.001405683890

 !RHF STATE 1.1 Dipole moment           1.00460753     0.00879182     0.21971961
 Dipole moment /Debye                   2.55345765     0.02234658     0.55847156

 Orbital energies:

           1.1          2.1          3.1          4.1          5.1          6.1          7.1          8.1          9.1         10.1
    -20.590755   -20.545224   -11.289569    -1.383978    -1.324875    -0.942008    -0.717482    -0.689083    -0.632599    -0.610897

          11.1         12.1         13.1         14.1         15.1         16.1
     -0.559645    -0.520787    -0.480063    -0.470314     0.031323     0.048266


 HOMO     14.1    -0.470314 =     -12.7979eV
 LUMO     15.1     0.031323 =       0.8523eV
 LUMO-HOMO         0.501637 =      13.6502eV

 Orbitals saved in record  2101.2


 **********************************************************************************************************************************
 DATASETS  * FILE   NREC   LENGTH (MB)   RECORD NAMES
              1      19      145.15       500      610      700      900      950      970     1000      129      960     1100   
                                          VAR    BASINP    GEOM    SYMINP    ZMAT    AOBASIS   BASIS     P2S    ABASIS      S 
                                         1400     1410     1200     1210     1080     1600     1650     1300     1700   
                                           T        V       H0       H01     AOSYM     SMH    MOLCAS    ERIS     OPER   

              2       5        1.26       700     1000      520     2100     2101   
                                         GEOM     BASIS   MCVARS     RHF      RHF  

 PROGRAMS   *        TOTAL    HF-SCF    HF-SCF       INT
 CPU TIMES  *         2.95      0.25      1.33      1.25
 REAL TIME  *        10.75 SEC
 DISK USED  *       495.31 MB
 **********************************************************************************************************************************


 PROGRAM * PAPT (Closed-shell)     Authors: C. Hampel, H.-J. Werner, 1991, P.J. Knowles, 2021


 Convergence thresholds:  THRVAR = 1.00D-08  THRDEN = 1.00D-06

 Number of core orbitals:           3 (   3 )
 Number of closed-shell orbitals:  11 (  11 )
 Number of external orbitals:     109 ( 109 )

 Molecular orbitals read from record     2101.2  Type=RHF/CANONICAL  

 Number of N-1 electron functions:              11
 Number of N-2 electron functions:              66
 Number of singly external CSFs:              1199
 Number of doubly external CSFs:            719400
 Total number of CSFs:                      720600

 Length of J-op  integral file:               0.00 MB
 Length of K-op  integral file:               1.10 MB

 Integral transformation finished. Total CPU:   0.26 sec, npass=  1  Memory used:   2.00 MW

 Reference energy:                   -191.10890119

                        CORR.ENERGY   TOTAL ENERGY   ENERGY CHANGE
 MP2:                   -0.58310727  -191.69200845    -0.58310727

 SCS-MP2 correlation energy:           -0.57523977   (PS=  1.200000  PT=  0.333333)
 SCS-MP2 total energy:               -191.68414096
 Iteration:   1     0.2198D+00
 Iteration:   2     0.3208D+00
 Iteration:   3     0.1091D+00
 Iteration:   4     0.5869D-01
 Iteration:   5     0.4890D+00
 Iteration:   6     0.6632D-01
 Iteration:   7     0.1225D+00
 Iteration:   8     0.1413D+00
 Iteration:   9     0.5939D-01
 Iteration:  10     0.1794D+00
 Iteration:  11     0.4425D-01
 Iteration:  12     0.5006D-01
 Iteration:  13     0.2960D-01
 Iteration:  14     0.1072D-01
 Iteration:  15     0.5982D-01
 Iteration:  16     0.4858D-02
 Iteration:  17     0.6994D-02
 Iteration:  18     0.2615D-02
 Iteration:  19     0.1137D-02
 Iteration:  20     0.6921D-02
 Iteration:  21     0.3775D-03
 Iteration:  22     0.5930D-03
 Iteration:  23     0.1489D-03
 Iteration:  24     0.1307D-03
 Iteration:  25     0.9100D-04
 PAPT operator written to  7000.1
 PAPT orbitals and eigenvalues written to  7000.2

 MP3(D):                -0.60531787  -191.71421906    -0.02221061



 RESULTS
 =======

  Reference energy                   -191.108901186893
  MP3 singlet pair energy              -0.405415347769
  MP3 triplet pair energy              -0.199902526162
  MP3 correlation energy               -0.605317873930

 !MP3 total energy                   -191.714219060823

 Timing summary (sec):

 STEP                 CPU(USER)    SYS     CPU(TOT)    WALL
 Transformation          0.27      0.03      0.30      0.52
 CCSD iterations         6.14      0.19      6.33      6.84

 Program statistics:

 Available memory in ccsd:               805305870
 Min. memory needed in ccsd:               1995239
 Max. memory used in ccsd:                 2614165
 Max. memory used in cckext:               2150516 ( 1 integral passes)



 **********************************************************************************************************************************
 DATASETS  * FILE   NREC   LENGTH (MB)   RECORD NAMES
              1      21      156.90       500      610      700      900      950      970     1000      129      960     1100   
                                          VAR    BASINP    GEOM    SYMINP    ZMAT    AOBASIS   BASIS     P2S    ABASIS      S 
                                         1400     1410     1200     1210     1080     1600     1650     1300     1700     1380   
                                           T        V       H0       H01     AOSYM     SMH    MOLCAS    ERIS     OPER     JKOP   
                                         7000   
                                        PAPT AO    

              2       6        1.71       700     1000      520     2100     2101     7000   
                                         GEOM     BASIS   MCVARS     RHF      RHF     PAPT   

 PROGRAMS   *        TOTAL      PAPT    HF-SCF    HF-SCF       INT
 CPU TIMES  *         6.31      3.36      0.25      1.33      1.25
 REAL TIME  *        18.31 SEC
 DISK USED  *       495.31 MB
 **********************************************************************************************************************************


 PROGRAM * MP4 (Closed-shell)     Authors: C. Hampel, H.-J. Werner, 1991, M. Deegan, P.J. Knowles, 1992


 Convergence thresholds:  THRVAR = 1.00D-08  THRDEN = 1.00D-06

 MP4(T)     terms to be evaluated (factor= 0.000)


 Number of core orbitals:           3 (   3 )
 Number of closed-shell orbitals:  11 (  11 )
 Number of external orbitals:     109 ( 109 )

 Molecular orbitals read from record     7000.2  Type=PAPT/CANONICAL (state 1.1)

 Number of N-1 electron functions:              11
 Number of N-2 electron functions:              66
 Number of singly external CSFs:              1199
 Number of doubly external CSFs:            719400
 Total number of CSFs:                      720600

 Length of J-op  integral file:               0.00 MB
 Length of K-op  integral file:               1.10 MB

 Memory could be reduced to 19.48 Mwords without degradation in triples

 Integral transformation finished. Total CPU:   0.65 sec, npass=  1  Memory used:  13.25 MW
 Orbital energies read from record       7000.2  Type=PAPT/CANONICAL (state 1.1)

 Reference energy:                   -191.10890119

                        CORR.ENERGY   TOTAL ENERGY   ENERGY CHANGE
 MP2:                   -0.61099716  -191.71989835    -0.61099716

 SCS-MP2 correlation energy:           -0.60565817   (PS=  1.200000  PT=  0.333333)
 SCS-MP2 total energy:               -191.71455936

 MP3(D):                -0.61130209  -191.72020328    -0.00030493
 MP4(DQ):               -0.60890155  -191.71780274     0.00240055
 MP4(SDQ):              -0.61326755  -191.72216874    -0.00436601

 Norm of t1 vector:      0.05922649      S-energy:    -0.00436601      T1 diagnostic:  0.00892873

 Largest off-diagonal element in interal  block of Fock matrix:  0.95D-01
 Largest off-diagonal element in external block of Fock matrix:  0.15D+00


 Total CPU time for triples:      9.19 sec


 RESULTS
 =======

  Reference energy                   -191.108901186892
  MP4(SDQ) singlet pair energy         -0.407725035809
  MP4(SDQ) triplet pair energy         -0.201176513347
  MP4(SDQ) correlation energy          -0.613267554606

  Triples contribution                 -0.018453348826
  Total correlation energy             -0.631720903432

  MP4(SDQ) total energy              -191.722168741499
 !MP4(SDTQ) total energy             -191.740622090325

 Timing summary (sec):

 STEP                 CPU(USER)    SYS     CPU(TOT)    WALL
 Transformation          0.79      0.09      0.88      1.11
 CCSD iterations         7.75      0.07      7.82      1.85
 Triples                 9.19      0.70      9.89     11.27

 Program statistics:

 Available memory in ccsd:               805305870
 Min. memory needed in ccsd:               1995239
 Max. memory used in ccsd:                 2614165
 Max. memory used in cckext:               2150516 ( 1 integral passes)



 **********************************************************************************************************************************
 DATASETS  * FILE   NREC   LENGTH (MB)   RECORD NAMES
              1      22      211.74       500      610      700      900      950      970     1000      129      960     1100   
                                          VAR    BASINP    GEOM    SYMINP    ZMAT    AOBASIS   BASIS     P2S    ABASIS      S 
                                         1400     1410     1200     1210     1080     1600     1650     1300     1700     1380   
                                           T        V       H0       H01     AOSYM     SMH    MOLCAS    ERIS     OPER     JKOP   
                                         7000     1380(1)
                                        PAPT AO   JKOP   

              2       6        1.71       700     1000      520     2100     2101     7000   
                                         GEOM     BASIS   MCVARS     RHF      RHF     PAPT   

 PROGRAMS   *        TOTAL       MP4      PAPT    HF-SCF    HF-SCF       INT
 CPU TIMES  *        17.64     11.32      3.36      0.25      1.33      1.25
 REAL TIME  *        32.78 SEC
 DISK USED  *       495.31 MB
 **********************************************************************************************************************************

 Counterpoise: absolute minimum monomer separation=    -1.000 Bragg radius scale factor=     1.400 Number of monomers= 2

 Counterpoise  MP4  energy

 Running default procedure: HF-SCF001  PAPT  MP4

 Assignment of unique atoms to monomers:
1-9     1     1     1     2     2     2     2     2     2

 *** Long output written to logfile /Users/sacpjk/current/PAPT/S66/7616fe93/02.molpro/run/1.molpro/1.log ***


 Description                       ENERGY          ENERGR          ENERGC
 Raw                        -191.74062209   -191.10890119   -191.72216874
 Dimer basis, monomer 1      -76.27494039    -76.04120972    -76.26891719
 Dimer basis, monomer 2     -115.45785221   -115.06177821   -115.44576200
 Monomer basis, monomer 1    -76.27424016    -76.04102945    -76.26829613
 Monomer basis, monomer 2   -115.45675164   -115.06144086   -115.44476422
 Counterpoise correction       0.00180081      0.00051762      0.00161885
 Counterpoise corrected     -191.73882128   -191.10838357   -191.72054989


 **********************************************************************************************************************************
 DATASETS  * FILE   NREC   LENGTH (MB)   RECORD NAMES
              1      18       29.28       500      610      700      900      950      970     1000      129      960     1100   
                                          VAR    BASINP    GEOM    SYMINP    ZMAT    AOBASIS   BASIS     P2S    ABASIS      S 
                                         1400     1410     1200     1210     1080     1600     1650     1700   
                                           T        V       H0       H01     AOSYM     SMH    MOLCAS    OPER   

              2      14        4.62       700     1000      520     2100     2101     2102     2103      701     1001     2104   
                                         GEOM     BASIS   MCVARS     RHF      RHF      RHF      RHF     GEOM     BASIS     RHF  
                                          702     1002     2105     7000   
                                         GEOM     BASIS     RHF     PAPT   

 PROGRAMS   *        TOTALCOUNTERPOI      PAPT    HF-SCF       INT       MP4      PAPT    HF-SCF       INT       MP4      PAPT
 CPU TIMES  *        28.77      0.78      0.38      0.23      0.33      0.06      0.06      0.03      0.07      3.84      1.19
 REAL TIME  *        59.92 SEC
 DISK USED  *       495.31 MB
 **********************************************************************************************************************************

 Dump information in style XML to xml output                                                                      

 Orbitals will not be exported.

 **********************************************************************************************************************************

 MP4/aug-cc-pVDZ energy=   -191.738821275775

             MP4            PAPT          HF-SCF             MP4            PAPT          HF-SCF             MP4            PAPT
   -115.45675164   -115.43939269   -115.06144086    -76.27424016    -76.26552205    -76.04102945   -115.45785221   -115.44040622
 **********************************************************************************************************************************
 Molpro calculation terminated
