
 Working directory              : /var/folders/2v/xbgp75_9785319ghcgb4zr4r0000gp/T//molpro.4iIxiQh795/
 Global scratch directory       : /var/folders/2v/xbgp75_9785319ghcgb4zr4r0000gp/T//molpro.4iIxiQh795/
 Wavefunction directory         : /Users/sacpjk/wfu/
 Main file repository           : /var/folders/2v/xbgp75_9785319ghcgb4zr4r0000gp/T//molpro.4iIxiQh795/

 id        : peterk

 Nodes                        nprocs
 Cardiff-University-G34YLXT77Y    1
 GA implementation: MPI file
 GA implementation (serial work in mppx): MPI file

 Using customized tuning parameters: mindgm=1; mindgv=20; mindgc=4; mindgr=1; noblas=0; minvec=7
 default implementation of scratch files=df  


 Variables initialized (1032), CPU time= 0.00 sec
 
 symmetry,nosym
 
 
 geometry={
            6
     F          0.00000000      0.00000000     -1.88993626
     C          0.00000000      0.00000000     -0.48156276
     H         -0.51236000      0.88743354     -0.12780248
     H         -0.51236000     -0.88743354     -0.12780248
     H          1.02471999      0.00000000     -0.12780248
     CL         0.00000000      0.00000000      2.75490646
 }
 basis=cc-pVTZ
 
 charge=-1
 
 hf; ccsd(t)
 
 
 
 {put,xml;noorbitals,nobasis}
 Commands initialized (841), CPU time= 0.01 sec, 704 directives.
 Default parameters read. Elapsed time= 0.56 sec

 Checking input...
 Passed
1


                                         ***  PROGRAM SYSTEM MOLPRO  ***
                                       Copyright, TTI GmbH Stuttgart, 2015
                                    Version 2023.1 linked Tue Jun  6 09:54:11 2023


 **********************************************************************************************************************************
 LABEL *                                                                                                                                                                 
  64 bit serial version                                                                  DATE: 09-Jun-23          TIME: 16:07:23  
 **********************************************************************************************************************************

 SHA1:             8ebb0dd001088a5c915591db1a321413035db0b1
 **********************************************************************************************************************************

 Memory per process:       805 MW
 Total memory per node:   1074 MW
 Total GA space:           268 MW

 GA preallocation disabled
 GA check enabled

 Variable memory set to 805.3 MW

 ZSYMEL=NOSYM


 Geometry recognized as XYZ

 SETTING BASIS          =    CC-PVTZ
 SETTING CHARGE         =        -1.00000000                                  


 Recomputing integrals since basis changed


 Using spherical harmonics

 Library entry F      S cc-pVTZ              selected for orbital group  1
 Library entry F      P cc-pVTZ              selected for orbital group  1
 Library entry F      D cc-pVTZ              selected for orbital group  1
 Library entry F      F cc-pVTZ              selected for orbital group  1
 Library entry C      S cc-pVTZ              selected for orbital group  2
 Library entry C      P cc-pVTZ              selected for orbital group  2
 Library entry C      D cc-pVTZ              selected for orbital group  2
 Library entry C      F cc-pVTZ              selected for orbital group  2
 Library entry H      S cc-pVTZ              selected for orbital group  3
 Library entry H      P cc-pVTZ              selected for orbital group  3
 Library entry H      D cc-pVTZ              selected for orbital group  3
 Library entry CL     S cc-pVTZ              selected for orbital group  4
 Library entry CL     P cc-pVTZ              selected for orbital group  4
 Library entry CL     D cc-pVTZ              selected for orbital group  4
 Library entry CL     F cc-pVTZ              selected for orbital group  4


 PROGRAM * SEWARD (Integral evaluation for generally contracted gaussian basis sets)     Author: Roland Lindh, 1990

 Geometry written to block  1 of record 700


 Point group  C1  



 ATOMIC COORDINATES

 NR  ATOM    CHARGE       X              Y              Z

   1  F       9.00    0.000000000    0.000000000   -3.571461924
   2  C       6.00    0.000000000    0.000000000   -0.910021728
   3  H       1.00   -0.968220077    1.677006344   -0.241511685
   4  H       1.00   -0.968220077   -1.677006344   -0.241511685
   5  H       1.00    1.936440136    0.000000000   -0.241511685
   6  CL     17.00    0.000000000    0.000000000    5.206018708

 Bond lengths in Bohr (Angstrom)

 1-2  2.661440196  2-3  2.048586360  2-4  2.048586360  2-5  2.048586360
     ( 1.408373500)     ( 1.084065216)     ( 1.084065216)     ( 1.084065216)

 Bond angles

  1-2-3  109.04601992   1-2-4  109.04601992   1-2-5  109.04601992   3-2-4  109.89305339

  3-2-5  109.89305420   4-2-5  109.89305420

 NUCLEAR CHARGE:                   35
 NUMBER OF PRIMITIVE AOS:         209
 NUMBER OF SYMMETRY AOS:          191
 NUMBER OF CONTRACTIONS:          136   (  136A   )
 NUMBER OF INNER CORE ORBITALS:     1   (    1A   )
 NUMBER OF OUTER CORE ORBITALS:     6   (    6A   )
 NUMBER OF VALENCE ORBITALS:       15   (   15A   )


 NUCLEAR REPULSION ENERGY   79.90971378


 Eigenvalues of metric

         1 0.124E-02 0.189E-02 0.189E-02 0.365E-02 0.502E-02 0.861E-02 0.105E-01 0.105E-01


 Contracted 2-electron integrals neglected if value below      1.0D-11
 AO integral compression algorithm  1   Integral accuracy      1.0D-11

     120.324 MB (compressed) written to integral file ( 30.2%)


 NUMBER OF SORTED TWO-ELECTRON INTEGRALS:   43398586.     BUFFER LENGTH:  32768
 NUMBER OF SEGMENTS:   3  SEGMENT LENGTH:   15998004      RECORD LENGTH: 524288

 Memory used in sort:      16.56 MW

 SORT1 READ    49901996. AND WROTE    27476076. INTEGRALS IN     80 RECORDS. CPU TIME:     0.30 SEC, REAL TIME:     0.40 SEC
 SORT2 READ    27476076. AND WROTE    43398586. INTEGRALS IN    459 RECORDS. CPU TIME:     0.34 SEC, REAL TIME:     0.42 SEC

 FILE SIZES:   FILE 1:   151.1 MBYTE,  FILE 4:   335.6 MBYTE,   TOTAL:    486.7 MBYTE

 OPERATOR DM      FOR CENTER  0  COORDINATES:    0.000000    0.000000    0.000000


 **********************************************************************************************************************************
 DATASETS  * FILE   NREC   LENGTH (MB)   RECORD NAMES
              1      19      127.04       500      610      700      900      950      970     1000      129      960     1100   
                                          VAR    BASINP    GEOM    SYMINP    ZMAT    AOBASIS   BASIS     P2S    ABASIS      S 
                                         1400     1410     1200     1210     1080     1600     1650     1300     1700   
                                           T        V       H0       H01     AOSYM     SMH    MOLCAS    ERIS     OPER   

 PROGRAMS   *        TOTAL       INT
 CPU TIMES  *         1.89      1.79
 REAL TIME  *         3.91 SEC
 DISK USED  *       464.60 MB
 **********************************************************************************************************************************


 Program * Restricted Hartree-Fock

 Orbital guess generated from atomic densities. Full valence occupancy:   22

 Initial occupancy:  18

 NELEC=   36   SYM=1   MS2= 0   THRE=1.0D-08   THRD=3.2D-06   THRG=3.2D-06  HFMA2=F  DIIS_START=2   DIIS_MAX=10   DIIS_INCORE=F

 Level shifts:    0.00 (CLOSED)    0.00 (OPEN)    0.30 (GAP_MIN)

 ITER           ETOT              DE          GRAD        DDIFF     DIIS  NEXP   TIME(IT)  TIME(TOT)  DIAG
   1     -598.61065527    -598.61065527     0.00D+00     0.86D-01     0     0       0.19      0.37    start
   2     -598.66400835      -0.05335307     0.51D-02     0.12D-01     1     0       0.19      0.56    diag
   3     -598.67247683      -0.00846848     0.25D-02     0.22D-02     2     0       0.20      0.76    diag
   4     -598.67283094      -0.00035411     0.41D-03     0.54D-03     3     0       0.20      0.96    diag
   5     -598.67288052      -0.00004958     0.16D-03     0.18D-03     4     0       0.20      1.16    diag
   6     -598.67288333      -0.00000281     0.28D-04     0.54D-04     5     0       0.19      1.35    diag
   7     -598.67288341      -0.00000008     0.46D-05     0.12D-04     6     0       0.19      1.54    diag
   8     -598.67288342      -0.00000000     0.96D-06     0.19D-05     7     0       0.19      1.73    fixocc
   9     -598.67288342      -0.00000000     0.34D-06     0.56D-06     0     0       0.20      1.93    diag

 Final occupancy:  18

 !RHF STATE 1.1 Energy               -598.672883415672
  RHF One-electron energy            -995.497065580540
  RHF Two-electron energy             316.914468389814
  RHF Kinetic energy                  598.684425517926
  RHF Nuclear energy                   79.909713775053
  RHF Virial quotient                  -0.999980720891

 !RHF STATE 1.1 Dipole moment           0.00000000    -0.00000000    -3.89776225
 Dipole moment /Debye                   0.00000000    -0.00000000    -9.90712345

 Orbital energies:

           1.1          2.1          3.1          4.1          5.1          6.1          7.1          8.1          9.1         10.1
   -104.495428   -26.126520   -11.142616   -10.222053    -7.688066    -7.688066    -7.688065    -1.433193    -0.796904    -0.734773

          11.1         12.1         13.1         14.1         15.1         16.1         17.1         18.1         19.1         20.1
     -0.541311    -0.541311    -0.517952    -0.377969    -0.377969    -0.154845    -0.153535    -0.153535     0.299385     0.373917


 HOMO     18.1    -0.153535 =      -4.1779eV
 LUMO     19.1     0.299385 =       8.1467eV
 LUMO-HOMO         0.452920 =      12.3246eV

 Orbitals saved in record  2100.2


 **********************************************************************************************************************************
 DATASETS  * FILE   NREC   LENGTH (MB)   RECORD NAMES
              1      19      127.04       500      610      700      900      950      970     1000      129      960     1100   
                                          VAR    BASINP    GEOM    SYMINP    ZMAT    AOBASIS   BASIS     P2S    ABASIS      S 
                                         1400     1410     1200     1210     1080     1600     1650     1300     1700   
                                           T        V       H0       H01     AOSYM     SMH    MOLCAS    ERIS     OPER   

              2       4        0.76       700     1000      520     2100   
                                         GEOM     BASIS   MCVARS     RHF  

 PROGRAMS   *        TOTAL    HF-SCF       INT
 CPU TIMES  *         3.82      1.93      1.79
 REAL TIME  *         6.52 SEC
 DISK USED  *       464.60 MB
 **********************************************************************************************************************************


 PROGRAM * CCSD (Closed-shell coupled cluster)     Authors: C. Hampel, H.-J. Werner, 1991, M. Deegan, P.J. Knowles, 1992


 Convergence thresholds:  THRVAR = 1.00D-08  THRDEN = 1.00D-06

 CCSD(T)     terms to be evaluated (factor= 1.000)


 Number of core orbitals:           7 (   7 )
 Number of closed-shell orbitals:  11 (  11 )
 Number of external orbitals:     118 ( 118 )

 Molecular orbitals read from record     2100.2  Type=RHF/CANONICAL  

 Number of N-1 electron functions:              11
 Number of N-2 electron functions:              66
 Number of singly external CSFs:              1298
 Number of doubly external CSFs:            843051
 Total number of CSFs:                      844350

 Length of J-op  integral file:               0.00 MB
 Length of K-op  integral file:               1.33 MB
 Length of 3-ext integral record:             0.00 MB

 Memory could be reduced to 24.50 Mwords without degradation in triples

 Integral transformation finished. Total CPU:   0.86 sec, npass=  1  Memory used:  17.64 MW

 Reference energy:                   -598.67288342

 MP2 singlet pair energy:              -0.40551462
 MP2 triplet pair energy:              -0.22883518
 MP2 correlation energy:               -0.63434980
 MP2 total energy:                   -599.30723322

 SCS-MP2 correlation energy:           -0.62900388   (PS=  1.200000  PT=  0.333333)
 SCS-MP2 total energy:               -599.30188729

 ITER.      SQ.NORM     CORR.ENERGY   TOTAL ENERGY   ENERGY CHANGE        DEN1      VAR(S)    VAR(P)  DIIS     TIME  TIME/IT
   1      1.18483661    -0.66494928  -599.33783269    -0.03059948    -0.01618591  0.18D-02  0.24D-02  1  1     6.18     1.51
   2      1.19541757    -0.66617046  -599.33905388    -0.00122118    -0.01319200  0.25D-04  0.28D-03  2  2     7.47     1.48
   3      1.19836033    -0.66624942  -599.33913284    -0.00007896    -0.00199228  0.19D-04  0.12D-04  3  3     8.75     1.47
   4      1.19912484    -0.66620320  -599.33908662     0.00004622    -0.00041006  0.89D-06  0.13D-05  4  4    10.11     1.49
   5      1.19931917    -0.66620696  -599.33909037    -0.00000375    -0.00006282  0.21D-06  0.90D-07  5  5    11.38     1.48
   6      1.19935967    -0.66620444  -599.33908785     0.00000252    -0.00000814  0.28D-07  0.11D-07  6  6    12.74     1.50
   7      1.19937013    -0.66620313  -599.33908655     0.00000131    -0.00000152  0.45D-08  0.16D-08  6  1    14.18     1.52
   8      1.19937312    -0.66620309  -599.33908650     0.00000004    -0.00000081  0.70D-09  0.25D-09  6  2    15.58     1.54
   9      1.19937409    -0.66620310  -599.33908651    -0.00000001     0.00000031  0.90D-10  0.32D-10  6  3    17.10     1.57

 Norm of t1 vector:      0.05294058      S-energy:    -0.00000003      T1 diagnostic:  0.00798109
                                                                       D1 diagnostic:  0.02419655
                                                                       D2 diagnostic:  0.13867200 (internal)


 Total CPU time for triples:     15.95 sec


 RESULTS
 =======

  Reference energy                   -598.672883415672
  CCSD singlet pair energy             -0.454517885445
  CCSD triplet pair energy             -0.211685182662
  CCSD correlation energy              -0.666203096730

  Triples (T) contribution             -0.020844063170
  Total correlation energy             -0.687047159901

  CCSD total energy                  -599.339086512403
  CCSD[T] energy                     -599.360617897409
  CCSD-T energy                      -599.359595951084
 !CCSD(T) total energy               -599.359930575573

 Timing summary (sec):

 STEP                 CPU(USER)    SYS     CPU(TOT)    WALL
 Transformation          0.91      0.09      1.00      1.22
 CCSD iterations        16.22      0.72     16.94     14.34
 Triples                15.95      0.97     16.92     18.46

 Program statistics:

 Available memory in ccsd:               805305866
 Min. memory needed in ccsd:               2341778
 Max. memory used in ccsd:                 3058604
 Max. memory used in cckext:               2625063 ( 9 integral passes)



 **********************************************************************************************************************************
 DATASETS  * FILE   NREC   LENGTH (MB)   RECORD NAMES
              1      20      210.86       500      610      700      900      950      970     1000      129      960     1100   
                                          VAR    BASINP    GEOM    SYMINP    ZMAT    AOBASIS   BASIS     P2S    ABASIS      S 
                                         1400     1410     1200     1210     1080     1600     1650     1300     1700     1380   
                                           T        V       H0       H01     AOSYM     SMH    MOLCAS    ERIS     OPER     JKOP   

              2       4        0.76       700     1000      520     2100   
                                         GEOM     BASIS   MCVARS     RHF  

 PROGRAMS   *        TOTAL   CCSD(T)    HF-SCF       INT
 CPU TIMES  *        32.99     29.17      1.93      1.79
 REAL TIME  *        40.65 SEC
 DISK USED  *       464.60 MB
 **********************************************************************************************************************************

 Dump information in style XML to xml output                                                                      

 Orbitals will not be exported.

 **********************************************************************************************************************************

 CCSD(T)/cc-pVTZ energy=   -599.359930575573

         CCSD(T)          HF-SCF
   -599.35993058   -598.67288342
 **********************************************************************************************************************************
 Molpro calculation terminated
