
 Working directory              : /tmp/peterk/molpro.1AGUplXbSh/
 Global scratch directory       : /tmp/peterk/molpro.1AGUplXbSh/
 Wavefunction directory         : /home/peterk/wfu/
 Main file repository           : /tmp/peterk/molpro.1AGUplXbSh/

 id        : peterk

 Nodes     nprocs
 marat        1
 GA implementation: MPI file
 GA implementation (serial work in mppx): MPI file

 Using customized tuning parameters: mindgm=1; mindgv=20; mindgc=4; mindgr=1; noblas=0; minvec=7
 default implementation of scratch files=df  


 Variables initialized (1032), CPU time= 0.01 sec
 
 symmetry,nosym
 
 
 geometry={
            3
     C          0.37482171      0.51783010      0.00000000
     N          0.37482171     -0.67052208      0.00000000
     H         -0.74964343      0.15269198      0.00000000
 }
 basis=cc-pVQZ
 
 
 
 hf; hf; papt; mp2
 
 
 
 {put,xml;noorbitals,nobasis}
 Commands initialized (841), CPU time= 0.01 sec, 708 directives.
 Default parameters read. Elapsed time= 0.06 sec

 Checking input...
 Passed
1


                                         ***  PROGRAM SYSTEM MOLPRO  ***
                                       Copyright, TTI GmbH Stuttgart, 2015
                                    Version 2023.1 linked Sat Jun 10 08:01:27 2023


 **********************************************************************************************************************************
 LABEL *                                                                                                                                                                 
  (16 PROC) 64 bit serial version                                                        DATE: 11-Jun-23          TIME: 08:51:53  
 **********************************************************************************************************************************

 SHA1:             8376d659ba1296ca7ee514c57770fe2c96af278c
 **********************************************************************************************************************************

 Memory per process:      1074 MW
 Total memory per node:   1074 MW

 GA preallocation disabled
 GA check disabled

 Variable memory set to 1073.7 MW

 ZSYMEL=NOSYM


 Geometry recognized as XYZ

 SETTING BASIS          =    CC-PVQZ


 Recomputing integrals since basis changed


 Using spherical harmonics

 Library entry C      S cc-pVQZ              selected for orbital group  1
 Library entry C      P cc-pVQZ              selected for orbital group  1
 Library entry C      D cc-pVQZ              selected for orbital group  1
 Library entry C      F cc-pVQZ              selected for orbital group  1
 Library entry C      G cc-pVQZ              selected for orbital group  1
 Library entry N      S cc-pVQZ              selected for orbital group  2
 Library entry N      P cc-pVQZ              selected for orbital group  2
 Library entry N      D cc-pVQZ              selected for orbital group  2
 Library entry N      F cc-pVQZ              selected for orbital group  2
 Library entry N      G cc-pVQZ              selected for orbital group  2
 Library entry H      S cc-pVQZ              selected for orbital group  3
 Library entry H      P cc-pVQZ              selected for orbital group  3
 Library entry H      D cc-pVQZ              selected for orbital group  3
 Library entry H      F cc-pVQZ              selected for orbital group  3


 PROGRAM * SEWARD (Integral evaluation for generally contracted gaussian basis sets)     Author: Roland Lindh, 1990

 Geometry written to block  1 of record 700


 Point group  C1  



 ATOMIC COORDINATES

 NR  ATOM    CHARGE       X              Y              Z

   1  C       6.00    0.708310377    0.978557068    0.000000000
   2  N       7.00    0.708310377   -1.267103092    0.000000000
   3  H       1.00   -1.416620774    0.288546024    0.000000000

 Bond lengths in Bohr (Angstrom)

 1-2  2.245660160  1-3  2.234154793  2-3  2.633510313
     ( 1.188352180)     ( 1.182263802)     ( 1.393593642)

 Bond angles

  1-2-3   53.79236971   1-3-2   54.19736348   2-1-3   72.01026681

 NUCLEAR CHARGE:                   14
 NUMBER OF PRIMITIVE AOS:         203
 NUMBER OF SYMMETRY AOS:          168
 NUMBER OF CONTRACTIONS:          140   (  140A   )
 NUMBER OF INNER CORE ORBITALS:     0   (    0A   )
 NUMBER OF OUTER CORE ORBITALS:     2   (    2A   )
 NUMBER OF VALENCE ORBITALS:        9   (    9A   )


 NUCLEAR REPULSION ENERGY   24.04636942

 EXTRA SYMMETRY OF AOS IN SYMMETRY 1:   1 1 1 1 1 1 1 2 1 1   2 1 1 2 1 1 2 1 1 2   1 2 1 1 2 1 2 1 1 2   1 2 1 1 2 1 2 1 2 1
                                        1 2 1 2 1 2 1 1 2 1   2 1 1 2 2 1 1 1 1 1   1 1 2 1 1 2 1 1 2 1   1 2 1 1 2 1 2 1 1 2
                                        1 2 1 1 2 1 2 1 1 2   1 2 1 2 1 1 2 1 2 1   2 1 1 2 1 2 1 1 2 2   1 1 1 1 1 1 2 1 1 2
                                        1 1 2 1 1 2 1 2 1 1   2 1 2 1 1 2 1 2 1 2

 Eigenvalues of metric

         1 0.208E-03 0.345E-03 0.524E-03 0.671E-03 0.181E-02 0.197E-02 0.295E-02 0.358E-02


 Contracted 2-electron integrals neglected if value below      1.0D-11
 AO integral compression algorithm  1   Integral accuracy      1.0D-11

     114.819 MB (compressed) written to integral file ( 24.3%)


 NUMBER OF SORTED TWO-ELECTRON INTEGRALS:   48713385.     BUFFER LENGTH:  32768
 NUMBER OF SEGMENTS:   4  SEGMENT LENGTH:   15999503      RECORD LENGTH: 524288

 Memory used in sort:      16.56 MW

 SORT1 READ    59152906. AND WROTE    19471159. INTEGRALS IN     57 RECORDS. CPU TIME:     0.27 SEC, REAL TIME:     0.40 SEC
 SORT2 READ    19471159. AND WROTE    48713385. INTEGRALS IN    438 RECORDS. CPU TIME:     0.46 SEC, REAL TIME:     0.69 SEC

 FILE SIZES:   FILE 1:   145.6 MBYTE,  FILE 4:   239.1 MBYTE,   TOTAL:    384.7 MBYTE

 OPERATOR DM      FOR CENTER  0  COORDINATES:    0.000000    0.000000    0.000000


 **********************************************************************************************************************************
 DATASETS  * FILE   NREC   LENGTH (MB)   RECORD NAMES
              1      19      117.91       500      610      700      900      950      970     1000      129      960     1100   
                                          VAR    BASINP    GEOM    SYMINP    ZMAT    AOBASIS   BASIS     P2S    ABASIS      S 
                                         1400     1410     1200     1210     1080     1600     1650     1300     1700   
                                           T        V       H0       H01     AOSYM     SMH    MOLCAS    ERIS     OPER   

 PROGRAMS   *        TOTAL       INT
 CPU TIMES  *         2.83      2.69
 REAL TIME  *         4.57 SEC
 DISK USED  *       367.29 MB
 **********************************************************************************************************************************


 Program * Restricted Hartree-Fock

 Orbital guess generated from atomic densities. Full valence occupancy:   11

 Initial occupancy:   7

 NELEC=   14   SYM=1   MS2= 0   THRE=1.0D-08   THRD=3.2D-06   THRG=3.2D-06  HFMA2=F  DIIS_START=2   DIIS_MAX=10   DIIS_INCORE=F

 Level shifts:    0.00 (CLOSED)    0.00 (OPEN)    0.30 (GAP_MIN)

 ITER           ETOT              DE          GRAD        DDIFF     DIIS  NEXP   TIME(IT)  TIME(TOT)  DIAG
   1      -92.81983521     -92.81983521     0.00D+00     0.50D-01     0     0       0.22      0.44    start
   2      -92.83557830      -0.01574308     0.34D-02     0.33D-02     1     0       0.22      0.66    diag
   3      -92.83763784      -0.00205954     0.11D-02     0.96D-03     2     0       0.22      0.88    diag
   4      -92.83836089      -0.00072305     0.52D-03     0.61D-03     3     0       0.22      1.10    diag
   5      -92.83862248      -0.00026159     0.31D-03     0.35D-03     4     0       0.20      1.30    diag
   6      -92.83874761      -0.00012513     0.16D-03     0.35D-03     5     0       0.22      1.52    diag
   7      -92.83875631      -0.00000870     0.42D-04     0.10D-03     6     0       0.22      1.74    diag
   8      -92.83875672      -0.00000041     0.11D-04     0.22D-04     7     0       0.20      1.94    fixocc
   9      -92.83875675      -0.00000002     0.30D-05     0.44D-05     8     0       0.22      2.16    diag
  10      -92.83875675      -0.00000000     0.82D-06     0.11D-05     9     0       0.22      2.38    diag/orth
  11      -92.83875675      -0.00000000     0.21D-06     0.22D-06     0     0       0.20      2.58    diag

 Final occupancy:   7

 !RHF STATE 1.1 Energy                -92.838756749098
  RHF One-electron energy            -172.520648618415
  RHF Two-electron energy              55.635522454088
  RHF Kinetic energy                   92.708091035315
  RHF Nuclear energy                   24.046369415229
  RHF Virial quotient                  -1.001409431608

 !RHF STATE 1.1 Dipole moment          -0.51501445     0.02159631    -0.00000000
 Dipole moment /Debye                  -1.30903616     0.05489234    -0.00000000

 Orbital energies:

           1.1          2.1          3.1          4.1          5.1          6.1          7.1          8.1          9.1
    -15.654333   -11.296517    -1.307573    -0.707303    -0.627214    -0.533832    -0.498033     0.093005     0.139309


 HOMO      7.1    -0.498033 =     -13.5522eV
 LUMO      8.1     0.093005 =       2.5308eV
 LUMO-HOMO         0.591038 =      16.0830eV

 Orbitals saved in record  2100.2


 **********************************************************************************************************************************
 DATASETS  * FILE   NREC   LENGTH (MB)   RECORD NAMES
              1      19      117.91       500      610      700      900      950      970     1000      129      960     1100   
                                          VAR    BASINP    GEOM    SYMINP    ZMAT    AOBASIS   BASIS     P2S    ABASIS      S 
                                         1400     1410     1200     1210     1080     1600     1650     1300     1700   
                                           T        V       H0       H01     AOSYM     SMH    MOLCAS    ERIS     OPER   

              2       4        0.73       700     1000      520     2100   
                                         GEOM     BASIS   MCVARS     RHF  

 PROGRAMS   *        TOTAL    HF-SCF       INT
 CPU TIMES  *         5.41      2.58      2.69
 REAL TIME  *         7.41 SEC
 DISK USED  *       367.29 MB
 **********************************************************************************************************************************


 Program * Restricted Hartree-Fock

 Molecular orbitals read from record     2100.2  Type=RHF/CANONICAL  

 Initial occupancy:   7

 NELEC=   14   SYM=1   MS2= 0   THRE=1.0D-08   THRD=3.2D-06   THRG=3.2D-06  HFMA2=F  DIIS_START=2   DIIS_MAX=10   DIIS_INCORE=F

 Level shifts:    0.00 (CLOSED)    0.00 (OPEN)    0.30 (GAP_MIN)

 ITER           ETOT              DE          GRAD        DDIFF     DIIS  NEXP   TIME(IT)  TIME(TOT)  DIAG
   1      -92.83875675     -92.83875675     0.00D+00     0.51D-01     0     0       0.22      0.22    start
   2      -92.83875675      -0.00000000     0.11D-06     0.12D-06     1     0       0.22      0.44    diag

 Final occupancy:   7

 !RHF STATE 1.1 Energy                -92.838756749130
  RHF One-electron energy            -172.520643826869
  RHF Two-electron energy              55.635517662510
  RHF Kinetic energy                   92.708086488915
  RHF Nuclear energy                   24.046369415229
  RHF Virial quotient                  -1.001409480717

 !RHF STATE 1.1 Dipole moment          -0.51501521     0.02158710    -0.00000000
 Dipole moment /Debye                  -1.30903810     0.05486894    -0.00000000

 Orbital energies:

           1.1          2.1          3.1          4.1          5.1          6.1          7.1          8.1          9.1
    -15.654330   -11.296519    -1.307572    -0.707302    -0.627214    -0.533831    -0.498033     0.093005     0.139309


 HOMO      7.1    -0.498033 =     -13.5522eV
 LUMO      8.1     0.093005 =       2.5308eV
 LUMO-HOMO         0.591038 =      16.0830eV

 Orbitals saved in record  2101.2


 **********************************************************************************************************************************
 DATASETS  * FILE   NREC   LENGTH (MB)   RECORD NAMES
              1      19      117.91       500      610      700      900      950      970     1000      129      960     1100   
                                          VAR    BASINP    GEOM    SYMINP    ZMAT    AOBASIS   BASIS     P2S    ABASIS      S 
                                         1400     1410     1200     1210     1080     1600     1650     1300     1700   
                                           T        V       H0       H01     AOSYM     SMH    MOLCAS    ERIS     OPER   

              2       5        1.36       700     1000      520     2100     2101   
                                         GEOM     BASIS   MCVARS     RHF      RHF  

 PROGRAMS   *        TOTAL    HF-SCF    HF-SCF       INT
 CPU TIMES  *         5.88      0.46      2.58      2.69
 REAL TIME  *         8.05 SEC
 DISK USED  *       367.29 MB
 **********************************************************************************************************************************


 PROGRAM * PAPT (Closed-shell)     Authors: C. Hampel, H.-J. Werner, 1991, P.J. Knowles, 2021


 Convergence thresholds:  THRVAR = 1.00D-08  THRDEN = 1.00D-06

 Number of core orbitals:           2 (   2 )
 Number of closed-shell orbitals:   5 (   5 )
 Number of external orbitals:     133 ( 133 )

 Molecular orbitals read from record     2101.2  Type=RHF/CANONICAL  

 Number of N-1 electron functions:               5
 Number of N-2 electron functions:              15
 Number of singly external CSFs:               665
 Number of doubly external CSFs:            221445
 Total number of CSFs:                      222111

 Length of J-op  integral file:               0.00 MB
 Length of K-op  integral file:               1.41 MB

 Integral transformation finished. Total CPU:   0.31 sec, npass=  1  Memory used:   0.91 MW

 Reference energy:                    -92.83875675

                        CORR.ENERGY   TOTAL ENERGY   ENERGY CHANGE
 MP2:                   -0.35983827   -93.19859502    -0.35983827

 SCS-MP2 correlation energy:           -0.35700899   (PS=  1.200000  PT=  0.333333)
 SCS-MP2 total energy:                -93.19576574
 Iteration:   1     0.2241D+00
 Iteration:   2     0.2637D+00
 Iteration:   3     0.6887D-01
 Iteration:   4     0.4772D-01
 Iteration:   5     0.9456D-01
 Iteration:   6     0.2060D-01
 Iteration:   7     0.6017D+00
 Iteration:   8     0.4150D-02
 Iteration:   9     0.3531D-02
 Iteration:  10     0.6217D-02
 Iteration:  11     0.1016D-02
 Iteration:  12     0.4092D-02
 Iteration:  13     0.3130D-03
 Iteration:  14     0.1559D-03
 Iteration:  15     0.4498D-03
 Iteration:  16     0.4311D-04
 PAPT operator written to  7000.1
 PAPT orbitals and eigenvalues written to  7000.2

 MP3(D):                -0.36152042   -93.20027717    -0.00168215



 RESULTS
 =======

  Reference energy                    -92.838756749130
  MP3 singlet pair energy              -0.245432353192
  MP3 triplet pair energy              -0.116088069186
  MP3 correlation energy               -0.361520422378

 !MP3 total energy                    -93.200277171509

 Timing summary (sec):

 STEP                 CPU(USER)    SYS     CPU(TOT)    WALL
 Transformation          0.32      0.02      0.34      0.35
 CCSD iterations         7.01      0.04      7.05      1.21

 Program statistics:

 Available memory in ccsd:              1073741717
 Min. memory needed in ccsd:                868917
 Max. memory used in ccsd:                 1036917
 Max. memory used in cckext:                738158 ( 1 integral passes)



 **********************************************************************************************************************************
 DATASETS  * FILE   NREC   LENGTH (MB)   RECORD NAMES
              1      21      121.66       500      610      700      900      950      970     1000      129      960     1100   
                                          VAR    BASINP    GEOM    SYMINP    ZMAT    AOBASIS   BASIS     P2S    ABASIS      S 
                                         1400     1410     1200     1210     1080     1600     1650     1300     1700     1380   
                                           T        V       H0       H01     AOSYM     SMH    MOLCAS    ERIS     OPER     JKOP   
                                         7000   
                                        PAPT AO    

              2       6        1.90       700     1000      520     2100     2101     7000   
                                         GEOM     BASIS   MCVARS     RHF      RHF     PAPT   

 PROGRAMS   *        TOTAL      PAPT    HF-SCF    HF-SCF       INT
 CPU TIMES  *         7.03      1.15      0.46      2.58      2.69
 REAL TIME  *         9.63 SEC
 DISK USED  *       367.29 MB
 **********************************************************************************************************************************


 PROGRAM * MP2 (Closed-shell)     Authors: C. Hampel, H.-J. Werner, 1991, M. Deegan, P.J. Knowles, 1992


 Convergence thresholds:  THRVAR = 1.00D-08  THRDEN = 1.00D-06

 Number of core orbitals:           2 (   2 )
 Number of closed-shell orbitals:   5 (   5 )
 Number of external orbitals:     133 ( 133 )

 Molecular orbitals read from record     7000.2  Type=PAPT/CANONICAL (state 1.1)

 Number of N-1 electron functions:               5
 Number of N-2 electron functions:              15
 Number of singly external CSFs:               665
 Number of doubly external CSFs:            221445
 Total number of CSFs:                      222111

 Length of J-op  integral file:               0.00 MB
 Length of K-op  integral file:               1.41 MB

 Integral transformation finished. Total CPU:   0.31 sec, npass=  1  Memory used:   0.91 MW
 Orbital energies read from record       7000.2  Type=PAPT/CANONICAL (state 1.1)

 Memory needed for MP2:                      0.10 MW

 SCS-MP2 correlation energy:           -0.365540924010   (PS=  1.200000  PT=  0.333333)
 SCS-MP2 total energy:                -93.204297673140


  Reference energy                    -92.838756749130
  MP2 singlet pair energy              -0.238192098916
  MP2 triplet pair energy              -0.128106008535
  MP2 correlation energy               -0.366298107451

 !MP2 total energy                    -93.205054856581


 **********************************************************************************************************************************
 DATASETS  * FILE   NREC   LENGTH (MB)   RECORD NAMES
              1      21      121.66       500      610      700      900      950      970     1000      129      960     1100   
                                          VAR    BASINP    GEOM    SYMINP    ZMAT    AOBASIS   BASIS     P2S    ABASIS      S 
                                         1400     1410     1200     1210     1080     1600     1650     1300     1700     1380   
                                           T        V       H0       H01     AOSYM     SMH    MOLCAS    ERIS     OPER     JKOP   
                                         7000   
                                        PAPT AO    

              2       6        1.90       700     1000      520     2100     2101     7000   
                                         GEOM     BASIS   MCVARS     RHF      RHF     PAPT   

 PROGRAMS   *        TOTAL       MP2      PAPT    HF-SCF    HF-SCF       INT
 CPU TIMES  *         7.62      0.57      1.15      0.46      2.58      2.69
 REAL TIME  *        10.32 SEC
 DISK USED  *       367.29 MB
 **********************************************************************************************************************************

 Dump information in style XML to xml output                                                                      

 Orbitals will not be exported.

 **********************************************************************************************************************************

 MP2/cc-pVQZ energy=    -93.205054856581

             MP2            PAPT          HF-SCF          HF-SCF
    -93.20505486    -93.20027717    -92.83875675    -92.83875675
 **********************************************************************************************************************************
 Molpro calculation terminated
