
 Working directory              : /var/folders/2v/xbgp75_9785319ghcgb4zr4r0000gp/T//molpro.RrCgjR3zAB/
 Global scratch directory       : /var/folders/2v/xbgp75_9785319ghcgb4zr4r0000gp/T//molpro.RrCgjR3zAB/
 Wavefunction directory         : /Users/sacpjk/wfu/
 Main file repository           : /var/folders/2v/xbgp75_9785319ghcgb4zr4r0000gp/T//molpro.RrCgjR3zAB/

 id        : peterk

 Nodes                        nprocs
 Cardiff-University-G34YLXT77Y    1
 GA implementation: MPI file
 GA implementation (serial work in mppx): MPI file

 Using customized tuning parameters: mindgm=1; mindgv=20; mindgc=4; mindgr=1; noblas=0; minvec=7
 default implementation of scratch files=df  


 Variables initialized (1032), CPU time= 0.01 sec
 
 core,small
 angstrom
 
 geometry={
 C;H,C,1.10678917;H,C,1.10678917,H,102.02249921
 }
 basis=cc-pCVDZ
 
 
 
 hf; ccsd(t)
 
 
 
 {put,xml;noorbitals,nobasis}
 Commands initialized (841), CPU time= 0.00 sec, 704 directives.
 Default parameters read. Elapsed time= 1.72 sec

 Checking input...
 Passed
1


                                         ***  PROGRAM SYSTEM MOLPRO  ***
                                       Copyright, TTI GmbH Stuttgart, 2015
                                    Version 2023.1 linked Tue Jun  6 09:54:11 2023


 **********************************************************************************************************************************
 LABEL *                                                                                                                                                                 
  64 bit serial version                                                                  DATE: 12-Jun-23          TIME: 09:41:09  
 **********************************************************************************************************************************

 SHA1:             8ebb0dd001088a5c915591db1a321413035db0b1
 **********************************************************************************************************************************

 Memory per process:       393 MW
 Total memory per node:    524 MW
 Total GA space:           131 MW

 GA preallocation disabled
 GA check enabled

 Variable memory set to 393.2 MW

 ZUNIT=ANG

 SETTING BASIS          =    CC-PCVDZ


 Recomputing integrals since basis changed


 Using spherical harmonics

 Library entry C      S cc-pCVDZ             selected for orbital group  1
 Library entry C      P cc-pCVDZ             selected for orbital group  1
 Library entry C      D cc-pCVDZ             selected for orbital group  1
 Library entry H      S cc-pVDZ              selected for orbital group  2
 Library entry H      P cc-pVDZ              selected for orbital group  2


 PROGRAM * SEWARD (Integral evaluation for generally contracted gaussian basis sets)     Author: Roland Lindh, 1990

 Geometry written to block  1 of record 700

 Orientation using atomic masses  
 Molecule type: Asymmetric top,     Order of principal axis = 2
 Symmetry elements: X,Y
 Rotational constants:     217.0003324    603.7701822    338.7501129 GHz  (calculated with average atomic masses)

 Point group  C2v 



 ATOMIC COORDINATES

 NR  ATOM    CHARGE       X              Y              Z

   1  C       6.00    0.000000000    0.000000000   -0.189118426
   2  H       1.00    0.000000000    1.625681259    1.126803885
   3  H       1.00    0.000000000   -1.625681259    1.126803885

 Bond lengths in Bohr (Angstrom)

 1-2  2.091528409  1-3  2.091528409
     ( 1.106789170)     ( 1.106789170)

 Bond angles

  2-1-3  102.02249921

 NUCLEAR CHARGE:                    8
 NUMBER OF PRIMITIVE AOS:          45
 NUMBER OF SYMMETRY AOS:           44
 NUMBER OF CONTRACTIONS:           28   (   13A1  +    5B1  +    8B2  +    2A2  )
 NUMBER OF INNER CORE ORBITALS:     0   (    0A1  +    0B1  +    0B2  +    0A2  )
 NUMBER OF OUTER CORE ORBITALS:     1   (    1A1  +    0B1  +    0B2  +    0A2  )
 NUMBER OF VALENCE ORBITALS:        6   (    3A1  +    1B1  +    2B2  +    0A2  )


 NUCLEAR REPULSION ENERGY    6.04499440

 Eigenvalues of metric

         1 0.154E-01 0.446E-01 0.687E-01 0.130E+00 0.139E+00 0.361E+00 0.968E+00 0.102E+01
         2 0.164E+00 0.485E+00 0.993E+00 0.122E+01 0.216E+01
         3 0.370E-01 0.656E-01 0.130E+00 0.717E+00 0.977E+00 0.111E+01 0.123E+01 0.274E+01
         4 0.508E+00 0.147E+01


 Contracted 2-electron integrals neglected if value below      1.0D-11
 AO integral compression algorithm  1   Integral accuracy      1.0D-11

     0.262 MB (compressed) written to integral file (100.0%)


 NUMBER OF SORTED TWO-ELECTRON INTEGRALS:      24919.     BUFFER LENGTH:  32768
 NUMBER OF SEGMENTS:   1  SEGMENT LENGTH:      24919      RECORD LENGTH: 524288

 Memory used in sort:       0.58 MW

 SORT1 READ       34271. AND WROTE       22311. INTEGRALS IN      1 RECORDS. CPU TIME:     0.00 SEC, REAL TIME:     0.00 SEC
 SORT2 READ       22311. AND WROTE       24919. INTEGRALS IN      1 RECORDS. CPU TIME:     0.00 SEC, REAL TIME:     0.00 SEC

 FILE SIZES:   FILE 1:    30.3 MBYTE,  FILE 4:     4.3 MBYTE,   TOTAL:     34.5 MBYTE

 OPERATOR DM      FOR CENTER  0  COORDINATES:    0.000000    0.000000    0.000000


 **********************************************************************************************************************************
 DATASETS  * FILE   NREC   LENGTH (MB)   RECORD NAMES
              1      19       28.74       500      610      700      900      950      970     1000      129      960     1100   
                                          VAR    BASINP    GEOM    SYMINP    ZMAT    AOBASIS   BASIS     P2S    ABASIS      S 
                                         1400     1410     1200     1210     1080     1600     1650     1300     1700   
                                           T        V       H0       H01     AOSYM     SMH    MOLCAS    ERIS     OPER   

 PROGRAMS   *        TOTAL       INT
 CPU TIMES  *         0.16      0.07
 REAL TIME  *         2.89 SEC
 DISK USED  *        33.25 MB
 **********************************************************************************************************************************


 Program * Restricted Hartree-Fock

 Orbital guess generated from atomic densities. Full valence occupancy:    4   1   2   0

 Initial occupancy:   3   0   1   0

 NELEC=    8   SYM=1   MS2= 0   THRE=1.0D-08   THRD=3.2D-06   THRG=3.2D-06  HFMA2=F  DIIS_START=2   DIIS_MAX=10   DIIS_INCORE=F

 Level shifts:    0.00 (CLOSED)    0.00 (OPEN)    0.30 (GAP_MIN)

 ITER           ETOT              DE          GRAD        DDIFF     DIIS  NEXP   TIME(IT)  TIME(TOT)  DIAG
   1      -38.87081126     -38.87081126     0.00D+00     0.29D+00     0     0       0.00      0.00    start
   2      -38.88101377      -0.01020251     0.15D-01     0.31D-01     1     0       0.00      0.00    diag
   3      -38.88135549      -0.00034171     0.25D-02     0.50D-02     2     0       0.00      0.00    diag
   4      -38.88139145      -0.00003596     0.73D-03     0.21D-02     3     0       0.00      0.00    diag
   5      -38.88139373      -0.00000228     0.16D-03     0.42D-03     4     0       0.00      0.00    diag
   6      -38.88139383      -0.00000010     0.32D-04     0.12D-03     5     0       0.00      0.00    diag
   7      -38.88139384      -0.00000001     0.57D-05     0.28D-04     6     0       0.00      0.00    diag
   8      -38.88139384      -0.00000000     0.13D-05     0.59D-05     7     0       0.00      0.00    fixocc
   9      -38.88139384      -0.00000000     0.16D-06     0.60D-06     8     0       0.01      0.01    diag
  10      -38.88139384      -0.00000000     0.29D-07     0.67D-07     0     0       0.00      0.01    diag/orth

 Final occupancy:   3   0   1   0

 !RHF STATE 1.1 Energy                -38.881393836156
  RHF One-electron energy             -63.587719389808
  RHF Two-electron energy              18.661331154852
  RHF Kinetic energy                   38.835092061299
  RHF Nuclear energy                    6.044994398800
  RHF Virial quotient                  -1.001192266386

 !RHF STATE 1.1 Dipole moment           0.00000000     0.00000000     0.77185751
 Dipole moment /Debye                   0.00000000     0.00000000     1.96186610

 Orbital energies:

           1.1          2.1          3.1          4.1          5.1
    -11.292492    -0.889736    -0.390430     0.195038     0.693199

           1.2          2.2
      0.062716     0.736667

           1.3          2.3          3.3
     -0.559871     0.260918     0.585983

           1.4          2.4
      1.214747     2.011408


 HOMO      3.1    -0.390430 =     -10.6241eV
 LUMO      1.2     0.062716 =       1.7066eV
 LUMO-HOMO         0.453146 =      12.3307eV

 Orbitals saved in record  2100.2


 **********************************************************************************************************************************
 DATASETS  * FILE   NREC   LENGTH (MB)   RECORD NAMES
              1      19       28.74       500      610      700      900      950      970     1000      129      960     1100   
                                          VAR    BASINP    GEOM    SYMINP    ZMAT    AOBASIS   BASIS     P2S    ABASIS      S 
                                         1400     1410     1200     1210     1080     1600     1650     1300     1700   
                                           T        V       H0       H01     AOSYM     SMH    MOLCAS    ERIS     OPER   

              2       4        0.39       700     1000      520     2100   
                                         GEOM     BASIS   MCVARS     RHF  

 PROGRAMS   *        TOTAL    HF-SCF       INT
 CPU TIMES  *         0.17      0.01      0.07
 REAL TIME  *         3.57 SEC
 DISK USED  *        33.25 MB
 **********************************************************************************************************************************


 PROGRAM * CCSD (Closed-shell coupled cluster)     Authors: C. Hampel, H.-J. Werner, 1991, M. Deegan, P.J. Knowles, 1992


 CORETYPE=SMALL

 Convergence thresholds:  THRVAR = 1.00D-08  THRDEN = 1.00D-06

 CCSD(T)     terms to be evaluated (factor= 1.000)


 Number of closed-shell orbitals:   4 (   3   0   1   0 )
 Number of external orbitals:      24 (  10   5   7   2 )

 Molecular orbitals read from record     2100.2  Type=RHF/CANONICAL  

 Number of N-1 electron functions:               4
 Number of N-2 electron functions:              10
 Number of singly external CSFs:                37
 Number of doubly external CSFs:              1418
 Total number of CSFs:                        1456

 Length of J-op  integral file:               0.00 MB
 Length of K-op  integral file:               0.08 MB
 Length of 3-ext integral record:             0.00 MB

 Memory could be reduced to 0.08 Mwords without degradation in triples

 Integral transformation finished. Total CPU:   0.01 sec, npass=  1  Memory used:   0.08 MW

 Reference energy:                    -38.88139384

 MP2 singlet pair energy:              -0.11840122
 MP2 triplet pair energy:              -0.02781175
 MP2 correlation energy:               -0.14621297
 MP2 total energy:                    -39.02760681

 SCS-MP2 correlation energy:           -0.15938656   (PS=  1.200000  PT=  0.333333)
 SCS-MP2 total energy:                -39.04078039

 ITER.      SQ.NORM     CORR.ENERGY   TOTAL ENERGY   ENERGY CHANGE        DEN1      VAR(S)    VAR(P)  DIIS     TIME  TIME/IT
   1      1.05807861    -0.17181294   -39.05320677    -0.02559996    -0.01917128  0.18D-03  0.19D-02  1  1     0.29     0.08
   2      1.06768853    -0.17462929   -39.05602312    -0.00281635    -0.00663144  0.29D-04  0.38D-03  2  2     0.29     0.06
   3      1.07511022    -0.17544602   -39.05683985    -0.00081673    -0.00271242  0.65D-05  0.10D-03  3  3     0.29     0.05
   4      1.08065399    -0.17580531   -39.05719914    -0.00035929    -0.00077450  0.38D-06  0.22D-04  4  4     0.29     0.04
   5      1.08376876    -0.17586916   -39.05726300    -0.00006386    -0.00030823  0.20D-06  0.37D-05  5  5     0.29     0.04
   6      1.08471190    -0.17587147   -39.05726531    -0.00000231    -0.00007006  0.16D-06  0.43D-06  6  6     0.29     0.04
   7      1.08486649    -0.17587558   -39.05726942    -0.00000411     0.00000475  0.35D-07  0.26D-07  6  1     0.30     0.04
   8      1.08489045    -0.17587584   -39.05726968    -0.00000026     0.00000039  0.69D-08  0.18D-08  6  3     0.30     0.05
   9      1.08488906    -0.17587566   -39.05726950     0.00000018     0.00000053  0.82D-09  0.23D-09  6  2     0.30     0.05

 Norm of t1 vector:      0.03118650      S-energy:     0.00000036      T1 diagnostic:  0.00779662
                                                                       D1 diagnostic:  0.01984804
                                                                       D2 diagnostic:  0.20740638 (internal)

 Doubles amplitudes (print threshold =  0.500E-01):

         I         J         SYM. A    SYM. B    A         B      T(IJ, AB)

         2         2         2         2         1         1     -0.05098107
         3         3         2         2         1         1     -0.13666282


 Total CPU time for triples:      0.00 sec


 RESULTS
 =======

  Reference energy                    -38.881393836156

  Correlated core orbitals:             1.1
  Orbital energies:                   -11.2925

  CCSD core-core energy                -0.031515216735
  CCSD core-valence energy             -0.005483453933
  CCSD valence correlation energy      -0.138876992095

  CCSD singlet pair energy             -0.148012932125
  CCSD triplet pair energy             -0.027863091409
  CCSD correlation energy              -0.175875662762

  Triples (T) contribution             -0.003147909425
  Total correlation energy             -0.179023572186

  CCSD total energy                   -39.057269498918
  CCSD[T] energy                      -39.060455334862
  CCSD-T energy                       -39.060397313632
 !CCSD(T) total energy                -39.060417408343

 Timing summary (sec):

 STEP                 CPU(USER)    SYS     CPU(TOT)    WALL
 Transformation          0.01      0.00      0.01      0.20
 CCSD iterations         0.29      0.01      0.30      0.85

 Program statistics:

 Available memory in ccsd:               393215933
 Min. memory needed in ccsd:                  8113
 Max. memory used in ccsd:                    8862
 Max. memory used in cckext:                 41025 ( 9 integral passes)



 **********************************************************************************************************************************
 DATASETS  * FILE   NREC   LENGTH (MB)   RECORD NAMES
              1      20       28.83       500      610      700      900      950      970     1000      129      960     1100   
                                          VAR    BASINP    GEOM    SYMINP    ZMAT    AOBASIS   BASIS     P2S    ABASIS      S 
                                         1400     1410     1200     1210     1080     1600     1650     1300     1700     1380   
                                           T        V       H0       H01     AOSYM     SMH    MOLCAS    ERIS     OPER     JKOP   

              2       4        0.39       700     1000      520     2100   
                                         GEOM     BASIS   MCVARS     RHF  

 PROGRAMS   *        TOTAL   CCSD(T)    HF-SCF       INT
 CPU TIMES  *         0.21      0.04      0.01      0.07
 REAL TIME  *         4.97 SEC
 DISK USED  *        33.25 MB
 **********************************************************************************************************************************

 Dump information in style XML to xml output                                                                      

 Orbitals will not be exported.

 **********************************************************************************************************************************

 CCSD(T)/cc-pCVDZ energy=    -39.060417408343

         CCSD(T)          HF-SCF
    -39.06041741    -38.88139384
 **********************************************************************************************************************************
 Molpro calculation terminated
