
 Working directory              : /var/folders/2v/xbgp75_9785319ghcgb4zr4r0000gp/T//molpro.yZt6xHA14g/
 Global scratch directory       : /var/folders/2v/xbgp75_9785319ghcgb4zr4r0000gp/T//molpro.yZt6xHA14g/
 Wavefunction directory         : /Users/sacpjk/wfu/
 Main file repository           : /var/folders/2v/xbgp75_9785319ghcgb4zr4r0000gp/T//molpro.yZt6xHA14g/

 id        : peterk

 Nodes                        nprocs
 Cardiff-University-G34YLXT77Y    1
 GA implementation: MPI file
 GA implementation (serial work in mppx): MPI file

 Using customized tuning parameters: mindgm=1; mindgv=20; mindgc=4; mindgr=1; noblas=0; minvec=7
 default implementation of scratch files=df  


 Variables initialized (1032), CPU time= 0.00 sec
 
 symmetry,nosym
 
 
 geometry={
            3
     C          0.00000000      0.00000000     -1.11118191
     N          0.00000000      0.00000000      0.05815587
     H          0.00000000      0.00000000      1.05302603
 }
 basis=cc-pVTZ
 
 
 
 hf
 
 
 
 {put,xml;noorbitals,nobasis}
 Commands initialized (841), CPU time= 0.01 sec, 704 directives.
 Default parameters read. Elapsed time= 0.07 sec

 Checking input...
 Passed
1


                                         ***  PROGRAM SYSTEM MOLPRO  ***
                                       Copyright, TTI GmbH Stuttgart, 2015
                                    Version 2023.1 linked Tue Jun  6 09:54:11 2023


 **********************************************************************************************************************************
 LABEL *                                                                                                                                                                 
  64 bit serial version                                                                  DATE: 09-Jun-23          TIME: 09:29:57  
 **********************************************************************************************************************************

 SHA1:             8ebb0dd001088a5c915591db1a321413035db0b1
 **********************************************************************************************************************************

 Memory per process:       805 MW
 Total memory per node:   1074 MW
 Total GA space:           268 MW

 GA preallocation disabled
 GA check enabled

 Variable memory set to 805.3 MW

 ZSYMEL=NOSYM


 Geometry recognized as XYZ

 SETTING BASIS          =    CC-PVTZ


 Recomputing integrals since basis changed


 Using spherical harmonics

 Library entry C      S cc-pVTZ              selected for orbital group  1
 Library entry C      P cc-pVTZ              selected for orbital group  1
 Library entry C      D cc-pVTZ              selected for orbital group  1
 Library entry C      F cc-pVTZ              selected for orbital group  1
 Library entry N      S cc-pVTZ              selected for orbital group  2
 Library entry N      P cc-pVTZ              selected for orbital group  2
 Library entry N      D cc-pVTZ              selected for orbital group  2
 Library entry N      F cc-pVTZ              selected for orbital group  2
 Library entry H      S cc-pVTZ              selected for orbital group  3
 Library entry H      P cc-pVTZ              selected for orbital group  3
 Library entry H      D cc-pVTZ              selected for orbital group  3


 PROGRAM * SEWARD (Integral evaluation for generally contracted gaussian basis sets)     Author: Roland Lindh, 1990

 Geometry written to block  1 of record 700


 Point group  C1  



 ATOMIC COORDINATES

 NR  ATOM    CHARGE       X              Y              Z

   1  C       6.00    0.000000000    0.000000000   -2.099829485
   2  N       7.00    0.000000000    0.000000000    0.109898667
   3  H       1.00    0.000000000    0.000000000    1.989930799

 Bond lengths in Bohr (Angstrom)

 1-2  2.209728151  2-3  1.880032132
     ( 1.169337780)     ( 0.994870160)

 Bond angles

  1-2-3  180.00000000

 NUCLEAR CHARGE:                   14
 NUMBER OF PRIMITIVE AOS:         111
 NUMBER OF SYMMETRY AOS:          100
 NUMBER OF CONTRACTIONS:           74   (   74A   )
 NUMBER OF INNER CORE ORBITALS:     0   (    0A   )
 NUMBER OF OUTER CORE ORBITALS:     2   (    2A   )
 NUMBER OF VALENCE ORBITALS:        9   (    9A   )


 NUCLEAR REPULSION ENERGY   24.19728216

 EXTRA SYMMETRY OF AOS IN SYMMETRY 1:   1 1 1 1 2 3 1 2 3 1   2 3 1 1 4 2 5 3 1 4   2 5 3 2 3 1 6 4 7 5   1 1 1 1 2 3 1 2 3 1
                                        2 3 1 1 4 2 5 3 1 4   2 5 3 2 3 1 6 4 7 5   1 1 1 2 3 1 2 3 1 1   4 2 5 3

 Eigenvalues of metric

         1 0.121E-02 0.202E-02 0.299E-02 0.647E-02 0.132E-01 0.196E-01 0.196E-01 0.218E-01


 Contracted 2-electron integrals neglected if value below      1.0D-11
 AO integral compression algorithm  1   Integral accuracy      1.0D-11

     6.291 MB (compressed) written to integral file ( 15.9%)


 NUMBER OF SORTED TWO-ELECTRON INTEGRALS:    3851700.     BUFFER LENGTH:  32768
 NUMBER OF SEGMENTS:   1  SEGMENT LENGTH:    3851700      RECORD LENGTH: 524288

 Memory used in sort:       4.41 MW

 SORT1 READ     4876733. AND WROTE      813095. INTEGRALS IN      3 RECORDS. CPU TIME:     0.02 SEC, REAL TIME:     0.02 SEC
 SORT2 READ      813095. AND WROTE     3851700. INTEGRALS IN     24 RECORDS. CPU TIME:     0.05 SEC, REAL TIME:     0.05 SEC

 FILE SIZES:   FILE 1:    36.5 MBYTE,  FILE 4:    12.6 MBYTE,   TOTAL:     49.2 MBYTE

 OPERATOR DM      FOR CENTER  0  COORDINATES:    0.000000    0.000000    0.000000


 **********************************************************************************************************************************
 DATASETS  * FILE   NREC   LENGTH (MB)   RECORD NAMES
              1      19       33.17       500      610      700      900      950      970     1000      129      960     1100   
                                          VAR    BASINP    GEOM    SYMINP    ZMAT    AOBASIS   BASIS     P2S    ABASIS      S 
                                         1400     1410     1200     1210     1080     1600     1650     1300     1700   
                                           T        V       H0       H01     AOSYM     SMH    MOLCAS    ERIS     OPER   

 PROGRAMS   *        TOTAL       INT
 CPU TIMES  *         0.34      0.26
 REAL TIME  *         0.69 SEC
 DISK USED  *        47.25 MB
 **********************************************************************************************************************************


 Program * Restricted Hartree-Fock

 Orbital guess generated from atomic densities. Full valence occupancy:   11

 Initial occupancy:   7

 NELEC=   14   SYM=1   MS2= 0   THRE=1.0D-08   THRD=3.2D-06   THRG=3.2D-06  HFMA2=F  DIIS_START=2   DIIS_MAX=10   DIIS_INCORE=F

 Level shifts:    0.00 (CLOSED)    0.00 (OPEN)    0.30 (GAP_MIN)

 ITER           ETOT              DE          GRAD        DDIFF     DIIS  NEXP   TIME(IT)  TIME(TOT)  DIAG
   1      -92.87403132     -92.87403132     0.00D+00     0.92D-01     0     0       0.02      0.03    start
   2      -92.88897523      -0.01494391     0.53D-02     0.76D-02     1     0       0.01      0.04    diag
   3      -92.89169843      -0.00272320     0.28D-02     0.33D-02     2     0       0.02      0.06    diag
   4      -92.89218186      -0.00048343     0.95D-03     0.10D-02     3     0       0.01      0.07    diag
   5      -92.89220951      -0.00002765     0.18D-03     0.33D-03     4     0       0.02      0.09    diag
   6      -92.89221162      -0.00000210     0.49D-04     0.11D-03     5     0       0.01      0.10    diag
   7      -92.89221173      -0.00000012     0.13D-04     0.25D-04     6     0       0.02      0.12    diag
   8      -92.89221174      -0.00000000     0.23D-05     0.34D-05     7     0       0.01      0.13    fixocc
   9      -92.89221174      -0.00000000     0.28D-06     0.56D-06     8     0       0.02      0.15    diag
  10      -92.89221174      -0.00000000     0.34D-07     0.56D-07     0     0       0.02      0.17    diag/orth

 Final occupancy:   7

 !RHF STATE 1.1 Energy                -92.892211736618
  RHF One-electron energy            -173.053938089841
  RHF Two-electron energy              55.964444192948
  RHF Kinetic energy                   92.730013594750
  RHF Nuclear energy                   24.197282160275
  RHF Virial quotient                  -1.001749143946

 !RHF STATE 1.1 Dipole moment          -0.00000000     0.00000000     1.13539281
 Dipole moment /Debye                  -0.00000000     0.00000000     2.88588066

 Orbital energies:

           1.1          2.1          3.1          4.1          5.1          6.1          7.1          8.1          9.1
    -15.602725   -11.294284    -1.263396    -0.874377    -0.519013    -0.519013    -0.489717     0.132510     0.174311


 HOMO      7.1    -0.489717 =     -13.3259eV
 LUMO      8.1     0.132510 =       3.6058eV
 LUMO-HOMO         0.622226 =      16.9316eV

 Orbitals saved in record  2100.2


 **********************************************************************************************************************************
 DATASETS  * FILE   NREC   LENGTH (MB)   RECORD NAMES
              1      19       33.17       500      610      700      900      950      970     1000      129      960     1100   
                                          VAR    BASINP    GEOM    SYMINP    ZMAT    AOBASIS   BASIS     P2S    ABASIS      S 
                                         1400     1410     1200     1210     1080     1600     1650     1300     1700   
                                           T        V       H0       H01     AOSYM     SMH    MOLCAS    ERIS     OPER   

              2       4        0.50       700     1000      520     2100   
                                         GEOM     BASIS   MCVARS     RHF  

 PROGRAMS   *        TOTAL    HF-SCF       INT
 CPU TIMES  *         0.51      0.17      0.26
 REAL TIME  *         1.02 SEC
 DISK USED  *        47.25 MB
 **********************************************************************************************************************************

 Dump information in style XML to xml output                                                                      

 Orbitals will not be exported.

 **********************************************************************************************************************************

 HF/cc-pVTZ energy=    -92.892211736618

          HF-SCF
    -92.89221174
 **********************************************************************************************************************************
 Molpro calculation terminated
