
 Working directory              : /var/folders/2v/xbgp75_9785319ghcgb4zr4r0000gp/T//molpro.UovFR0U6Jy/
 Global scratch directory       : /var/folders/2v/xbgp75_9785319ghcgb4zr4r0000gp/T//molpro.UovFR0U6Jy/
 Wavefunction directory         : /Users/sacpjk/wfu/
 Main file repository           : /var/folders/2v/xbgp75_9785319ghcgb4zr4r0000gp/T//molpro.UovFR0U6Jy/

 id        : peterk

 Nodes                        nprocs
 Cardiff-University-G34YLXT77Y    1
 GA implementation: MPI file
 GA implementation (serial work in mppx): MPI file

 Using customized tuning parameters: mindgm=1; mindgv=20; mindgc=4; mindgr=1; noblas=0; minvec=7
 default implementation of scratch files=df  


 Variables initialized (1037), CPU time= 0.00 sec
 
 symmetry,nosym
 
 
 geometry={
 4
  c          0.381976552448    0.470919966810    0.000000000000
  h          1.099924176686    1.256287758123    0.000000000000
  c         -0.393736609150   -0.461755962247    0.000000000000
  h         -1.088164119983   -1.265451762686    0.000000000000
 }
 basis=aug-cc-pVTZ
 
 
 
 hf; hf; papt; mp2; counterpoise
 
 
 
 {put,xml;noorbitals,nobasis}
 Commands initialized (841), CPU time= 0.01 sec, 716 directives.
 Default parameters read. Elapsed time= 0.13 sec

 Checking input...
 Passed
1


                                         ***  PROGRAM SYSTEM MOLPRO  ***
                                       Copyright, TTI GmbH Stuttgart, 2015
                                    Version 2023.1 linked Fri Jul  7 12:12:39 2023


 **********************************************************************************************************************************
 LABEL *                                                                                                                                                                 
  64 bit serial version                                                                  DATE: 10-Jul-23          TIME: 15:58:54  
 **********************************************************************************************************************************

 SHA1:             0fe2fddcc441eb00bb4c7ecb49b93e22d4ddc339
 **********************************************************************************************************************************

 Memory per process:      1573 MW
 Total memory per node:   2097 MW
 Total GA space:           524 MW

 GA preallocation disabled
 GA check enabled

 Variable memory set to 1572.9 MW

 ZSYMEL=NOSYM


 Geometry recognized as XYZ

 SETTING BASIS          =    AUG-CC-PVTZ


 Recomputing integrals since basis changed


 Using spherical harmonics

 Library entry C      S aug-cc-pVTZ          selected for orbital group  1
 Library entry C      P aug-cc-pVTZ          selected for orbital group  1
 Library entry C      D aug-cc-pVTZ          selected for orbital group  1
 Library entry C      F aug-cc-pVTZ          selected for orbital group  1
 Library entry H      S aug-cc-pVTZ          selected for orbital group  2
 Library entry H      P aug-cc-pVTZ          selected for orbital group  2
 Library entry H      D aug-cc-pVTZ          selected for orbital group  2


 PROGRAM * SEWARD (Integral evaluation for generally contracted gaussian basis sets)     Author: Roland Lindh, 1990

 Geometry written to block  1 of record 700


 Point group  C1  



 ATOMIC COORDINATES

 NR  ATOM    CHARGE       X              Y              Z

   1  C       6.00    0.721831070    0.889909764    0.000000000
   2  H       1.00    2.078555452    2.374039797    0.000000000
   3  C       6.00   -0.744054357   -0.872592305    0.000000000
   4  H       1.00   -2.056332165   -2.391357255    0.000000000

 Bond lengths in Bohr (Angstrom)

 1-2  2.010806555  1-3  2.292429634  3-4  2.007167163
     ( 1.064073004)     ( 1.213101520)     ( 1.062147121)

 Bond angles

  1-3-4  178.92211950   2-1-3  177.31839722

 NUCLEAR CHARGE:                   14
 NUMBER OF PRIMITIVE AOS:         188
 NUMBER OF SYMMETRY AOS:          166
 NUMBER OF CONTRACTIONS:          138   (  138A   )
 NUMBER OF INNER CORE ORBITALS:     0   (    0A   )
 NUMBER OF OUTER CORE ORBITALS:     2   (    2A   )
 NUMBER OF VALENCE ORBITALS:       10   (   10A   )


 NUCLEAR REPULSION ENERGY   24.62574650

 EXTRA SYMMETRY OF AOS IN SYMMETRY 1:   1 1 1 1 1 1 1 2 1 1   2 1 1 2 1 1 2 1 1 2   1 2 1 1 2 1 2 1 1 2   1 2 1 1 2 1 2 1 2 1
                                        1 2 1 2 1 2 1 1 1 1   1 1 2 1 1 2 1 1 2 1   1 2 1 2 1 1 2 1 2 1   1 1 1 1 1 1 2 1 1 2
                                        1 1 2 1 1 2 1 1 2 1   2 1 1 2 1 2 1 1 2 1   2 1 1 2 1 2 1 2 1 1   2 1 2 1 2 1 1 1 1 1
                                        1 2 1 1 2 1 1 2 1 1   2 1 2 1 1 2 1 2

 Eigenvalues of metric

         1 0.893E-05 0.141E-04 0.744E-04 0.122E-03 0.324E-03 0.369E-03 0.370E-03 0.612E-03


 Contracted 2-electron integrals neglected if value below      1.0D-12
 AO integral compression algorithm  1   Integral accuracy      1.0D-12

     164.364 MB (compressed) written to integral file ( 35.8%)


 NUMBER OF SORTED TWO-ELECTRON INTEGRALS:   45998436.     BUFFER LENGTH:  32768
 NUMBER OF SEGMENTS:   3  SEGMENT LENGTH:   15998004      RECORD LENGTH: 524288

 Memory used in sort:      16.56 MW

 SORT1 READ    57346098. AND WROTE    22755285. INTEGRALS IN     67 RECORDS. CPU TIME:     0.27 SEC, REAL TIME:     0.34 SEC
 SORT2 READ    22755285. AND WROTE    45998436. INTEGRALS IN    627 RECORDS. CPU TIME:     0.28 SEC, REAL TIME:     0.32 SEC

 FILE SIZES:   FILE 1:   195.1 MBYTE,  FILE 4:   281.1 MBYTE,   TOTAL:    476.2 MBYTE

 OPERATOR DM      FOR CENTER  0  COORDINATES:    0.000000    0.000000    0.000000


 **********************************************************************************************************************************
 DATASETS  * FILE   NREC   LENGTH (MB)   RECORD NAMES
              1      19      154.38       500      610      700      900      950      970     1000      129      960     1100   
                                          VAR    BASINP    GEOM    SYMINP    ZMAT    AOBASIS   BASIS     P2S    ABASIS      S 
                                         1400     1410     1200     1210     1080     1600     1650     1300     1700   
                                           T        V       H0       H01     AOSYM     SMH    MOLCAS    ERIS     OPER   

 PROGRAMS   *        TOTAL       INT
 CPU TIMES  *         1.61      1.52
 REAL TIME  *         2.32 SEC
 DISK USED  *       454.54 MB
 **********************************************************************************************************************************


 Program * Restricted Hartree-Fock

 Orbital guess generated from atomic densities. Full valence occupancy:   12

 Initial occupancy:   7

 NELEC=   14   SYM=1   MS2= 0   THRE=1.0D-08   THRD=3.2D-06   THRG=3.2D-06  HFMA2=F  DIIS_START=2   DIIS_MAX=10   DIIS_INCORE=F

 Level shifts:    0.00 (CLOSED)    0.00 (OPEN)    0.30 (GAP_MIN)

 ITER           ETOT              DE          GRAD        DDIFF     DIIS  NEXP   TIME(IT)  TIME(TOT)  DIAG
   1      -76.83396095     -76.83396095     0.00D+00     0.55D-01     0     0       0.20      0.38    start
   2      -76.84747503      -0.01351408     0.38D-02     0.78D-02     1     0       0.19      0.57    diag
   3      -76.84873086      -0.00125583     0.12D-02     0.12D-02     2     0       0.19      0.76    diag
   4      -76.84885922      -0.00012836     0.25D-03     0.55D-03     3     0       0.19      0.95    diag
   5      -76.84886495      -0.00000573     0.53D-04     0.11D-03     4     0       0.19      1.14    diag
   6      -76.84886516      -0.00000021     0.10D-04     0.22D-04     5     0       0.19      1.33    diag
   7      -76.84886519      -0.00000002     0.47D-05     0.45D-05     6     0       0.19      1.52    diag
   8      -76.84886519      -0.00000000     0.88D-06     0.16D-05     7     0       0.19      1.71    fixocc
   9      -76.84886519      -0.00000000     0.13D-06     0.18D-06     0     0       0.20      1.91    diag

 Final occupancy:   7

 !RHF STATE 1.1 Energy                -76.848865188574
  RHF One-electron energy            -151.375098298059
  RHF Two-electron energy              49.900486611205
  RHF Kinetic energy                   76.627634582144
  RHF Nuclear energy                   24.625746498280
  RHF Virial quotient                  -1.002887086462

 !RHF STATE 1.1 Dipole moment           0.01015961    -0.00852941     0.00000000
 Dipole moment /Debye                   0.02582316    -0.02167960     0.00000000

 Orbital energies:

           1.1          2.1          3.1          4.1          5.1          6.1          7.1          8.1          9.1
    -11.247376   -11.243793    -1.027910    -0.769156    -0.681067    -0.408884    -0.408876     0.030973     0.032642


 HOMO      7.1    -0.408876 =     -11.1261eV
 LUMO      8.1     0.030973 =       0.8428eV
 LUMO-HOMO         0.439849 =      11.9689eV

 Orbitals saved in record  2100.2


 **********************************************************************************************************************************
 DATASETS  * FILE   NREC   LENGTH (MB)   RECORD NAMES
              1      19      154.38       500      610      700      900      950      970     1000      129      960     1100   
                                          VAR    BASINP    GEOM    SYMINP    ZMAT    AOBASIS   BASIS     P2S    ABASIS      S 
                                         1400     1410     1200     1210     1080     1600     1650     1300     1700   
                                           T        V       H0       H01     AOSYM     SMH    MOLCAS    ERIS     OPER   

              2       4        0.74       700     1000      520     2100   
                                         GEOM     BASIS   MCVARS     RHF  

 PROGRAMS   *        TOTAL    HF-SCF       INT
 CPU TIMES  *         3.52      1.91      1.52
 REAL TIME  *         4.46 SEC
 DISK USED  *       454.54 MB
 **********************************************************************************************************************************


 Program * Restricted Hartree-Fock

 Molecular orbitals read from record     2100.2  Type=RHF/CANONICAL  

 Initial occupancy:   7

 NELEC=   14   SYM=1   MS2= 0   THRE=1.0D-08   THRD=3.2D-06   THRG=3.2D-06  HFMA2=F  DIIS_START=2   DIIS_MAX=10   DIIS_INCORE=F

 Level shifts:    0.00 (CLOSED)    0.00 (OPEN)    0.30 (GAP_MIN)

 ITER           ETOT              DE          GRAD        DDIFF     DIIS  NEXP   TIME(IT)  TIME(TOT)  DIAG
   1      -76.84886519     -76.84886519     0.00D+00     0.58D-01     0     0       0.20      0.20    start
   2      -76.84886519      -0.00000000     0.63D-07     0.76D-07     1     0       0.18      0.38    diag

 Final occupancy:   7

 !RHF STATE 1.1 Energy                -76.848865188588
  RHF One-electron energy            -151.375098141363
  RHF Two-electron energy              49.900486454494
  RHF Kinetic energy                   76.627634808641
  RHF Nuclear energy                   24.625746498280
  RHF Virial quotient                  -1.002887083498

 !RHF STATE 1.1 Dipole moment           0.01015877    -0.00853088    -0.00000000
 Dipole moment /Debye                   0.02582101    -0.02168334    -0.00000000

 Orbital energies:

           1.1          2.1          3.1          4.1          5.1          6.1          7.1          8.1          9.1
    -11.247376   -11.243793    -1.027910    -0.769156    -0.681067    -0.408884    -0.408876     0.030973     0.032642


 HOMO      7.1    -0.408876 =     -11.1261eV
 LUMO      8.1     0.030973 =       0.8428eV
 LUMO-HOMO         0.439849 =      11.9689eV

 Orbitals saved in record  2101.2


 **********************************************************************************************************************************
 DATASETS  * FILE   NREC   LENGTH (MB)   RECORD NAMES
              1      19      154.38       500      610      700      900      950      970     1000      129      960     1100   
                                          VAR    BASINP    GEOM    SYMINP    ZMAT    AOBASIS   BASIS     P2S    ABASIS      S 
                                         1400     1410     1200     1210     1080     1600     1650     1300     1700   
                                           T        V       H0       H01     AOSYM     SMH    MOLCAS    ERIS     OPER   

              2       5        1.35       700     1000      520     2100     2101   
                                         GEOM     BASIS   MCVARS     RHF      RHF  

 PROGRAMS   *        TOTAL    HF-SCF    HF-SCF       INT
 CPU TIMES  *         3.91      0.39      1.91      1.52
 REAL TIME  *         4.94 SEC
 DISK USED  *       454.54 MB
 **********************************************************************************************************************************


 PROGRAM * PAPT (Closed-shell)     Authors: C. Hampel, H.-J. Werner, 1991, P.J. Knowles, 2021


 Convergence thresholds:  THRVAR = 1.00D-08  THRDEN = 1.00D-06

 Number of core orbitals:           2 (   2 )
 Number of closed-shell orbitals:   5 (   5 )
 Number of external orbitals:     131 ( 131 )

 Molecular orbitals read from record     2101.2  Type=RHF/CANONICAL  

 Number of N-1 electron functions:               5
 Number of N-2 electron functions:              15
 Number of singly external CSFs:               655
 Number of doubly external CSFs:            214840
 Total number of CSFs:                      215496

 Length of J-op  integral file:               0.00 MB
 Length of K-op  integral file:               1.37 MB

 Integral transformation finished. Total CPU:   0.21 sec, npass=  1  Memory used:   0.88 MW

 Reference energy:                    -76.84886519

                        CORR.ENERGY   TOTAL ENERGY   ENERGY CHANGE
 MP2:                   -0.31513455   -77.16399974    -0.31513455

 SCS-MP2 correlation energy:           -0.31522738   (PS=  1.200000  PT=  0.333333)
 SCS-MP2 total energy:                -77.16409257
 Iteration:   1     0.2682D+00
 Iteration:   2     0.3708D+00
 Iteration:   3     0.9700D-01
 Iteration:   4     0.6468D-01
 Iteration:   5     0.4974D-01
 Iteration:   6     0.1444D-01
 Iteration:   7     0.2066D-01
 Iteration:   8     0.5100D-02
 Iteration:   9     0.1488D-02
 Iteration:  10     0.1383D-01
 Iteration:  11     0.2391D-03
 Iteration:  12     0.4891D-04
 PAPT operator written to  7000.1
 PAPT orbitals and eigenvalues written to  7000.2

 MP3(D):                -0.32391606   -77.17278125    -0.00878150



 RESULTS
 =======

  Reference energy                    -76.848865188588
  MP3 singlet pair energy              -0.224512589876
  MP3 triplet pair energy              -0.099403466630
  MP3 correlation energy               -0.323916056505

 !MP3 total energy                    -77.172781245093

 Timing summary (sec):

 STEP                 CPU(USER)    SYS     CPU(TOT)    WALL
 Transformation          0.22      0.01      0.23      0.29
 CCSD iterations         4.48      0.04      4.52      0.57

 Program statistics:

 Available memory in ccsd:              1572863893
 Min. memory needed in ccsd:                843555
 Max. memory used in ccsd:                 1006405
 Max. memory used in cckext:                717384 ( 1 integral passes)



 **********************************************************************************************************************************
 DATASETS  * FILE   NREC   LENGTH (MB)   RECORD NAMES
              1      21      158.02       500      610      700      900      950      970     1000      129      960     1100   
                                          VAR    BASINP    GEOM    SYMINP    ZMAT    AOBASIS   BASIS     P2S    ABASIS      S 
                                         1400     1410     1200     1210     1080     1600     1650     1300     1700     1380   
                                           T        V       H0       H01     AOSYM     SMH    MOLCAS    ERIS     OPER     JKOP   
                                         7000   
                                        PAPT AO    

              2       6        1.88       700     1000      520     2100     2101     7000   
                                         GEOM     BASIS   MCVARS     RHF      RHF     PAPT   

 PROGRAMS   *        TOTAL      PAPT    HF-SCF    HF-SCF       INT
 CPU TIMES  *         4.63      0.72      0.39      1.91      1.52
 REAL TIME  *         5.84 SEC
 DISK USED  *       454.54 MB
 **********************************************************************************************************************************


 PROGRAM * MP2 (Closed-shell)     Authors: C. Hampel, H.-J. Werner, 1991, M. Deegan, P.J. Knowles, 1992


 Convergence thresholds:  THRVAR = 1.00D-08  THRDEN = 1.00D-06

 Number of core orbitals:           2 (   2 )
 Number of closed-shell orbitals:   5 (   5 )
 Number of external orbitals:     131 ( 131 )

 Molecular orbitals read from record     7000.2  Type=PAPT/CANONICAL (state 1.1)

 Number of N-1 electron functions:               5
 Number of N-2 electron functions:              15
 Number of singly external CSFs:               655
 Number of doubly external CSFs:            214840
 Total number of CSFs:                      215496

 Length of J-op  integral file:               0.00 MB
 Length of K-op  integral file:               1.37 MB

 Integral transformation finished. Total CPU:   0.23 sec, npass=  1  Memory used:   0.88 MW
 Orbital energies read from record       7000.2  Type=PAPT/CANONICAL (state 1.1)

 Memory needed for MP2:                      0.09 MW

 SCS-MP2 correlation energy:           -0.329737363962   (PS=  1.200000  PT=  0.333333)
 SCS-MP2 total energy:                -77.178602552550


  Reference energy                    -76.848865188588
  MP2 singlet pair energy              -0.217663700551
  MP2 triplet pair energy              -0.110155055305
  MP2 correlation energy               -0.327818755856

 !MP2 total energy                    -77.176683944444


 **********************************************************************************************************************************
 DATASETS  * FILE   NREC   LENGTH (MB)   RECORD NAMES
              1      21      158.02       500      610      700      900      950      970     1000      129      960     1100   
                                          VAR    BASINP    GEOM    SYMINP    ZMAT    AOBASIS   BASIS     P2S    ABASIS      S 
                                         1400     1410     1200     1210     1080     1600     1650     1300     1700     1380   
                                           T        V       H0       H01     AOSYM     SMH    MOLCAS    ERIS     OPER     JKOP   
                                         7000   
                                        PAPT AO    

              2       6        1.88       700     1000      520     2100     2101     7000   
                                         GEOM     BASIS   MCVARS     RHF      RHF     PAPT   

 PROGRAMS   *        TOTAL       MP2      PAPT    HF-SCF    HF-SCF       INT
 CPU TIMES  *         5.10      0.47      0.72      0.39      1.91      1.52
 REAL TIME  *         6.53 SEC
 DISK USED  *       454.54 MB
 **********************************************************************************************************************************

 Counterpoise: absolute minimum monomer separation=    -1.000 Bragg radius scale factor=     1.400 Number of monomers= 1
 Counterpoise skipped because only a single monomer


 **********************************************************************************************************************************
 DATASETS  * FILE   NREC   LENGTH (MB)   RECORD NAMES
              1      21      158.02       500      610      700      900      950      970     1000      129      960     1100   
                                          VAR    BASINP    GEOM    SYMINP    ZMAT    AOBASIS   BASIS     P2S    ABASIS      S 
                                         1400     1410     1200     1210     1080     1600     1650     1300     1700     1380   
                                           T        V       H0       H01     AOSYM     SMH    MOLCAS    ERIS     OPER     JKOP   
                                         7000   
                                        PAPT AO    

              2       6        1.88       700     1000      520     2100     2101     7000   
                                         GEOM     BASIS   MCVARS     RHF      RHF     PAPT   

 PROGRAMS   *        TOTALCOUNTERPOI       MP2      PAPT    HF-SCF    HF-SCF       INT
 CPU TIMES  *         5.10      0.00      0.47      0.72      0.39      1.91      1.52
 REAL TIME  *         6.53 SEC
 DISK USED  *       454.54 MB
 **********************************************************************************************************************************

 Dump information in style XML to xml output                                                                      

 Orbitals will not be exported.

 **********************************************************************************************************************************

 MP2/aug-cc-pVTZ energy=    -77.176683944444

             MP2            PAPT          HF-SCF          HF-SCF
    -77.17668394    -77.17278125    -76.84886519    -76.84886519
 **********************************************************************************************************************************
 Molpro calculation terminated
