
 Working directory              : /var/folders/2v/xbgp75_9785319ghcgb4zr4r0000gp/T//molpro.LfJrG6Iaqq/
 Global scratch directory       : /var/folders/2v/xbgp75_9785319ghcgb4zr4r0000gp/T//molpro.LfJrG6Iaqq/
 Wavefunction directory         : /Users/sacpjk/wfu/
 Main file repository           : /var/folders/2v/xbgp75_9785319ghcgb4zr4r0000gp/T//molpro.LfJrG6Iaqq/

 id        : peterk

 Nodes                        nprocs
 Cardiff-University-G34YLXT77Y    1
 GA implementation: MPI file
 GA implementation (serial work in mppx): MPI file

 Using customized tuning parameters: mindgm=1; mindgv=20; mindgc=4; mindgr=1; noblas=0; minvec=7
 default implementation of scratch files=df  


 Variables initialized (1032), CPU time= 0.00 sec
 
 symmetry,nosym
 
 
 geometry={
 9
  o         -0.922075427238    0.661035175532   -0.004511951808
  h          0.042193368987    0.628562630671   -0.004158221689
  c         -1.383504346250   -0.674416801454    0.003760788250
  h         -2.469790848305   -0.643030365379    0.002898366921
  h         -1.061479151022   -1.233901361304   -0.877768215069
  h         -1.062541236219   -1.222596147687    0.892753686953
  o          1.993369735639    0.564530130397   -0.002063767774
  h          2.432573874862    0.952682329557   -0.761936449984
  h          2.431254029544    0.967134409455    0.751025764305
 }
 basis=aug-cc-pVTZ
 
 
 
 hf; hf; papt; mp4; counterpoise
 
 
 
 {put,xml;noorbitals,nobasis}
 Commands initialized (841), CPU time= 0.01 sec, 704 directives.
 Default parameters read. Elapsed time= 0.49 sec

 Checking input...
 Passed
1


                                         ***  PROGRAM SYSTEM MOLPRO  ***
                                       Copyright, TTI GmbH Stuttgart, 2015
                                    Version 2023.1 linked Tue Jun  6 09:54:11 2023


 **********************************************************************************************************************************
 LABEL *                                                                                                                                                                 
  64 bit serial version                                                                  DATE: 08-Jun-23          TIME: 17:00:55  
 **********************************************************************************************************************************

 SHA1:             8ebb0dd001088a5c915591db1a321413035db0b1
 **********************************************************************************************************************************

 Memory per process:       805 MW
 Total memory per node:   1074 MW
 Total GA space:           268 MW

 GA preallocation disabled
 GA check enabled

 Variable memory set to 805.3 MW

 ZSYMEL=NOSYM


 Geometry recognized as XYZ

 SETTING BASIS          =    AUG-CC-PVTZ


 Recomputing integrals since basis changed


 Using spherical harmonics

 Library entry O      S aug-cc-pVTZ          selected for orbital group  1
 Library entry O      P aug-cc-pVTZ          selected for orbital group  1
 Library entry O      D aug-cc-pVTZ          selected for orbital group  1
 Library entry O      F aug-cc-pVTZ          selected for orbital group  1
 Library entry H      S aug-cc-pVTZ          selected for orbital group  2
 Library entry H      P aug-cc-pVTZ          selected for orbital group  2
 Library entry H      D aug-cc-pVTZ          selected for orbital group  2
 Library entry C      S aug-cc-pVTZ          selected for orbital group  3
 Library entry C      P aug-cc-pVTZ          selected for orbital group  3
 Library entry C      D aug-cc-pVTZ          selected for orbital group  3
 Library entry C      F aug-cc-pVTZ          selected for orbital group  3


 PROGRAM * SEWARD (Integral evaluation for generally contracted gaussian basis sets)     Author: Roland Lindh, 1990

 Geometry written to block  1 of record 700


 Point group  C1  



 ATOMIC COORDINATES

 NR  ATOM    CHARGE       X              Y              Z

   1  O       8.00   -1.742470024    1.249175440   -0.008526353
   2  H       1.00    0.079733912    1.187811224   -0.007857900
   3  C       6.00   -2.614444307   -1.274463049    0.007106860
   4  H       1.00   -4.667228288   -1.215151280    0.005477120
   5  H       1.00   -2.005904882   -2.331735638   -1.658741527
   6  H       1.00   -2.007911933   -2.310371880    1.687059965
   7  O       8.00    3.766922865    1.066807336   -0.003899956
   8  H       1.00    4.596898401    1.800308687   -1.439851215
   9  H       1.00    4.594404255    1.827619160    1.419233007

 Bond lengths in Bohr (Angstrom)

 1-2  1.823237010  1-3  2.670081417  3-4  2.053641307  3-5  2.064750931  3-6  2.064759324
     ( 0.964815476)     ( 1.412946237)     ( 1.086740179)     ( 1.092619139)     ( 1.092623580)

 7-8  1.813515823  7-9  1.813523507
     ( 0.959671245)     ( 0.959675312)

 Bond angles

  1-3-4  107.40559297   1-3-5  112.51964703   1-3-6  112.52114044   2-1-3  107.13200477

  4-3-5  107.98411746   4-3-6  107.98497415   5-3-6  108.23763290   8-7-9  104.05491273

 NUCLEAR CHARGE:                   28
 NUMBER OF PRIMITIVE AOS:         363
 NUMBER OF SYMMETRY AOS:          324
 NUMBER OF CONTRACTIONS:          276   (  276A   )
 NUMBER OF INNER CORE ORBITALS:     0   (    0A   )
 NUMBER OF OUTER CORE ORBITALS:     3   (    3A   )
 NUMBER OF VALENCE ORBITALS:       18   (   18A   )


 NUCLEAR REPULSION ENERGY   78.74537443


 Eigenvalues of metric

         1 0.515E-04 0.522E-04 0.835E-04 0.923E-04 0.234E-03 0.299E-03 0.311E-03 0.324E-03


 Contracted 2-electron integrals neglected if value below      1.0D-11
 AO integral compression algorithm  1   Integral accuracy      1.0D-11

     2758.279 MB (compressed) written to integral file ( 42.1%)


 NUMBER OF SORTED TWO-ELECTRON INTEGRALS:  730632651.     BUFFER LENGTH:  32768
 NUMBER OF SEGMENTS:  46  SEGMENT LENGTH:   15999984      RECORD LENGTH: 262144

 Memory used in sort:      16.29 MW

 SORT1 READ   818610096. AND WROTE   652617786. INTEGRALS IN   3759 RECORDS. CPU TIME:     6.30 SEC, REAL TIME:     9.48 SEC
 SORT2 READ   652617786. AND WROTE   730632651. INTEGRALS IN  10522 RECORDS. CPU TIME:     4.43 SEC, REAL TIME:    12.08 SEC

 FILE SIZES:   FILE 1:  2791.2 MBYTE,  FILE 4:  7883.3 MBYTE,   TOTAL:  10674.5 MBYTE

 OPERATOR DM      FOR CENTER  0  COORDINATES:    0.000000    0.000000    0.000000


 **********************************************************************************************************************************
 DATASETS  * FILE   NREC   LENGTH (MB)   RECORD NAMES
              1      19     2394.36       500      610      700      900      950      970     1000      129      960     1100   
                                          VAR    BASINP    GEOM    SYMINP    ZMAT    AOBASIS   BASIS     P2S    ABASIS      S 
                                         1400     1410     1200     1210     1080     1600     1650     1300     1700   
                                           T        V       H0       H01     AOSYM     SMH    MOLCAS    ERIS     OPER   

 PROGRAMS   *        TOTAL       INT
 CPU TIMES  *        25.48     25.37
 REAL TIME  *        51.22 SEC
 DISK USED  *         9.94 GB
 **********************************************************************************************************************************


 Program * Restricted Hartree-Fock

 Orbital guess generated from atomic densities. Full valence occupancy:   21

 Initial occupancy:  14

 NELEC=   28   SYM=1   MS2= 0   THRE=1.0D-08   THRD=3.2D-06   THRG=3.2D-06  HFMA2=F  DIIS_START=2   DIIS_MAX=10   DIIS_INCORE=F

 Level shifts:    0.00 (CLOSED)    0.00 (OPEN)    0.30 (GAP_MIN)

 ITER           ETOT              DE          GRAD        DDIFF     DIIS  NEXP   TIME(IT)  TIME(TOT)  DIAG
   1     -191.09170581    -191.09170581     0.00D+00     0.38D-01     0     0       3.88      7.37    start
   2     -191.14264504      -0.05093922     0.45D-02     0.49D-02     1     0       3.83     11.20    diag
   3     -191.15720111      -0.01455607     0.25D-02     0.16D-02     2     0       3.87     15.07    diag
   4     -191.15790946      -0.00070835     0.39D-03     0.36D-03     3     0       3.92     18.99    diag
   5     -191.15795634      -0.00004688     0.83D-04     0.85D-04     4     0       3.85     22.84    diag
   6     -191.15795884      -0.00000250     0.20D-04     0.23D-04     5     0       3.85     26.69    diag
   7     -191.15795917      -0.00000033     0.95D-05     0.76D-05     6     0       3.71     30.40    diag
   8     -191.15795919      -0.00000003     0.18D-05     0.27D-05     7     0       3.74     34.14    fixocc
   9     -191.15795920      -0.00000000     0.43D-06     0.57D-06     8     0       3.87     38.01    diag
  10     -191.15795920      -0.00000000     0.14D-06     0.15D-06     0     0       3.77     41.78    diag/orth

 Final occupancy:  14

 !RHF STATE 1.1 Energy               -191.157959196004
  RHF One-electron energy            -418.524686232732
  RHF Two-electron energy             148.621352602577
  RHF Kinetic energy                  190.899271510581
  RHF Nuclear energy                   78.745374434150
  RHF Virial quotient                  -1.001355100433

 !RHF STATE 1.1 Dipole moment           1.24248402    -0.00337251    -0.00094642
 Dipole moment /Debye                   3.15807938    -0.00857207    -0.00240555

 Orbital energies:

           1.1          2.1          3.1          4.1          5.1          6.1          7.1          8.1          9.1         10.1
    -20.593318   -20.529528   -11.251290    -1.381049    -1.332712    -0.905021    -0.741990    -0.678216    -0.611342    -0.599249

          11.1         12.1         13.1         14.1         15.1         16.1
     -0.572886    -0.539037    -0.478847    -0.426479     0.022045     0.041616


 HOMO     14.1    -0.426479 =     -11.6051eV
 LUMO     15.1     0.022045 =       0.5999eV
 LUMO-HOMO         0.448524 =      12.2050eV

 Orbitals saved in record  2100.2


 **********************************************************************************************************************************
 DATASETS  * FILE   NREC   LENGTH (MB)   RECORD NAMES
              1      19     2394.36       500      610      700      900      950      970     1000      129      960     1100   
                                          VAR    BASINP    GEOM    SYMINP    ZMAT    AOBASIS   BASIS     P2S    ABASIS      S 
                                         1400     1410     1200     1210     1080     1600     1650     1300     1700   
                                           T        V       H0       H01     AOSYM     SMH    MOLCAS    ERIS     OPER   

              2       4        1.71       700     1000      520     2100   
                                         GEOM     BASIS   MCVARS     RHF  

 PROGRAMS   *        TOTAL    HF-SCF       INT
 CPU TIMES  *        67.26     41.78     25.37
 REAL TIME  *       108.70 SEC
 DISK USED  *         9.94 GB
 **********************************************************************************************************************************


 Program * Restricted Hartree-Fock

 Molecular orbitals read from record     2100.2  Type=RHF/CANONICAL  

 Initial occupancy:  14

 NELEC=   28   SYM=1   MS2= 0   THRE=1.0D-08   THRD=3.2D-06   THRG=3.2D-06  HFMA2=F  DIIS_START=2   DIIS_MAX=10   DIIS_INCORE=F

 Level shifts:    0.00 (CLOSED)    0.00 (OPEN)    0.30 (GAP_MIN)

 ITER           ETOT              DE          GRAD        DDIFF     DIIS  NEXP   TIME(IT)  TIME(TOT)  DIAG
   1     -191.15795920    -191.15795920     0.00D+00     0.39D-01     0     0       3.79      3.80    start
   2     -191.15795920      -0.00000000     0.59D-07     0.64D-07     1     0       3.68      7.48    diag

 Final occupancy:  14

 !RHF STATE 1.1 Energy               -191.157959196029
  RHF One-electron energy            -418.524716860387
  RHF Two-electron energy             148.621383230208
  RHF Kinetic energy                  190.899295639539
  RHF Nuclear energy                   78.745374434150
  RHF Virial quotient                  -1.001354973865

 !RHF STATE 1.1 Dipole moment           1.24248228    -0.00337505    -0.00094640
 Dipole moment /Debye                   3.15807495    -0.00857851    -0.00240551

 Orbital energies:

           1.1          2.1          3.1          4.1          5.1          6.1          7.1          8.1          9.1         10.1
    -20.593317   -20.529534   -11.251297    -1.381049    -1.332715    -0.905023    -0.741989    -0.678217    -0.611342    -0.599252

          11.1         12.1         13.1         14.1         15.1         16.1
     -0.572888    -0.539037    -0.478849    -0.426481     0.022045     0.041616


 HOMO     14.1    -0.426481 =     -11.6051eV
 LUMO     15.1     0.022045 =       0.5999eV
 LUMO-HOMO         0.448526 =      12.2050eV

 Orbitals saved in record  2101.2


 **********************************************************************************************************************************
 DATASETS  * FILE   NREC   LENGTH (MB)   RECORD NAMES
              1      19     2394.36       500      610      700      900      950      970     1000      129      960     1100   
                                          VAR    BASINP    GEOM    SYMINP    ZMAT    AOBASIS   BASIS     P2S    ABASIS      S 
                                         1400     1410     1200     1210     1080     1600     1650     1300     1700   
                                           T        V       H0       H01     AOSYM     SMH    MOLCAS    ERIS     OPER   

              2       5        3.86       700     1000      520     2100     2101   
                                         GEOM     BASIS   MCVARS     RHF      RHF  

 PROGRAMS   *        TOTAL    HF-SCF    HF-SCF       INT
 CPU TIMES  *        74.75      7.49     41.78     25.37
 REAL TIME  *       119.56 SEC
 DISK USED  *         9.94 GB
 **********************************************************************************************************************************


 PROGRAM * PAPT (Closed-shell)     Authors: C. Hampel, H.-J. Werner, 1991, P.J. Knowles, 2021


 Convergence thresholds:  THRVAR = 1.00D-08  THRDEN = 1.00D-06

 Number of core orbitals:           3 (   3 )
 Number of closed-shell orbitals:  11 (  11 )
 Number of external orbitals:     262 ( 262 )

 Molecular orbitals read from record     2101.2  Type=RHF/CANONICAL  

 Number of N-1 electron functions:              11
 Number of N-2 electron functions:              66
 Number of singly external CSFs:              2882
 Number of doubly external CSFs:           4154403
 Total number of CSFs:                     4157286

 Length of J-op  integral file:               0.00 MB
 Length of K-op  integral file:               5.29 MB

 Integral transformation finished. Total CPU:   6.99 sec, npass=  1  Memory used:  10.04 MW

 Reference energy:                   -191.15795920

                        CORR.ENERGY   TOTAL ENERGY   ENERGY CHANGE
 MP2:                   -0.70831188  -191.86627107    -0.70831188

 SCS-MP2 correlation energy:           -0.70542642   (PS=  1.200000  PT=  0.333333)
 SCS-MP2 total energy:               -191.86338561
 Iteration:   1     0.2107D+00
 Iteration:   2     0.2305D+00
 Iteration:   3     0.7493D-01
 Iteration:   4     0.6074D-01
 Iteration:   5     0.1075D+02
 Iteration:   6     0.7041D-01
 Iteration:   7     0.1341D+00
 Iteration:   8     0.1568D+00
 Iteration:   9     0.7124D-01
 Iteration:  10     0.1692D+01
 Iteration:  11     0.3221D-01
 Iteration:  12     0.5859D-01
 Iteration:  13     0.1914D-01
 Iteration:  14     0.1072D-01
 Iteration:  15     0.1017D+00
 Iteration:  16     0.4598D-02
 Iteration:  17     0.7173D-02
 Iteration:  18     0.2099D-02
 Iteration:  19     0.9759D-03
 Iteration:  20     0.1159D+00
 Iteration:  21     0.3758D-03
 Iteration:  22     0.5034D-03
 Iteration:  23     0.2647D-03
 Iteration:  24     0.1108D-03
 Iteration:  25     0.2475D-02
 Iteration:  26     0.2780D-04
 PAPT operator written to  7000.1
 PAPT orbitals and eigenvalues written to  7000.2

 MP3(D):                -0.72506782  -191.88302702    -0.01675595



 RESULTS
 =======

  Reference energy                   -191.157959196028
  MP3 singlet pair energy              -0.493540370887
  MP3 triplet pair energy              -0.231527452783
  MP3 correlation energy               -0.725067823670

 !MP3 total energy                   -191.883027019697

 Timing summary (sec):

 STEP                 CPU(USER)    SYS     CPU(TOT)    WALL
 Transformation          7.24      0.65      7.89      9.23
 CCSD iterations       105.75      1.20    106.95     41.73

 Program statistics:

 Available memory in ccsd:               805305870
 Min. memory needed in ccsd:              10991486
 Max. memory used in ccsd:                14686936
 Max. memory used in cckext:              10696943 ( 1 integral passes)



 **********************************************************************************************************************************
 DATASETS  * FILE   NREC   LENGTH (MB)   RECORD NAMES
              1      21     2453.42       500      610      700      900      950      970     1000      129      960     1100   
                                          VAR    BASINP    GEOM    SYMINP    ZMAT    AOBASIS   BASIS     P2S    ABASIS      S 
                                         1400     1410     1200     1210     1080     1600     1650     1300     1700     1380   
                                           T        V       H0       H01     AOSYM     SMH    MOLCAS    ERIS     OPER     JKOP   
                                         7000   
                                        PAPT AO    

              2       6        5.70       700     1000      520     2100     2101     7000   
                                         GEOM     BASIS   MCVARS     RHF      RHF     PAPT   

 PROGRAMS   *        TOTAL      PAPT    HF-SCF    HF-SCF       INT
 CPU TIMES  *       112.87     38.11      7.49     41.78     25.37
 REAL TIME  *       171.91 SEC
 DISK USED  *         9.94 GB
 **********************************************************************************************************************************


 PROGRAM * MP4 (Closed-shell)     Authors: C. Hampel, H.-J. Werner, 1991, M. Deegan, P.J. Knowles, 1992


 Convergence thresholds:  THRVAR = 1.00D-08  THRDEN = 1.00D-06

 MP4(T)     terms to be evaluated (factor= 0.000)


 Number of core orbitals:           3 (   3 )
 Number of closed-shell orbitals:  11 (  11 )
 Number of external orbitals:     262 ( 262 )

 Molecular orbitals read from record     7000.2  Type=PAPT/CANONICAL (state 1.1)

 Number of N-1 electron functions:              11
 Number of N-2 electron functions:              66
 Number of singly external CSFs:              2882
 Number of doubly external CSFs:           4154403
 Total number of CSFs:                     4157286

 Length of J-op  integral file:               0.00 MB
 Length of K-op  integral file:               5.29 MB

 Memory could be reduced to 253.87 Mwords without degradation in triples

 Integral transformation finished. Total CPU:  18.81 sec, npass=  1  Memory used: 136.64 MW
 Orbital energies read from record       7000.2  Type=PAPT/CANONICAL (state 1.1)

 Reference energy:                   -191.15795920

                        CORR.ENERGY   TOTAL ENERGY   ENERGY CHANGE
 MP2:                   -0.73143134  -191.88939054    -0.73143134

 SCS-MP2 correlation energy:           -0.73134199   (PS=  1.200000  PT=  0.333333)
 SCS-MP2 total energy:               -191.88930119

 MP3(D):                -0.73172077  -191.88967997    -0.00028943
 MP4(DQ):               -0.72545478  -191.88341397     0.00626599
 MP4(SDQ):              -0.73000725  -191.88796644    -0.00455247

 Norm of t1 vector:      0.05257587      S-energy:    -0.00455247      T1 diagnostic:  0.00792611

 Largest off-diagonal element in interal  block of Fock matrix:  0.11D+00
 Largest off-diagonal element in external block of Fock matrix:  0.45D+00


 Total CPU time for triples:    350.23 sec


 RESULTS
 =======

  Reference energy                   -191.157959196028
  MP4(SDQ) singlet pair energy         -0.493778889362
  MP4(SDQ) triplet pair energy         -0.231675887280
  MP4(SDQ) correlation energy          -0.730007248954

  Triples contribution                 -0.027679374936
  Total correlation energy             -0.757686623890

  MP4(SDQ) total energy              -191.887966444982
 !MP4(SDTQ) total energy             -191.915645819918

 Timing summary (sec):

 STEP                 CPU(USER)    SYS     CPU(TOT)    WALL
 Transformation         22.65      2.73     25.38     29.97
 CCSD iterations       134.12      1.07    135.19     28.18
 Triples               350.23     10.70    360.93    418.78

 Program statistics:

 Available memory in ccsd:               805305870
 Min. memory needed in ccsd:              10991486
 Max. memory used in ccsd:                14686936
 Max. memory used in cckext:              10696943 ( 1 integral passes)



 **********************************************************************************************************************************
 DATASETS  * FILE   NREC   LENGTH (MB)   RECORD NAMES
              1      22     3210.97       500      610      700      900      950      970     1000      129      960     1100   
                                          VAR    BASINP    GEOM    SYMINP    ZMAT    AOBASIS   BASIS     P2S    ABASIS      S 
                                         1400     1410     1200     1210     1080     1600     1650     1300     1700     1380   
                                           T        V       H0       H01     AOSYM     SMH    MOLCAS    ERIS     OPER     JKOP   
                                         7000     1380(1)
                                        PAPT AO   JKOP   

              2       6        5.70       700     1000      520     2100     2101     7000   
                                         GEOM     BASIS   MCVARS     RHF      RHF     PAPT   

 PROGRAMS   *        TOTAL       MP4      PAPT    HF-SCF    HF-SCF       INT
 CPU TIMES  *       506.88    394.01     38.11      7.49     41.78     25.37
 REAL TIME  *       651.11 SEC
 DISK USED  *         9.94 GB
 **********************************************************************************************************************************

 Counterpoise: absolute minimum monomer separation=    -1.000 Bragg radius scale factor=     1.400 Number of monomers= 2

 Counterpoise  MP4  energy

 Running default procedure: HF-SCF001  PAPT  MP4

 Assignment of unique atoms to monomers:
1-9     1     1     1     1     1     1     2     2     2

 *** Long output written to logfile /Users/sacpjk/current/PAPT/S66/311b63cc/08.molpro/run/1.molpro/1.log ***


 Description                       ENERGY          ENERGR          ENERGC
 Raw                        -191.91564582   -191.15795920   -191.88796644
 Dimer basis, monomer 1     -115.56448414   -115.09195916   -115.54678281
 Dimer basis, monomer 2      -76.34345822    -76.06048696    -76.33389237
 Monomer basis, monomer 1   -115.56414943   -115.09190072   -115.54646504
 Monomer basis, monomer 2    -76.34299402    -76.06040794    -76.33346034
 Counterpoise correction       0.00079891      0.00013746      0.00074980
 Counterpoise corrected     -191.91484691   -191.15782174   -191.88721665


 **********************************************************************************************************************************
 DATASETS  * FILE   NREC   LENGTH (MB)   RECORD NAMES
              1      18       31.42       500      610      700      900      950      970     1000      129      960     1100   
                                          VAR    BASINP    GEOM    SYMINP    ZMAT    AOBASIS   BASIS     P2S    ABASIS      S 
                                         1400     1410     1200     1210     1080     1600     1650     1700   
                                           T        V       H0       H01     AOSYM     SMH    MOLCAS    OPER   

              2      14       14.62       700     1000      520     2100     2101     2102     2103      701     1001     2104   
                                         GEOM     BASIS   MCVARS     RHF      RHF      RHF      RHF     GEOM     BASIS     RHF  
                                          702     1002     2105     7000   
                                         GEOM     BASIS     RHF     PAPT   

 PROGRAMS   *        TOTALCOUNTERPOI      PAPT    HF-SCF       INT       MP4      PAPT    HF-SCF       INT       MP4      PAPT
 CPU TIMES  *       827.04      0.81      0.25      0.41      0.38     29.91      4.56      6.94      4.97     42.45     10.70
 REAL TIME  *      1063.36 SEC
 DISK USED  *         9.94 GB
 **********************************************************************************************************************************

 Dump information in style XML to xml output                                                                      

 Orbitals will not be exported.

 **********************************************************************************************************************************

 MP4/aug-cc-pVTZ energy=   -191.914846907235

             MP4            PAPT          HF-SCF             MP4            PAPT          HF-SCF             MP4            PAPT
    -76.34299402    -76.33162094    -76.06040794   -115.56414943   -115.54306612   -115.09190072    -76.34345822    -76.33205834
 **********************************************************************************************************************************
 Molpro calculation terminated
