
 Working directory              : /var/folders/2v/xbgp75_9785319ghcgb4zr4r0000gp/T//molpro.wuSqZ9ERQs/
 Global scratch directory       : /var/folders/2v/xbgp75_9785319ghcgb4zr4r0000gp/T//molpro.wuSqZ9ERQs/
 Wavefunction directory         : /Users/sacpjk/wfu/
 Main file repository           : /var/folders/2v/xbgp75_9785319ghcgb4zr4r0000gp/T//molpro.wuSqZ9ERQs/

 id        : peterk

 Nodes                        nprocs
 Cardiff-University-G34YLXT77Y    1
 GA implementation: MPI file
 GA implementation (serial work in mppx): MPI file

 Using customized tuning parameters: mindgm=1; mindgv=20; mindgc=4; mindgr=1; noblas=0; minvec=7
 default implementation of scratch files=df  


 Variables initialized (1032), CPU time= 0.00 sec
 
 symmetry,nosym
 
 
 geometry={
            2
     O          0.00000000      0.00000000      0.48102212
     H          0.00000000      0.00000000     -0.48102212
 }
 basis=cc-pVTZ
 
 charge=-1
 
 hf
 
 
 
 {put,xml;noorbitals,nobasis}
 Commands initialized (841), CPU time= 0.01 sec, 704 directives.
 Default parameters read. Elapsed time= 0.17 sec

 Checking input...
 Passed
1


                                         ***  PROGRAM SYSTEM MOLPRO  ***
                                       Copyright, TTI GmbH Stuttgart, 2015
                                    Version 2023.1 linked Tue Jun  6 09:54:11 2023


 **********************************************************************************************************************************
 LABEL *                                                                                                                                                                 
  64 bit serial version                                                                  DATE: 09-Jun-23          TIME: 15:32:28  
 **********************************************************************************************************************************

 SHA1:             8ebb0dd001088a5c915591db1a321413035db0b1
 **********************************************************************************************************************************

 Memory per process:       805 MW
 Total memory per node:   1074 MW
 Total GA space:           268 MW

 GA preallocation disabled
 GA check enabled

 Variable memory set to 805.3 MW

 ZSYMEL=NOSYM


 Geometry recognized as XYZ

 SETTING BASIS          =    CC-PVTZ
 SETTING CHARGE         =        -1.00000000                                  


 Recomputing integrals since basis changed


 Using spherical harmonics

 Library entry O      S cc-pVTZ              selected for orbital group  1
 Library entry O      P cc-pVTZ              selected for orbital group  1
 Library entry O      D cc-pVTZ              selected for orbital group  1
 Library entry O      F cc-pVTZ              selected for orbital group  1
 Library entry H      S cc-pVTZ              selected for orbital group  2
 Library entry H      P cc-pVTZ              selected for orbital group  2
 Library entry H      D cc-pVTZ              selected for orbital group  2


 PROGRAM * SEWARD (Integral evaluation for generally contracted gaussian basis sets)     Author: Roland Lindh, 1990

 Geometry written to block  1 of record 700


 Point group  C1  



 ATOMIC COORDINATES

 NR  ATOM    CHARGE       X              Y              Z

   1  O       8.00    0.000000000    0.000000000    0.909000067
   2  H       1.00    0.000000000    0.000000000   -0.909000067

 Bond lengths in Bohr (Angstrom)

 1-2  1.818000133
     ( 0.962044240)

 NUCLEAR CHARGE:                    9
 NUMBER OF PRIMITIVE AOS:          64
 NUMBER OF SYMMETRY AOS:           58
 NUMBER OF CONTRACTIONS:           44   (   44A   )
 NUMBER OF INNER CORE ORBITALS:     0   (    0A   )
 NUMBER OF OUTER CORE ORBITALS:     1   (    1A   )
 NUMBER OF VALENCE ORBITALS:        5   (    5A   )


 NUCLEAR REPULSION ENERGY    4.40043972

 EXTRA SYMMETRY OF AOS IN SYMMETRY 1:   1 1 1 1 2 3 1 2 3 1   2 3 1 1 4 2 5 3 1 4   2 5 3 2 3 1 6 4 7 5   1 1 1 2 3 1 2 3 1 1
                                        4 2 5 3

 Eigenvalues of metric

         1 0.387E-02 0.751E-02 0.108E-01 0.447E-01 0.447E-01 0.537E-01 0.112E+00 0.121E+00


 Contracted 2-electron integrals neglected if value below      1.0D-11
 AO integral compression algorithm  1   Integral accuracy      1.0D-11

     1.049 MB (compressed) written to integral file ( 20.0%)


 NUMBER OF SORTED TWO-ELECTRON INTEGRALS:     490545.     BUFFER LENGTH:  32768
 NUMBER OF SEGMENTS:   1  SEGMENT LENGTH:     490545      RECORD LENGTH: 524288

 Memory used in sort:       1.05 MW

 SORT1 READ      632502. AND WROTE       96284. INTEGRALS IN      1 RECORDS. CPU TIME:     0.01 SEC, REAL TIME:     0.01 SEC
 SORT2 READ       96284. AND WROTE      490545. INTEGRALS IN      4 RECORDS. CPU TIME:     0.01 SEC, REAL TIME:     0.02 SEC

 FILE SIZES:   FILE 1:    31.1 MBYTE,  FILE 4:     4.3 MBYTE,   TOTAL:     35.4 MBYTE

 OPERATOR DM      FOR CENTER  0  COORDINATES:    0.000000    0.000000    0.000000


 **********************************************************************************************************************************
 DATASETS  * FILE   NREC   LENGTH (MB)   RECORD NAMES
              1      19       29.29       500      610      700      900      950      970     1000      129      960     1100   
                                          VAR    BASINP    GEOM    SYMINP    ZMAT    AOBASIS   BASIS     P2S    ABASIS      S 
                                         1400     1410     1200     1210     1080     1600     1650     1300     1700   
                                           T        V       H0       H01     AOSYM     SMH    MOLCAS    ERIS     OPER   

 PROGRAMS   *        TOTAL       INT
 CPU TIMES  *         0.20      0.11
 REAL TIME  *         0.65 SEC
 DISK USED  *        34.07 MB
 **********************************************************************************************************************************


 Program * Restricted Hartree-Fock

 Orbital guess generated from atomic densities. Full valence occupancy:    6

 Initial occupancy:   5

 NELEC=   10   SYM=1   MS2= 0   THRE=1.0D-08   THRD=3.2D-06   THRG=3.2D-06  HFMA2=F  DIIS_START=2   DIIS_MAX=10   DIIS_INCORE=F

 Level shifts:    0.00 (CLOSED)    0.00 (OPEN)    0.30 (GAP_MIN)

 ITER           ETOT              DE          GRAD        DDIFF     DIIS  NEXP   TIME(IT)  TIME(TOT)  DIAG
   1      -75.26163213     -75.26163213     0.00D+00     0.14D+00     0     0       0.00      0.01    start
   2      -75.32682023      -0.06518809     0.28D-01     0.40D-01     1     0       0.00      0.01    diag
   3      -75.38265942      -0.05583919     0.21D-01     0.16D-01     2     0       0.00      0.01    diag
   4      -75.38285440      -0.00019498     0.98D-03     0.99D-03     3     0       0.01      0.02    diag
   5      -75.38288160      -0.00002720     0.25D-03     0.44D-03     4     0       0.00      0.02    diag
   6      -75.38288490      -0.00000329     0.73D-04     0.19D-03     5     0       0.00      0.02    diag
   7      -75.38288503      -0.00000013     0.13D-04     0.41D-04     6     0       0.00      0.02    diag
   8      -75.38288503      -0.00000000     0.27D-05     0.85D-05     7     0       0.01      0.03    fixocc
   9      -75.38288503      -0.00000000     0.24D-06     0.69D-06     8     0       0.00      0.03    diag
  10      -75.38288503      -0.00000000     0.26D-07     0.47D-07     0     0       0.00      0.03    diag/orth

 Final occupancy:   5

 !RHF STATE 1.1 Energy                -75.382885032784
  RHF One-electron energy            -117.012136796285
  RHF Two-electron energy              37.228812042326
  RHF Kinetic energy                   75.559192816053
  RHF Nuclear energy                    4.400439721175
  RHF Virial quotient                  -0.997666626962

 !RHF STATE 1.1 Dipole moment           0.00000000     0.00000000    -1.28265180
 Dipole moment /Debye                   0.00000000     0.00000000    -3.26017570

 Orbital energies:

           1.1          2.1          3.1          4.1          5.1          6.1          7.1
    -20.104823    -0.847851    -0.198297    -0.063143    -0.063143     0.425880     0.913609


 HOMO      5.1    -0.063143 =      -1.7182eV
 LUMO      6.1     0.425880 =      11.5888eV
 LUMO-HOMO         0.489023 =      13.3070eV

 Orbitals saved in record  2100.2


 **********************************************************************************************************************************
 DATASETS  * FILE   NREC   LENGTH (MB)   RECORD NAMES
              1      19       29.29       500      610      700      900      950      970     1000      129      960     1100   
                                          VAR    BASINP    GEOM    SYMINP    ZMAT    AOBASIS   BASIS     P2S    ABASIS      S 
                                         1400     1410     1200     1210     1080     1600     1650     1300     1700   
                                           T        V       H0       H01     AOSYM     SMH    MOLCAS    ERIS     OPER   

              2       4        0.43       700     1000      520     2100   
                                         GEOM     BASIS   MCVARS     RHF  

 PROGRAMS   *        TOTAL    HF-SCF       INT
 CPU TIMES  *         0.23      0.03      0.11
 REAL TIME  *         0.83 SEC
 DISK USED  *        34.07 MB
 **********************************************************************************************************************************

 Dump information in style XML to xml output                                                                      

 Orbitals will not be exported.

 **********************************************************************************************************************************

 HF/cc-pVTZ energy=    -75.382885032784

          HF-SCF
    -75.38288503
 **********************************************************************************************************************************
 Molpro calculation terminated
