
 Working directory              : /tmp/peterk/molpro.9IDaKGab9e/
 Global scratch directory       : /tmp/peterk/molpro.9IDaKGab9e/
 Wavefunction directory         : /home/peterk/wfu/
 Main file repository           : /tmp/peterk/molpro.9IDaKGab9e/

 id        : peterk

 Nodes     nprocs
 marat        1
 GA implementation: MPI file
 GA implementation (serial work in mppx): MPI file

 Using customized tuning parameters: mindgm=1; mindgv=20; mindgc=4; mindgr=1; noblas=0; minvec=7
 default implementation of scratch files=df  


 Variables initialized (1032), CPU time= 0.00 sec
 
 core,small
 angstrom
 
 geometry={
 C1;H4,C1,1.08637390;H1,C1,1.08637390,H4,109.47122063;H2,C1,1.08637390,H4,109.47122063,H1,120;H3,C1,1.08637390,H4,109.47122063,H2,120
 }
 basis=cc-pCV5Z
 
 
 
 hf; ccsd
 
 
 
 {put,xml;noorbitals,nobasis}
 Commands initialized (841), CPU time= 0.01 sec, 708 directives.
 Default parameters read. Elapsed time= 0.05 sec

 Checking input...
 Passed
1


                                         ***  PROGRAM SYSTEM MOLPRO  ***
                                       Copyright, TTI GmbH Stuttgart, 2015
                                    Version 2023.1 linked Sat Jun 10 08:01:27 2023


 **********************************************************************************************************************************
 LABEL *                                                                                                                                                                 
  (16 PROC) 64 bit serial version                                                        DATE: 12-Jun-23          TIME: 11:47:21  
 **********************************************************************************************************************************

 SHA1:             8376d659ba1296ca7ee514c57770fe2c96af278c
 **********************************************************************************************************************************

 Memory per process:      1074 MW
 Total memory per node:   1074 MW

 GA preallocation disabled
 GA check disabled

 Variable memory set to 1073.7 MW

 ZUNIT=ANG

 SETTING BASIS          =    CC-PCV5Z


 Recomputing integrals since basis changed


 Using spherical harmonics

 Library entry C      S cc-pCV5Z             selected for orbital group  1
 Library entry C      P cc-pCV5Z             selected for orbital group  1
 Library entry C      D cc-pCV5Z             selected for orbital group  1
 Library entry C      F cc-pCV5Z             selected for orbital group  1
 Library entry C      G cc-pCV5Z             selected for orbital group  1
 Library entry C      H cc-pCV5Z             selected for orbital group  1
 Library entry H      S cc-pV5Z              selected for orbital group  2
 Library entry H      P cc-pV5Z              selected for orbital group  2
 Library entry H      D cc-pV5Z              selected for orbital group  2
 Library entry H      F cc-pV5Z              selected for orbital group  2
 Library entry H      G cc-pV5Z              selected for orbital group  2


 PROGRAM * SEWARD (Integral evaluation for generally contracted gaussian basis sets)     Author: Roland Lindh, 1990

 Geometry written to block  1 of record 700

 Orientation using atomic masses  
 Molecule type: Spherical top,     Neighbour degeneracy = 4
 Symmetry elements: X,Y
 Rotational constants:     159.3144359    159.3144359    159.3144358 GHz  (calculated with average atomic masses)

 Point group  C2v 



 ATOMIC COORDINATES

 NR  ATOM    CHARGE       X              Y              Z

   1  C1      6.00    0.000000000    0.000000000   -0.000000000
   2  H4      1.00    1.676225954    0.000000000    1.185270739
   3  H1      1.00   -1.676225954    0.000000000    1.185270739
   4  H2      1.00    0.000000000    1.676225954   -1.185270739
   5  H3      1.00    0.000000000   -1.676225954   -1.185270739

 Bond lengths in Bohr (Angstrom)

 1-2  2.052949140  1-3  2.052949140  1-4  2.052949140  1-5  2.052949140
     ( 1.086373900)     ( 1.086373900)     ( 1.086373900)     ( 1.086373900)

 Bond angles

  2-1-3  109.47122063   2-1-4  109.47122063   2-1-5  109.47122063   3-1-4  109.47122063

  3-1-5  109.47122063   4-1-5  109.47122064

 NUCLEAR CHARGE:                   10
 NUMBER OF PRIMITIVE AOS:         504
 NUMBER OF SYMMETRY AOS:          394
 NUMBER OF CONTRACTIONS:          365   (  125A1  +   90B1  +   90B2  +   60A2  )
 NUMBER OF INNER CORE ORBITALS:     0   (    0A1  +    0B1  +    0B2  +    0A2  )
 NUMBER OF OUTER CORE ORBITALS:     1   (    1A1  +    0B1  +    0B2  +    0A2  )
 NUMBER OF VALENCE ORBITALS:        8   (    4A1  +    2B1  +    2B2  +    0A2  )


 NUCLEAR REPULSION ENERGY   13.48023391


 Eigenvalues of metric

         1 0.217E-05 0.252E-04 0.343E-04 0.161E-03 0.189E-03 0.218E-03 0.385E-03 0.399E-03
         2 0.252E-04 0.161E-03 0.218E-03 0.461E-03 0.633E-03 0.170E-02 0.341E-02 0.558E-02
         3 0.252E-04 0.161E-03 0.218E-03 0.461E-03 0.633E-03 0.170E-02 0.341E-02 0.558E-02
         4 0.657E-03 0.170E-02 0.324E-02 0.124E-01 0.180E-01 0.221E-01 0.323E-01 0.369E-01


 Contracted 2-electron integrals neglected if value below      1.0D-12
 AO integral compression algorithm  1   Integral accuracy      1.0D-12

     3010.200 MB (compressed) written to integral file ( 55.2%)


 NUMBER OF SORTED TWO-ELECTRON INTEGRALS:  563702910.     BUFFER LENGTH:  32768
 NUMBER OF SEGMENTS:  18  SEGMENT LENGTH:   31999465      RECORD LENGTH: 524288

 Memory used in sort:      32.56 MW

 SORT1 READ   681628587. AND WROTE   547221170. INTEGRALS IN   1576 RECORDS. CPU TIME:    24.62 SEC, REAL TIME:   117.96 SEC
 SORT2 READ   547221170. AND WROTE   563702910. INTEGRALS IN  11483 RECORDS. CPU TIME:    12.77 SEC, REAL TIME:    81.22 SEC

 FILE SIZES:   FILE 1:  3043.1 MBYTE,  FILE 4:  6610.3 MBYTE,   TOTAL:   9653.4 MBYTE

 OPERATOR DM      FOR CENTER  0  COORDINATES:    0.000000    0.000000    0.000000


 **********************************************************************************************************************************
 DATASETS  * FILE   NREC   LENGTH (MB)   RECORD NAMES
              1      19     2481.90       500      610      700      900      950      970     1000      129      960     1100   
                                          VAR    BASINP    GEOM    SYMINP    ZMAT    AOBASIS   BASIS     P2S    ABASIS      S 
                                         1400     1410     1200     1210     1080     1600     1650     1300     1700   
                                           T        V       H0       H01     AOSYM     SMH    MOLCAS    ERIS     OPER   

 PROGRAMS   *        TOTAL       INT
 CPU TIMES  *        82.02     81.92
 REAL TIME  *       248.70 SEC
 DISK USED  *         8.99 GB
 **********************************************************************************************************************************


 Program * Restricted Hartree-Fock

 Orbital guess generated from atomic densities. Full valence occupancy:    5   2   2   0

 Initial occupancy:   3   1   1   0

 NELEC=   10   SYM=1   MS2= 0   THRE=1.0D-08   THRD=3.2D-06   THRG=3.2D-06  HFMA2=F  DIIS_START=2   DIIS_MAX=10   DIIS_INCORE=F

 Level shifts:    0.00 (CLOSED)    0.00 (OPEN)    0.30 (GAP_MIN)

 ITER           ETOT              DE          GRAD        DDIFF     DIIS  NEXP   TIME(IT)  TIME(TOT)  DIAG
   1      -40.19802707     -40.19802707     0.00D+00     0.35D-01     0     0       1.46      2.83    start
   2      -40.21449585      -0.01646877     0.49D-02     0.34D-02     1     0       1.50      4.33    diag
   3      -40.21667912      -0.00218327     0.19D-02     0.10D-02     2     0       1.44      5.77    diag
   4      -40.21699655      -0.00031743     0.49D-03     0.37D-03     3     0       1.46      7.23    diag
   5      -40.21700205      -0.00000549     0.64D-04     0.81D-04     4     0       1.48      8.71    diag
   6      -40.21700209      -0.00000004     0.53D-05     0.14D-04     5     0       1.45     10.16    diag
   7      -40.21700209      -0.00000000     0.43D-06     0.14D-05     6     0       1.47     11.63    diag
   8      -40.21700209      -0.00000000     0.32D-07     0.11D-06     0     0       1.51     13.14    fixocc

 Final occupancy:   3   1   1   0

 !RHF STATE 1.1 Energy                -40.217002091923
  RHF One-electron energy             -79.824341452781
  RHF Two-electron energy              26.127105449675
  RHF Kinetic energy                   40.187816619035
  RHF Nuclear energy                   13.480233911183
  RHF Virial quotient                  -1.000726226885

 !RHF STATE 1.1 Dipole moment           0.00000000     0.00000000     0.00000000
 Dipole moment /Debye                   0.00000000     0.00000000     0.00000000

 Orbital energies:

           1.1          2.1          3.1          4.1          5.1
    -11.204348    -0.943717    -0.545667     0.094977     0.148473

           1.2          2.2          3.2
     -0.545667     0.148473     0.210374

           1.3          2.3          3.3
     -0.545667     0.148473     0.210374

           1.4          2.4
      0.465691     0.671833


 HOMO      1.3    -0.545667 =     -14.8484eV
 LUMO      4.1     0.094977 =       2.5844eV
 LUMO-HOMO         0.640644 =      17.4328eV

 Orbitals saved in record  2100.2


 **********************************************************************************************************************************
 DATASETS  * FILE   NREC   LENGTH (MB)   RECORD NAMES
              1      19     2481.90       500      610      700      900      950      970     1000      129      960     1100   
                                          VAR    BASINP    GEOM    SYMINP    ZMAT    AOBASIS   BASIS     P2S    ABASIS      S 
                                         1400     1410     1200     1210     1080     1600     1650     1300     1700   
                                           T        V       H0       H01     AOSYM     SMH    MOLCAS    ERIS     OPER   

              2       4        1.02       700     1000      520     2100   
                                         GEOM     BASIS   MCVARS     RHF  

 PROGRAMS   *        TOTAL    HF-SCF       INT
 CPU TIMES  *        95.17     13.15     81.92
 REAL TIME  *       263.75 SEC
 DISK USED  *         8.99 GB
 **********************************************************************************************************************************


 PROGRAM * CCSD (Closed-shell coupled cluster)     Authors: C. Hampel, H.-J. Werner, 1991, M. Deegan, P.J. Knowles, 1992


 CORETYPE=SMALL

 Convergence thresholds:  THRVAR = 1.00D-08  THRDEN = 1.00D-06

 Number of closed-shell orbitals:   5 (   3   1   1   0 )
 Number of external orbitals:     360 ( 122  89  89  60 )

 Molecular orbitals read from record     2100.2  Type=RHF/CANONICAL  

 Number of N-1 electron functions:               5
 Number of N-2 electron functions:              15
 Number of singly external CSFs:               544
 Number of doubly external CSFs:            414551
 Total number of CSFs:                      415096

 Length of J-op  integral file:               0.00 MB
 Length of K-op  integral file:               2.49 MB
 Length of 3-ext integral record:             0.00 MB

 Integral transformation finished. Total CPU:   4.87 sec, npass=  1  Memory used:   9.96 MW

 Reference energy:                    -40.21700209

 MP2 singlet pair energy:              -0.20394895
 MP2 triplet pair energy:              -0.06438154
 MP2 correlation energy:               -0.26833049
 MP2 total energy:                    -40.48533258

 SCS-MP2 correlation energy:           -0.28479836   (PS=  1.200000  PT=  0.333333)
 SCS-MP2 total energy:                -40.50180046

 ITER.      SQ.NORM     CORR.ENERGY   TOTAL ENERGY   ENERGY CHANGE        DEN1      VAR(S)    VAR(P)  DIIS     TIME  TIME/IT
   1      1.07308311    -0.28503993   -40.50204202    -0.01670944    -0.01034226  0.80D-03  0.98D-03  1  1   104.66     4.52
   2      1.07806003    -0.28608983   -40.50309192    -0.00104990    -0.00576245  0.18D-04  0.13D-03  2  2   108.86     4.54
   3      1.07985139    -0.28615072   -40.50315281    -0.00006089    -0.00129163  0.38D-05  0.10D-04  3  3   113.05     4.56
   4      1.08047239    -0.28613348   -40.50313557     0.00001724    -0.00039460  0.21D-06  0.52D-06  4  4   117.21     4.55
   5      1.08054507    -0.28613960   -40.50314169    -0.00000612    -0.00001195  0.15D-07  0.26D-07  5  5   121.38     4.54
   6      1.08055689    -0.28613829   -40.50314038     0.00000131    -0.00000402  0.74D-09  0.19D-08  6  6   125.44     4.53
   7      1.08055775    -0.28613798   -40.50314007     0.00000031    -0.00000054  0.44D-10  0.86D-10  6  1   129.57     4.53
   8      1.08055794    -0.28613793   -40.50314003     0.00000005    -0.00000005  0.24D-11  0.52D-11  6  2   133.74     4.53

 Norm of t1 vector:      0.03636990      S-energy:    -0.00000001      T1 diagnostic:  0.00813256
                                                                       D1 diagnostic:  0.01452101
                                                                       D2 diagnostic:  0.13446652 (internal)


 RESULTS
 =======

  Reference energy                    -40.217002091923

  Correlated core orbitals:             1.1
  Orbital energies:                   -11.2043

  CCSD core-core energy                -0.041841310456
  CCSD core-valence energy             -0.014216916306
  CCSD valence correlation energy      -0.230079707427

  CCSD singlet pair energy             -0.223521643069
  CCSD triplet pair energy             -0.062616282180
  CCSD correlation energy              -0.286137934189

 !CCSD total energy                   -40.503140026112

 Timing summary (sec):

 STEP                 CPU(USER)    SYS     CPU(TOT)    WALL
 Transformation          4.88      0.74      5.62      6.55
 CCSD iterations       128.87      3.04    131.91     36.32

 Program statistics:

 Available memory in ccsd:              1073741721
 Min. memory needed in ccsd:               1603216
 Max. memory used in ccsd:                 1930351
 Max. memory used in cckext:               3289380 ( 8 integral passes)



 **********************************************************************************************************************************
 DATASETS  * FILE   NREC   LENGTH (MB)   RECORD NAMES
              1      20     2712.95       500      610      700      900      950      970     1000      129      960     1100   
                                          VAR    BASINP    GEOM    SYMINP    ZMAT    AOBASIS   BASIS     P2S    ABASIS      S 
                                         1400     1410     1200     1210     1080     1600     1650     1300     1700     1380   
                                           T        V       H0       H01     AOSYM     SMH    MOLCAS    ERIS     OPER     JKOP   

              2       4        1.02       700     1000      520     2100   
                                         GEOM     BASIS   MCVARS     RHF  

 PROGRAMS   *        TOTAL      CCSD    HF-SCF       INT
 CPU TIMES  *       133.33     38.16     13.15     81.92
 REAL TIME  *       307.08 SEC
 DISK USED  *         8.99 GB
 **********************************************************************************************************************************

 Dump information in style XML to xml output                                                                      

 Orbitals will not be exported.

 **********************************************************************************************************************************

 CCSD/cc-pCV5Z energy=    -40.503140026112

            CCSD          HF-SCF
    -40.50314003    -40.21700209
 **********************************************************************************************************************************
 Molpro calculation terminated
