
 Working directory              : /var/folders/2v/xbgp75_9785319ghcgb4zr4r0000gp/T//molpro.OxkeW1hZ3H/
 Global scratch directory       : /var/folders/2v/xbgp75_9785319ghcgb4zr4r0000gp/T//molpro.OxkeW1hZ3H/
 Wavefunction directory         : /Users/sacpjk/wfu/
 Main file repository           : /var/folders/2v/xbgp75_9785319ghcgb4zr4r0000gp/T//molpro.OxkeW1hZ3H/

 id        : peterk

 Nodes                        nprocs
 Cardiff-University-G34YLXT77Y    1
 GA implementation: MPI file
 GA implementation (serial work in mppx): MPI file

 Using customized tuning parameters: mindgm=1; mindgv=20; mindgc=4; mindgr=1; noblas=0; minvec=7
 default implementation of scratch files=df  


 Variables initialized (1032), CPU time= 0.00 sec
 
 symmetry,nosym
 
 
 geometry={
           11
     C         -1.14801349     -0.57975568      0.03120696
     C         -1.08021984      0.78192529      0.02639005
     N          1.30543743      1.13121591      0.11743732
     N          1.57534155     -0.09591016      0.00445069
     C          1.06337833     -1.19481227      0.00478589
     H         -1.31347505     -1.11800370      0.95840071
     H         -1.34813898     -1.12998002     -0.87963506
     H         -1.11376040      1.35419025      0.94257550
     H         -1.16281172      1.34381802     -0.89587363
     H          1.77093124      1.66037919     -0.62483756
     H          1.45133094     -2.15306682      0.31509914
 }
 basis=cc-pVDZ
 
 
 
 hf; ccsd
 
 
 
 {put,xml;noorbitals,nobasis}
 Commands initialized (841), CPU time= 0.01 sec, 704 directives.
 Default parameters read. Elapsed time= 0.06 sec

 Checking input...
 Passed
1


                                         ***  PROGRAM SYSTEM MOLPRO  ***
                                       Copyright, TTI GmbH Stuttgart, 2015
                                    Version 2023.1 linked Tue Jun  6 09:54:11 2023


 **********************************************************************************************************************************
 LABEL *                                                                                                                                                                 
  64 bit serial version                                                                  DATE: 11-Jun-23          TIME: 07:18:05  
 **********************************************************************************************************************************

 SHA1:             8ebb0dd001088a5c915591db1a321413035db0b1
 **********************************************************************************************************************************

 Memory per process:       393 MW
 Total memory per node:    524 MW
 Total GA space:           131 MW

 GA preallocation disabled
 GA check enabled

 Variable memory set to 393.2 MW

 ZSYMEL=NOSYM


 Geometry recognized as XYZ

 SETTING BASIS          =    CC-PVDZ


 Recomputing integrals since basis changed


 Using spherical harmonics

 Library entry C      S cc-pVDZ              selected for orbital group  1
 Library entry C      P cc-pVDZ              selected for orbital group  1
 Library entry C      D cc-pVDZ              selected for orbital group  1
 Library entry N      S cc-pVDZ              selected for orbital group  2
 Library entry N      P cc-pVDZ              selected for orbital group  2
 Library entry N      D cc-pVDZ              selected for orbital group  2
 Library entry H      S cc-pVDZ              selected for orbital group  4
 Library entry H      P cc-pVDZ              selected for orbital group  4


 PROGRAM * SEWARD (Integral evaluation for generally contracted gaussian basis sets)     Author: Roland Lindh, 1990

 Geometry written to block  1 of record 700


 Point group  C1  



 ATOMIC COORDINATES

 NR  ATOM    CHARGE       X              Y              Z

   1  C       6.00   -2.169431083   -1.095579454    0.058972608
   2  C       6.00   -2.041319652    1.477624648    0.049869967
   3  N       7.00    2.466919216    2.137688258    0.221924372
   4  N       7.00    2.976964082   -0.181243935    0.008410585
   5  C       6.00    2.009493811   -2.257867961    0.009044021
   6  H       1.00   -2.482108116   -2.112720799    1.811114860
   7  H       1.00   -2.547613450   -2.135352764   -1.662269353
   8  H       1.00   -2.104702124    2.559048693    1.781209547
   9  H       1.00   -2.197395685    2.539448019   -1.692955803
  10  H       1.00    3.346575029    3.137661932   -1.180771861
  11  H       1.00    2.742617993   -4.068706618    0.595451077

 Bond lengths in Bohr (Angstrom)

 1-2  2.576407334  1-6  2.049962418  1-7  2.046173093  2-8  2.042310467  2-9  2.046770692
     ( 1.363376047)     ( 1.084793395)     ( 1.082788170)     ( 1.080744157)     ( 1.083104406)

  3- 4  2.383942201   3-10  1.934243630   4- 5  2.290931355   5-11  2.039725703
       ( 1.261527885)       ( 1.023557649)       ( 1.212308665)       ( 1.079376359)

 Bond angles

  1-2-8  121.62203767   1-2-9  121.15476259   2-1-6  120.40858136   2-1-7  120.91338229

  3- 4- 5  142.31262266   4- 3-10  109.91558835   4- 5-11  130.77046409   6- 1- 7  116.01874710

  8-2-9  116.40935928

 NUCLEAR CHARGE:                   38
 NUMBER OF PRIMITIVE AOS:         177
 NUMBER OF SYMMETRY AOS:          172
 NUMBER OF CONTRACTIONS:          100   (  100A   )
 NUMBER OF INNER CORE ORBITALS:     0   (    0A   )
 NUMBER OF OUTER CORE ORBITALS:     5   (    5A   )
 NUMBER OF VALENCE ORBITALS:       26   (   26A   )


 NUCLEAR REPULSION ENERGY  160.16494666


 Eigenvalues of metric

         1 0.295E-02 0.411E-02 0.721E-02 0.135E-01 0.155E-01 0.182E-01 0.256E-01 0.271E-01


 Contracted 2-electron integrals neglected if value below      1.0D-11
 AO integral compression algorithm  1   Integral accuracy      1.0D-11

     57.410 MB (compressed) written to integral file ( 50.7%)


 NUMBER OF SORTED TWO-ELECTRON INTEGRALS:   12753775.     BUFFER LENGTH:  32768
 NUMBER OF SEGMENTS:   1  SEGMENT LENGTH:   12753775      RECORD LENGTH: 524288

 Memory used in sort:      13.31 MW

 SORT1 READ    14084626. AND WROTE    12511406. INTEGRALS IN     36 RECORDS. CPU TIME:     0.09 SEC, REAL TIME:     0.18 SEC
 SORT2 READ    12511406. AND WROTE    12753775. INTEGRALS IN    219 RECORDS. CPU TIME:     0.14 SEC, REAL TIME:     0.32 SEC

 FILE SIZES:   FILE 1:    88.0 MBYTE,  FILE 4:   151.1 MBYTE,   TOTAL:    239.0 MBYTE

 OPERATOR DM      FOR CENTER  0  COORDINATES:    0.000000    0.000000    0.000000


 **********************************************************************************************************************************
 DATASETS  * FILE   NREC   LENGTH (MB)   RECORD NAMES
              1      19       77.89       500      610      700      900      950      970     1000      129      960     1100   
                                          VAR    BASINP    GEOM    SYMINP    ZMAT    AOBASIS   BASIS     P2S    ABASIS      S 
                                         1400     1410     1200     1210     1080     1600     1650     1300     1700   
                                           T        V       H0       H01     AOSYM     SMH    MOLCAS    ERIS     OPER   

 PROGRAMS   *        TOTAL       INT
 CPU TIMES  *         1.03      0.92
 REAL TIME  *         1.70 SEC
 DISK USED  *       228.45 MB
 **********************************************************************************************************************************


 Program * Restricted Hartree-Fock

 Orbital guess generated from atomic densities. Full valence occupancy:   31

 Initial occupancy:  19

 NELEC=   38   SYM=1   MS2= 0   THRE=1.0D-08   THRD=3.2D-06   THRG=3.2D-06  HFMA2=F  DIIS_START=2   DIIS_MAX=10   DIIS_INCORE=F

 Level shifts:    0.00 (CLOSED)    0.00 (OPEN)    0.30 (GAP_MIN)

 ITER           ETOT              DE          GRAD        DDIFF     DIIS  NEXP   TIME(IT)  TIME(TOT)  DIAG
   1     -225.73052166    -225.73052166     0.00D+00     0.11D+00     0     0       0.06      0.12    start
   2     -225.78312523      -0.05260357     0.59D-02     0.13D-01     1     0       0.06      0.18    diag
   3     -225.80419390      -0.02106867     0.38D-02     0.57D-02     2     0       0.06      0.24    diag
   4     -225.80671639      -0.00252249     0.10D-02     0.20D-02     3     0       0.06      0.30    diag
   5     -225.80739619      -0.00067979     0.49D-03     0.88D-03     4     0       0.06      0.36    diag
   6     -225.80766627      -0.00027008     0.21D-03     0.45D-03     5     0       0.05      0.41    diag
   7     -225.80784482      -0.00017856     0.12D-03     0.47D-03     6     0       0.06      0.47    diag
   8     -225.80790960      -0.00006478     0.72D-04     0.36D-03     7     0       0.07      0.54    fixocc
   9     -225.80791855      -0.00000895     0.26D-04     0.15D-03     8     0       0.06      0.60    diag
  10     -225.80791927      -0.00000071     0.10D-04     0.39D-04     9     0       0.06      0.66    diag/orth
  11     -225.80791941      -0.00000014     0.40D-05     0.16D-04     9     0       0.06      0.72    diag
  12     -225.80791945      -0.00000004     0.22D-05     0.92D-05     9     0       0.06      0.78    diag
  13     -225.80791946      -0.00000001     0.94D-06     0.48D-05     9     0       0.06      0.84    diag
  14     -225.80791946      -0.00000000     0.57D-06     0.28D-05     9     0       0.06      0.90    diag
  15     -225.80791947      -0.00000000     0.35D-06     0.85D-06     0     0       0.06      0.96    diag

 Final occupancy:  19

 !RHF STATE 1.1 Energy               -225.807919465499
  RHF One-electron energy            -622.473176344525
  RHF Two-electron energy             236.500310216123
  RHF Kinetic energy                  225.443119598259
  RHF Nuclear energy                  160.164946662903
  RHF Virial quotient                  -1.001618145934

 !RHF STATE 1.1 Dipole moment           0.36281567    -0.49789128    -0.25777702
 Dipole moment /Debye                   0.92218545    -1.26551341    -0.65520384

 Orbital energies:

           1.1          2.1          3.1          4.1          5.1          6.1          7.1          8.1          9.1         10.1
    -15.673272   -15.592990   -11.298278   -11.228335   -11.223636    -1.365145    -1.107042    -1.014095    -0.787337    -0.780145

          11.1         12.1         13.1         14.1         15.1         16.1         17.1         18.1         19.1         20.1
     -0.700585    -0.636213    -0.622358    -0.583549    -0.565389    -0.493778    -0.396375    -0.355100    -0.312640     0.112567

          21.1
      0.158335


 HOMO     19.1    -0.312640 =      -8.5074eV
 LUMO     20.1     0.112567 =       3.0631eV
 LUMO-HOMO         0.425207 =      11.5705eV

 Orbitals saved in record  2100.2


 **********************************************************************************************************************************
 DATASETS  * FILE   NREC   LENGTH (MB)   RECORD NAMES
              1      19       77.89       500      610      700      900      950      970     1000      129      960     1100   
                                          VAR    BASINP    GEOM    SYMINP    ZMAT    AOBASIS   BASIS     P2S    ABASIS      S 
                                         1400     1410     1200     1210     1080     1600     1650     1300     1700   
                                           T        V       H0       H01     AOSYM     SMH    MOLCAS    ERIS     OPER   

              2       4        0.71       700     1000      520     2100   
                                         GEOM     BASIS   MCVARS     RHF  

 PROGRAMS   *        TOTAL    HF-SCF       INT
 CPU TIMES  *         2.00      0.98      0.92
 REAL TIME  *         3.21 SEC
 DISK USED  *       228.45 MB
 **********************************************************************************************************************************


 PROGRAM * CCSD (Closed-shell coupled cluster)     Authors: C. Hampel, H.-J. Werner, 1991, M. Deegan, P.J. Knowles, 1992


 Convergence thresholds:  THRVAR = 1.00D-08  THRDEN = 1.00D-06

 Number of core orbitals:           5 (   5 )
 Number of closed-shell orbitals:  14 (  14 )
 Number of external orbitals:      81 (  81 )

 Molecular orbitals read from record     2100.2  Type=RHF/CANONICAL  

 Number of N-1 electron functions:              14
 Number of N-2 electron functions:             105
 Number of singly external CSFs:              1134
 Number of doubly external CSFs:            643545
 Total number of CSFs:                      644680

 Length of J-op  integral file:               0.00 MB
 Length of K-op  integral file:               0.75 MB
 Length of 3-ext integral record:             0.00 MB

 Integral transformation finished. Total CPU:   0.51 sec, npass=  1  Memory used:   9.53 MW

 Reference energy:                   -225.80791947

 MP2 singlet pair energy:              -0.48011470
 MP2 triplet pair energy:              -0.30598058
 MP2 correlation energy:               -0.78609527
 MP2 total energy:                   -226.59401474

 SCS-MP2 correlation energy:           -0.76652555   (PS=  1.200000  PT=  0.333333)
 SCS-MP2 total energy:               -226.57444501

 ITER.      SQ.NORM     CORR.ENERGY   TOTAL ENERGY   ENERGY CHANGE        DEN1      VAR(S)    VAR(P)  DIIS     TIME  TIME/IT
   1      1.29723916    -0.80609144  -226.61401091    -0.01999617     0.01086793  0.80D-02  0.97D-02  1  1     4.01     2.60
   2      1.32622592    -0.80894563  -226.61686510    -0.00285419    -0.02564614  0.30D-03  0.14D-02  2  2     5.38     2.34
   3      1.34156215    -0.80981848  -226.61773794    -0.00087285    -0.00617491  0.31D-03  0.13D-03  3  3     6.81     2.30
   4      1.34862211    -0.80990546  -226.61782492    -0.00008698    -0.00181534  0.60D-04  0.31D-04  4  4     8.10     2.25
   5      1.35365063    -0.81002703  -226.61794650    -0.00012157    -0.00088694  0.13D-04  0.41D-05  5  5     9.44     2.28
   6      1.35553550    -0.80998159  -226.61790105     0.00004544    -0.00019029  0.30D-05  0.71D-06  6  6    10.83     2.25
   7      1.35617286    -0.80998432  -226.61790379    -0.00000273    -0.00003388  0.52D-06  0.25D-06  6  2    12.36     2.23
   8      1.35639187    -0.80998247  -226.61790193     0.00000186    -0.00001189  0.16D-06  0.40D-07  6  1    13.77     2.21
   9      1.35646694    -0.80998306  -226.61790252    -0.00000059     0.00000655  0.23D-07  0.87D-08  6  4    15.19     2.19
  10      1.35649043    -0.80998396  -226.61790342    -0.00000090    -0.00000441  0.54D-08  0.16D-08  6  3    16.71     2.17

 Norm of t1 vector:      0.14940423      S-energy:     0.00000081      T1 diagnostic:  0.01996498
                                                                       D1 diagnostic:  0.08142704
                                                                       D2 diagnostic:  0.21306543 (external, symmetry=1)

 Singles amplitudes (print threshold =  0.500E-01):

         I         SYM. A    A   T(IA)

        12         1         1      0.05515494

 Doubles amplitudes (print threshold =  0.500E-01):

         I         J         SYM. A    SYM. B    A         B      T(IJ, AB)

        13        13         1         1         1         1     -0.05771969
        14        14         1         1         1         1     -0.07297176


 RESULTS
 =======

  Reference energy                   -225.807919465499
  CCSD singlet pair energy             -0.547720928715
  CCSD triplet pair energy             -0.262263844305
  CCSD correlation energy              -0.809983959289

 !CCSD total energy                  -226.617903424789

 Timing summary (sec):

 STEP                 CPU(USER)    SYS     CPU(TOT)    WALL
 Transformation          0.54      0.06      0.60      0.86
 CCSD iterations        16.21      0.60     16.81     21.75

 Program statistics:

 Available memory in ccsd:               393215197
 Min. memory needed in ccsd:               1768432
 Max. memory used in ccsd:                 2318471
 Max. memory used in cckext:               2235034 (10 integral passes)



 **********************************************************************************************************************************
 DATASETS  * FILE   NREC   LENGTH (MB)   RECORD NAMES
              1      20      118.83       500      610      700      900      950      970     1000      129      960     1100   
                                          VAR    BASINP    GEOM    SYMINP    ZMAT    AOBASIS   BASIS     P2S    ABASIS      S 
                                         1400     1410     1200     1210     1080     1600     1650     1300     1700     1380   
                                           T        V       H0       H01     AOSYM     SMH    MOLCAS    ERIS     OPER     JKOP   

              2       4        0.71       700     1000      520     2100   
                                         GEOM     BASIS   MCVARS     RHF  

 PROGRAMS   *        TOTAL      CCSD    HF-SCF       INT
 CPU TIMES  *        16.65     14.65      0.98      0.92
 REAL TIME  *        25.87 SEC
 DISK USED  *       228.45 MB
 **********************************************************************************************************************************

 Dump information in style XML to xml output                                                                      

 Orbitals will not be exported.

 **********************************************************************************************************************************

 CCSD/cc-pVDZ energy=   -226.617903424789

            CCSD          HF-SCF
   -226.61790342   -225.80791947
 **********************************************************************************************************************************
 Molpro calculation terminated
