
 Working directory              : /var/folders/2v/xbgp75_9785319ghcgb4zr4r0000gp/T//molpro.R1fSqP9pIb/
 Global scratch directory       : /var/folders/2v/xbgp75_9785319ghcgb4zr4r0000gp/T//molpro.R1fSqP9pIb/
 Wavefunction directory         : /Users/sacpjk/wfu/
 Main file repository           : /var/folders/2v/xbgp75_9785319ghcgb4zr4r0000gp/T//molpro.R1fSqP9pIb/

 id        : peterk

 Nodes                        nprocs
 Cardiff-University-G34YLXT77Y    1
 GA implementation: MPI file
 GA implementation (serial work in mppx): MPI file

 Using customized tuning parameters: mindgm=1; mindgv=20; mindgc=4; mindgr=1; noblas=0; minvec=7
 default implementation of scratch files=df  


 Variables initialized (1032), CPU time= 0.00 sec
 
 core,small
 angstrom
 
 geometry={
 O1;C,O1,1.16039505;O2,C,1.16039505,O1,180
 }
 basis=cc-pCVQZ
 
 
 
 hf
 
 
 
 {put,xml;noorbitals,nobasis}
 Commands initialized (841), CPU time= 0.01 sec, 704 directives.
 Default parameters read. Elapsed time= 1.19 sec

 Checking input...
 Passed
1


                                         ***  PROGRAM SYSTEM MOLPRO  ***
                                       Copyright, TTI GmbH Stuttgart, 2015
                                    Version 2023.1 linked Tue Jun  6 09:54:11 2023


 **********************************************************************************************************************************
 LABEL *                                                                                                                                                                 
  64 bit serial version                                                                  DATE: 12-Jun-23          TIME: 10:37:51  
 **********************************************************************************************************************************

 SHA1:             8ebb0dd001088a5c915591db1a321413035db0b1
 **********************************************************************************************************************************

 Memory per process:       393 MW
 Total memory per node:    524 MW
 Total GA space:           131 MW

 GA preallocation disabled
 GA check enabled

 Variable memory set to 393.2 MW

 ZUNIT=ANG

 SETTING BASIS          =    CC-PCVQZ


 Recomputing integrals since basis changed


 Using spherical harmonics

 Library entry O      S cc-pCVQZ             selected for orbital group  1
 Library entry O      P cc-pCVQZ             selected for orbital group  1
 Library entry O      D cc-pCVQZ             selected for orbital group  1
 Library entry O      F cc-pCVQZ             selected for orbital group  1
 Library entry O      G cc-pCVQZ             selected for orbital group  1
 Library entry C      S cc-pCVQZ             selected for orbital group  2
 Library entry C      P cc-pCVQZ             selected for orbital group  2
 Library entry C      D cc-pCVQZ             selected for orbital group  2
 Library entry C      F cc-pCVQZ             selected for orbital group  2
 Library entry C      G cc-pCVQZ             selected for orbital group  2


 PROGRAM * SEWARD (Integral evaluation for generally contracted gaussian basis sets)     Author: Roland Lindh, 1990

 Geometry written to block  1 of record 700

 Orientation using atomic masses  
 Molecule type: Linear
 Symmetry elements: X,Y,Z
 Rotational constants:      11.7292910     11.7292910      0.0000000 GHz  (calculated with average atomic masses)

 Point group  D2h 



 ATOMIC COORDINATES

 NR  ATOM    CHARGE       X              Y              Z

   1  O1      8.00    0.000000000    0.000000000   -2.192828841
   2  O2      8.00    0.000000000    0.000000000    2.192828841
   3  C       6.00    0.000000000    0.000000000    0.000000000

 Bond lengths in Bohr (Angstrom)

 1-3  2.192828841  2-3  2.192828841
     ( 1.160395050)     ( 1.160395050)

 Bond angles

  1-3-2  179.99999879

 NUCLEAR CHARGE:                   22
 NUMBER OF PRIMITIVE AOS:         351
 NUMBER OF SYMMETRY AOS:          291
 NUMBER OF CONTRACTIONS:          252   (   55Ag  +   33B3u +   33B2u +   17B1g +   47B1u +   27B2g +   27B3g +   13Au  )
 NUMBER OF INNER CORE ORBITALS:     0   (    0Ag  +    0B3u +    0B2u +    0B1g +    0B1u +    0B2g +    0B3g +    0Au  )
 NUMBER OF OUTER CORE ORBITALS:     3   (    2Ag  +    0B3u +    0B2u +    0B1g +    1B1u +    0B2g +    0B3g +    0Au  )
 NUMBER OF VALENCE ORBITALS:       12   (    3Ag  +    2B3u +    2B2u +    0B1g +    3B1u +    1B2g +    1B3g +    0Au  )


 NUCLEAR REPULSION ENERGY   58.37208888

 EXTRA SYMMETRY OF AOS IN SYMMETRY 1:   1 1 1 1 1 1 1 1 1 1   1 1 1 1 1 1 2 1 2 1   2 1 2 1 2 1 2 1 2 1   2 1 3 2 1 1 1 1 1 1
                                        1 1 1 2 1 2 1 2 1 2   1 2 1 3 2
 EXTRA SYMMETRY OF AOS IN SYMMETRY 2:   1 1 1 1 1 1 1 1 1 1   1 1 1 2 1 2 1 2 1 2   1 1 1 1 1 1 1 1 2 1   2 1 2
 EXTRA SYMMETRY OF AOS IN SYMMETRY 3:   1 1 1 1 1 1 1 1 1 1   1 1 1 2 1 2 1 2 1 2   1 1 1 1 1 1 1 1 2 1   2 1 2
 EXTRA SYMMETRY OF AOS IN SYMMETRY 4:   1 1 1 1 1 1 1 1 1 2   1 1 1 1 1 1 2
 EXTRA SYMMETRY OF AOS IN SYMMETRY 5:   1 1 1 1 1 1 1 1 1 1   1 1 1 1 1 1 2 1 2 1   2 1 2 1 2 1 2 1 2 1   2 1 3 2 1 1 1 1 1 1
                                        1 1 2 1 2 1 2
 EXTRA SYMMETRY OF AOS IN SYMMETRY 6:   1 1 1 1 1 1 1 1 1 1   1 1 1 2 1 2 1 2 1 2   1 1 1 1 1 1 2
 EXTRA SYMMETRY OF AOS IN SYMMETRY 7:   1 1 1 1 1 1 1 1 1 1   1 1 1 2 1 2 1 2 1 2   1 1 1 1 1 1 2
 EXTRA SYMMETRY OF AOS IN SYMMETRY 8:   1 1 1 1 1 1 1 1 1 2   1 1 1

 Eigenvalues of metric

         1 0.257E-04 0.270E-04 0.342E-03 0.112E-02 0.118E-02 0.191E-02 0.553E-02 0.747E-02
         2 0.140E-02 0.249E-02 0.501E-02 0.481E-01 0.894E-01 0.123E+00 0.131E+00 0.145E+00
         3 0.140E-02 0.249E-02 0.501E-02 0.481E-01 0.894E-01 0.123E+00 0.131E+00 0.145E+00
         4 0.100E+00 0.135E+00 0.199E+00 0.379E+00 0.458E+00 0.562E+00 0.692E+00 0.922E+00
         5 0.259E-04 0.262E-03 0.789E-03 0.147E-02 0.192E-02 0.421E-02 0.844E-02 0.424E-01
         6 0.228E-02 0.420E-02 0.252E-01 0.105E+00 0.119E+00 0.155E+00 0.246E+00 0.312E+00
         7 0.228E-02 0.420E-02 0.252E-01 0.105E+00 0.119E+00 0.155E+00 0.246E+00 0.312E+00
         8 0.862E-01 0.183E+00 0.414E+00 0.461E+00 0.689E+00 0.937E+00 0.100E+01 0.100E+01


 Contracted 2-electron integrals neglected if value below      1.0D-12
 AO integral compression algorithm  1   Integral accuracy      1.0D-12

     306.446 MB (compressed) written to integral file ( 41.6%)


 NUMBER OF SORTED TWO-ELECTRON INTEGRALS:   65449763.     BUFFER LENGTH:  32768
 NUMBER OF SEGMENTS:   5  SEGMENT LENGTH:   15998862      RECORD LENGTH: 524288

 Memory used in sort:      16.56 MW

 SORT1 READ    92054103. AND WROTE    45783662. INTEGRALS IN    134 RECORDS. CPU TIME:     1.73 SEC, REAL TIME:     2.19 SEC
 SORT2 READ    45783662. AND WROTE    65449763. INTEGRALS IN   1169 RECORDS. CPU TIME:     0.75 SEC, REAL TIME:     0.89 SEC

 FILE SIZES:   FILE 1:   337.9 MBYTE,  FILE 4:   562.1 MBYTE,   TOTAL:    900.0 MBYTE

 OPERATOR DM      FOR CENTER  0  COORDINATES:    0.000000    0.000000    0.000000


 **********************************************************************************************************************************
 DATASETS  * FILE   NREC   LENGTH (MB)   RECORD NAMES
              1      19      246.88       500      610      700      900      950      970     1000      129      960     1100   
                                          VAR    BASINP    GEOM    SYMINP    ZMAT    AOBASIS   BASIS     P2S    ABASIS      S 
                                         1400     1410     1200     1210     1080     1600     1650     1300     1700   
                                           T        V       H0       H01     AOSYM     SMH    MOLCAS    ERIS     OPER   

 PROGRAMS   *        TOTAL       INT
 CPU TIMES  *         7.65      7.56
 REAL TIME  *        12.52 SEC
 DISK USED  *       858.74 MB
 **********************************************************************************************************************************


 Program * Restricted Hartree-Fock

 Orbital guess generated from atomic densities. Full valence occupancy:    5   2   2   0   4   1   1   0


 Initial occupancy:   4   1   1   0   3   1   1   0

 NELEC=   22   SYM=1   MS2= 0   THRE=1.0D-08   THRD=3.2D-06   THRG=3.2D-06  HFMA2=F  DIIS_START=2   DIIS_MAX=10   DIIS_INCORE=F

 Level shifts:    0.00 (CLOSED)    0.00 (OPEN)    0.30 (GAP_MIN)

 ITER           ETOT              DE          GRAD        DDIFF     DIIS  NEXP   TIME(IT)  TIME(TOT)  DIAG
   1     -187.65075761    -187.65075761     0.00D+00     0.90D-01     0     0       0.09      0.18    start
   2     -187.68923314      -0.03847553     0.15D-01     0.14D-01     1     0       0.10      0.28    diag
   3     -187.72174291      -0.03250976     0.10D-01     0.61D-02     2     0       0.10      0.38    diag
   4     -187.72202420      -0.00028129     0.87D-03     0.68D-03     3     0       0.08      0.46    diag
   5     -187.72205518      -0.00003098     0.26D-03     0.25D-03     4     0       0.10      0.56    diag
   6     -187.72205746      -0.00000228     0.65D-04     0.79D-04     5     0       0.10      0.66    diag
   7     -187.72205752      -0.00000006     0.81D-05     0.11D-04     6     0       0.09      0.75    diag
   8     -187.72205752      -0.00000000     0.15D-05     0.21D-05     7     0       0.09      0.84    fixocc
   9     -187.72205752      -0.00000000     0.20D-06     0.19D-06     0     0       0.09      0.93    diag

 Final occupancy:   4   1   1   0   3   1   1   0

 !RHF STATE 1.1 Energy               -187.722057522488
  RHF One-electron energy            -372.535631245176
  RHF Two-electron energy             126.441484841764
  RHF Kinetic energy                  187.449921119884
  RHF Nuclear energy                   58.372088880924
  RHF Virial quotient                  -1.001451781900

 !RHF STATE 1.1 Dipole moment           0.00000000     0.00000000     0.00000000
 Dipole moment /Debye                   0.00000000     0.00000000     0.00000000

 Orbital energies:

           1.1          2.1          3.1          4.1          5.1          6.1
    -20.649037   -11.458578    -1.530241    -0.800189     0.132676     0.434667

           1.2          2.2          3.2
     -0.715238     0.197931     0.297067

           1.3          2.3          3.3
     -0.715238     0.197931     0.297067

           1.4          2.4
      0.558071     1.460612

           1.5          2.5          3.5          4.5          5.5
    -20.649081    -1.477070    -0.743051     0.263770     0.509858

           1.6          2.6          3.6
     -0.544306     0.514315     1.017665

           1.7          2.7          3.7
     -0.544306     0.514315     1.017665

           1.8          2.8
      1.190259     2.301551


 HOMO      1.7    -0.544306 =     -14.8113eV
 LUMO      5.1     0.132676 =       3.6103eV
 LUMO-HOMO         0.676982 =      18.4216eV

 Orbitals saved in record  2100.2


 **********************************************************************************************************************************
 DATASETS  * FILE   NREC   LENGTH (MB)   RECORD NAMES
              1      19      246.88       500      610      700      900      950      970     1000      129      960     1100   
                                          VAR    BASINP    GEOM    SYMINP    ZMAT    AOBASIS   BASIS     P2S    ABASIS      S 
                                         1400     1410     1200     1210     1080     1600     1650     1300     1700   
                                           T        V       H0       H01     AOSYM     SMH    MOLCAS    ERIS     OPER   

              2       4        0.57       700     1000      520     2100   
                                         GEOM     BASIS   MCVARS     RHF  

 PROGRAMS   *        TOTAL    HF-SCF       INT
 CPU TIMES  *         8.58      0.93      7.56
 REAL TIME  *        14.04 SEC
 DISK USED  *       858.74 MB
 **********************************************************************************************************************************

 Dump information in style XML to xml output                                                                      

 Orbitals will not be exported.

 **********************************************************************************************************************************

 HF/cc-pCVQZ energy=   -187.722057522488

          HF-SCF
   -187.72205752
 **********************************************************************************************************************************
 Molpro calculation terminated
