
 Working directory              : /var/folders/2v/xbgp75_9785319ghcgb4zr4r0000gp/T//molpro.cVObxhgOTw/
 Global scratch directory       : /var/folders/2v/xbgp75_9785319ghcgb4zr4r0000gp/T//molpro.cVObxhgOTw/
 Wavefunction directory         : /Users/sacpjk/wfu/
 Main file repository           : /var/folders/2v/xbgp75_9785319ghcgb4zr4r0000gp/T//molpro.cVObxhgOTw/

 id        : peterk

 Nodes                        nprocs
 Cardiff-University-G34YLXT77Y    1
 GA implementation: MPI file
 GA implementation (serial work in mppx): MPI file

 Using customized tuning parameters: mindgm=1; mindgv=20; mindgc=4; mindgr=1; noblas=0; minvec=7
 default implementation of scratch files=df  


 Variables initialized (1032), CPU time= 0.00 sec
 
 symmetry,nosym
 
 
 geometry={
           16
     H         -1.96835664      1.06706638      1.34307148
     C         -1.11416533      1.01457636      0.68421724
     C          0.22922214      0.72932626      1.09945039
     C         -1.11416533      1.01457636     -0.68421724
     H          1.98243777      0.70630025      0.00000000
     N          1.03477843      1.05782238      0.00000000
     C          0.22922214     -1.33411348      0.70659725
     H          0.61593228      0.86963631      2.10018875
     C          0.22922214     -1.33411348     -0.70659725
     H         -1.96835664      1.06706638     -1.34307148
     C          0.22922214      0.72932626     -1.09945039
     H          0.61593228      0.86963631     -2.10018875
     H         -0.65530617     -1.66353059     -1.23801644
     H         -0.65530617     -1.66353059      1.23801644
     H          1.15484347     -1.56502256      1.22577544
     H          1.15484347     -1.56502256     -1.22577544
 }
 basis=cc-pVDZ
 
 
 
 hf
 
 
 
 {put,xml;noorbitals,nobasis}
 Commands initialized (841), CPU time= 0.00 sec, 704 directives.
 Default parameters read. Elapsed time= 0.46 sec

 Checking input...
 Passed
1


                                         ***  PROGRAM SYSTEM MOLPRO  ***
                                       Copyright, TTI GmbH Stuttgart, 2015
                                    Version 2023.1 linked Tue Jun  6 09:54:11 2023


 **********************************************************************************************************************************
 LABEL *                                                                                                                                                                 
  64 bit serial version                                                                  DATE: 10-Jun-23          TIME: 14:40:09  
 **********************************************************************************************************************************

 SHA1:             8ebb0dd001088a5c915591db1a321413035db0b1
 **********************************************************************************************************************************

 Memory per process:       805 MW
 Total memory per node:   1074 MW
 Total GA space:           268 MW

 GA preallocation disabled
 GA check enabled

 Variable memory set to 805.3 MW

 ZSYMEL=NOSYM


 Geometry recognized as XYZ

 SETTING BASIS          =    CC-PVDZ


 Recomputing integrals since basis changed


 Using spherical harmonics

 Library entry H      S cc-pVDZ              selected for orbital group  1
 Library entry H      P cc-pVDZ              selected for orbital group  1
 Library entry C      S cc-pVDZ              selected for orbital group  2
 Library entry C      P cc-pVDZ              selected for orbital group  2
 Library entry C      D cc-pVDZ              selected for orbital group  2
 Library entry N      S cc-pVDZ              selected for orbital group  4
 Library entry N      P cc-pVDZ              selected for orbital group  4
 Library entry N      D cc-pVDZ              selected for orbital group  4


 PROGRAM * SEWARD (Integral evaluation for generally contracted gaussian basis sets)     Author: Roland Lindh, 1990

 Geometry written to block  1 of record 700


 Point group  C1  



 ATOMIC COORDINATES

 NR  ATOM    CHARGE       X              Y              Z

   1  H       1.00   -3.719654965    2.016463215    2.538037263
   2  C       6.00   -2.105467331    1.917271453    1.292983193
   3  C       6.00    0.433167066    1.378226887    2.077660125
   4  C       6.00   -2.105467331    1.917271453   -1.292983193
   5  H       1.00    3.746264444    1.334714034    0.000000000
   6  N       7.00    1.955447832    1.998994587    0.000000000
   7  C       6.00    0.433167066   -2.521109096    1.335275283
   8  H       1.00    1.163943321    1.643374454    3.968781548
   9  C       6.00    0.433167066   -2.521109096   -1.335275283
  10  H       1.00   -3.719654965    2.016463215   -2.538037263
  11  C       6.00    0.433167066    1.378226887   -2.077660125
  12  H       1.00    1.163943321    1.643374454   -3.968781548
  13  H       1.00   -1.238349189   -3.143617215   -2.339512009
  14  H       1.00   -1.238349189   -3.143617215    2.339512009
  15  H       1.00    2.182337875   -2.957464017    2.316379872
  16  H       1.00    2.182337875   -2.957464017   -2.316379872

 Bond lengths in Bohr (Angstrom)

 1-2  2.040980245  2-3  2.711263826  2-4  2.585966387  3-6  2.649408021  3-7  3.969377327
     ( 1.080040233)     ( 1.434739030)     ( 1.368434480)     ( 1.402006347)     ( 2.100504023)

  3- 8  2.044670487   4-10  2.040980245   4-11  2.711263826   5- 6  1.910050468   6-11  2.649408021
       ( 1.081993026)       ( 1.080040233)       ( 1.434739030)       ( 1.010755179)       ( 1.402006347)

  7- 9  2.670550566   7-14  2.046942684   7-15  2.052454713   9-11  3.969377327   9-13  2.046942684
       ( 1.413194500)       ( 1.083195421)       ( 1.086112261)       ( 2.100504023)       ( 1.083195421)

  9-16  2.052454713  11-12  2.044670487
       ( 1.086112261)       ( 1.081993026)

 Bond angles

  1-2-3  125.00471058   1-2-4  127.59149119   2-3-6  105.33420794   2-3-7   98.11613532

  2- 3- 8  125.20800467   2- 4-10  127.59149119   2- 4-11  106.82285915   3- 2- 4  106.82285915

  3- 6- 5  117.20784605   3- 6-11  103.29310343   3- 7- 9  100.77939428   3- 7-14  101.94620578

  3- 7-15   96.86023435   4-11- 6  105.33420794   4-11- 9   98.11613532   4-11-12  125.20800467

  5- 6-11  117.20784605   6- 3- 7   94.78994231   6- 3- 8  119.31212562   6-11- 9   94.78994231

  6-11-12  119.31212562   7- 3- 8  107.47994432   7- 9-11  100.77939428   7- 9-13  119.38023894

  7- 9-16  118.55585287   9- 7-14  119.38023894   9- 7-15  118.55585287   9-11-12  107.47994432

 10- 4-11  125.00471058  11- 9-13  101.94620578  11- 9-16   96.86023435  13- 9-16  113.37550239

 14- 7-15  113.37550239

 NUCLEAR CHARGE:                   52
 NUMBER OF PRIMITIVE AOS:         252
 NUMBER OF SYMMETRY AOS:          245
 NUMBER OF CONTRACTIONS:          143   (  143A   )
 NUMBER OF INNER CORE ORBITALS:     0   (    0A   )
 NUMBER OF OUTER CORE ORBITALS:     7   (    7A   )
 NUMBER OF VALENCE ORBITALS:       37   (   37A   )


 NUCLEAR REPULSION ENERGY  301.85518202


 Eigenvalues of metric

         1 0.672E-03 0.238E-02 0.257E-02 0.477E-02 0.677E-02 0.108E-01 0.110E-01 0.135E-01


 Contracted 2-electron integrals neglected if value below      1.0D-11
 AO integral compression algorithm  1   Integral accuracy      1.0D-11

     227.803 MB (compressed) written to integral file ( 50.1%)


 NUMBER OF SORTED TWO-ELECTRON INTEGRALS:   53008956.     BUFFER LENGTH:  32768
 NUMBER OF SEGMENTS:   4  SEGMENT LENGTH:   15999503      RECORD LENGTH: 524288

 Memory used in sort:      16.56 MW

 SORT1 READ    56856372. AND WROTE    51161311. INTEGRALS IN    148 RECORDS. CPU TIME:     0.42 SEC, REAL TIME:     0.61 SEC
 SORT2 READ    51161311. AND WROTE    53008956. INTEGRALS IN    869 RECORDS. CPU TIME:     0.37 SEC, REAL TIME:     0.50 SEC

 FILE SIZES:   FILE 1:   258.8 MBYTE,  FILE 4:   620.8 MBYTE,   TOTAL:    879.7 MBYTE

 OPERATOR DM      FOR CENTER  0  COORDINATES:    0.000000    0.000000    0.000000


 **********************************************************************************************************************************
 DATASETS  * FILE   NREC   LENGTH (MB)   RECORD NAMES
              1      19      229.24       500      610      700      900      950      970     1000      129      960     1100   
                                          VAR    BASINP    GEOM    SYMINP    ZMAT    AOBASIS   BASIS     P2S    ABASIS      S 
                                         1400     1410     1200     1210     1080     1600     1650     1300     1700   
                                           T        V       H0       H01     AOSYM     SMH    MOLCAS    ERIS     OPER   

 PROGRAMS   *        TOTAL       INT
 CPU TIMES  *         3.39      3.30
 REAL TIME  *         5.36 SEC
 DISK USED  *       839.51 MB
 **********************************************************************************************************************************


 Program * Restricted Hartree-Fock

 Orbital guess generated from atomic densities. Full valence occupancy:   44

 Initial occupancy:  26

 NELEC=   52   SYM=1   MS2= 0   THRE=1.0D-08   THRD=3.2D-06   THRG=3.2D-06  HFMA2=F  DIIS_START=2   DIIS_MAX=10   DIIS_INCORE=F

 Level shifts:    0.00 (CLOSED)    0.00 (OPEN)    0.30 (GAP_MIN)

 ITER           ETOT              DE          GRAD        DDIFF     DIIS  NEXP   TIME(IT)  TIME(TOT)  DIAG
   1     -286.71052194    -286.71052194     0.00D+00     0.90D-01     0     0       0.22      0.43    start
   2     -286.77822586      -0.06770393     0.41D-02     0.93D-02     1     0       0.22      0.65    diag
   3     -286.78830015      -0.01007429     0.18D-02     0.33D-02     2     0       0.23      0.88    diag
   4     -286.78981211      -0.00151196     0.55D-03     0.12D-02     3     0       0.23      1.11    diag
   5     -286.78989743      -0.00008532     0.14D-03     0.25D-03     4     0       0.22      1.33    diag
   6     -286.78991923      -0.00002180     0.45D-04     0.14D-03     5     0       0.22      1.55    diag
   7     -286.78992378      -0.00000455     0.18D-04     0.56D-04     6     0       0.23      1.78    diag
   8     -286.78992466      -0.00000088     0.71D-05     0.29D-04     7     0       0.22      2.00    fixocc
   9     -286.78992474      -0.00000007     0.24D-05     0.71D-05     8     0       0.22      2.22    diag
  10     -286.78992475      -0.00000001     0.99D-06     0.33D-05     9     0       0.22      2.44    diag/orth
  11     -286.78992475      -0.00000000     0.28D-06     0.99D-06     9     0       0.21      2.65    diag
  12     -286.78992475      -0.00000000     0.98D-07     0.20D-06     0     0       0.23      2.88    diag

 Final occupancy:  26

 !RHF STATE 1.1 Energy               -286.789924751904
  RHF One-electron energy            -985.793823388902
  RHF Two-electron energy             397.148716618324
  RHF Kinetic energy                  286.418370508736
  RHF Nuclear energy                  301.855182018674
  RHF Virial quotient                  -1.001297243059

 !RHF STATE 1.1 Dipole moment           0.26031736    -0.04052727    -0.00000000
 Dipole moment /Debye                   0.66166072    -0.10301004    -0.00000000

 Orbital energies:

           1.1          2.1          3.1          4.1          5.1          6.1          7.1          8.1          9.1         10.1
    -15.573911   -11.273473   -11.273433   -11.223890   -11.222512   -11.217694   -11.216626    -1.276142    -1.048296    -0.998718

          11.1         12.1         13.1         14.1         15.1         16.1         17.1         18.1         19.1         20.1
     -0.967032    -0.790383    -0.780446    -0.749277    -0.726266    -0.610698    -0.596774    -0.575988    -0.557515    -0.540817

          21.1         22.1         23.1         24.1         25.1         26.1         27.1         28.1
     -0.534437    -0.529883    -0.481277    -0.368747    -0.316871    -0.297072     0.161837     0.162206


 HOMO     26.1    -0.297072 =      -8.0837eV
 LUMO     27.1     0.161837 =       4.4038eV
 LUMO-HOMO         0.458909 =      12.4875eV

 Orbitals saved in record  2100.2


 **********************************************************************************************************************************
 DATASETS  * FILE   NREC   LENGTH (MB)   RECORD NAMES
              1      19      229.24       500      610      700      900      950      970     1000      129      960     1100   
                                          VAR    BASINP    GEOM    SYMINP    ZMAT    AOBASIS   BASIS     P2S    ABASIS      S 
                                         1400     1410     1200     1210     1080     1600     1650     1300     1700   
                                           T        V       H0       H01     AOSYM     SMH    MOLCAS    ERIS     OPER   

              2       4        0.96       700     1000      520     2100   
                                         GEOM     BASIS   MCVARS     RHF  

 PROGRAMS   *        TOTAL    HF-SCF       INT
 CPU TIMES  *         6.27      2.88      3.30
 REAL TIME  *         9.21 SEC
 DISK USED  *       839.51 MB
 **********************************************************************************************************************************

 Dump information in style XML to xml output                                                                      

 Orbitals will not be exported.

 **********************************************************************************************************************************

 HF/cc-pVDZ energy=   -286.789924751904

          HF-SCF
   -286.78992475
 **********************************************************************************************************************************
 Molpro calculation terminated
