
 Working directory              : /var/folders/2v/xbgp75_9785319ghcgb4zr4r0000gp/T//molpro.1nevthlcBd/
 Global scratch directory       : /var/folders/2v/xbgp75_9785319ghcgb4zr4r0000gp/T//molpro.1nevthlcBd/
 Wavefunction directory         : /Users/sacpjk/wfu/
 Main file repository           : /var/folders/2v/xbgp75_9785319ghcgb4zr4r0000gp/T//molpro.1nevthlcBd/

 id        : peterk

 Nodes                        nprocs
 Cardiff-University-G34YLXT77Y    1
 GA implementation: MPI file
 GA implementation (serial work in mppx): MPI file

 Using customized tuning parameters: mindgm=1; mindgv=20; mindgc=4; mindgr=1; noblas=0; minvec=7
 default implementation of scratch files=df  


 Variables initialized (1032), CPU time= 0.00 sec
 
 symmetry,nosym
 
 
 geometry={
            4
     C          0.00000000      0.00000000     -0.61465700
     H          0.00000000      0.00000000     -1.67439300
     N          0.00000000      0.00000000      0.54494500
     O          0.00000000      0.00000000      1.74410500
 }
 basis=cc-pVTZ
 
 
 
 hf; hf; papt; mp4
 
 
 
 {put,xml;noorbitals,nobasis}
 Commands initialized (841), CPU time= 0.01 sec, 704 directives.
 Default parameters read. Elapsed time= 1.04 sec

 Checking input...
 Passed
1


                                         ***  PROGRAM SYSTEM MOLPRO  ***
                                       Copyright, TTI GmbH Stuttgart, 2015
                                    Version 2023.1 linked Tue Jun  6 09:54:11 2023


 **********************************************************************************************************************************
 LABEL *                                                                                                                                                                 
  64 bit serial version                                                                  DATE: 11-Jun-23          TIME: 18:03:04  
 **********************************************************************************************************************************

 SHA1:             8ebb0dd001088a5c915591db1a321413035db0b1
 **********************************************************************************************************************************

 Memory per process:       393 MW
 Total memory per node:    524 MW
 Total GA space:           131 MW

 GA preallocation disabled
 GA check enabled

 Variable memory set to 393.2 MW

 ZSYMEL=NOSYM


 Geometry recognized as XYZ

 SETTING BASIS          =    CC-PVTZ


 Recomputing integrals since basis changed


 Using spherical harmonics

 Library entry C      S cc-pVTZ              selected for orbital group  1
 Library entry C      P cc-pVTZ              selected for orbital group  1
 Library entry C      D cc-pVTZ              selected for orbital group  1
 Library entry C      F cc-pVTZ              selected for orbital group  1
 Library entry H      S cc-pVTZ              selected for orbital group  2
 Library entry H      P cc-pVTZ              selected for orbital group  2
 Library entry H      D cc-pVTZ              selected for orbital group  2
 Library entry N      S cc-pVTZ              selected for orbital group  3
 Library entry N      P cc-pVTZ              selected for orbital group  3
 Library entry N      D cc-pVTZ              selected for orbital group  3
 Library entry N      F cc-pVTZ              selected for orbital group  3
 Library entry O      S cc-pVTZ              selected for orbital group  4
 Library entry O      P cc-pVTZ              selected for orbital group  4
 Library entry O      D cc-pVTZ              selected for orbital group  4
 Library entry O      F cc-pVTZ              selected for orbital group  4


 PROGRAM * SEWARD (Integral evaluation for generally contracted gaussian basis sets)     Author: Roland Lindh, 1990

 Geometry written to block  1 of record 700


 Point group  C1  



 ATOMIC COORDINATES

 NR  ATOM    CHARGE       X              Y              Z

   1  C       6.00    0.000000000    0.000000000   -1.161533391
   2  H       1.00    0.000000000    0.000000000   -3.164144195
   3  N       7.00    0.000000000    0.000000000    1.029796803
   4  O       8.00    0.000000000    0.000000000    3.295880783

 Bond lengths in Bohr (Angstrom)

 1-2  2.002610804  1-3  2.191330194  3-4  2.266083980
     ( 1.059736000)     ( 1.159602000)     ( 1.199160000)

 Bond angles

  1-3-4  179.99999852   2-1-3  179.99999879

 NUCLEAR CHARGE:                   22
 NUMBER OF PRIMITIVE AOS:         158
 NUMBER OF SYMMETRY AOS:          142
 NUMBER OF CONTRACTIONS:          104   (  104A   )
 NUMBER OF INNER CORE ORBITALS:     0   (    0A   )
 NUMBER OF OUTER CORE ORBITALS:     3   (    3A   )
 NUMBER OF VALENCE ORBITALS:       13   (   13A   )


 NUCLEAR REPULSION ENERGY   60.55079965

 EXTRA SYMMETRY OF AOS IN SYMMETRY 1:   1 1 1 1 2 3 1 2 3 1   2 3 1 1 4 2 5 3 1 4   2 5 3 2 3 1 6 4 7 5   1 1 1 2 3 1 2 3 1 1
                                        4 2 5 3 1 1 1 1 2 3   1 2 3 1 2 3 1 1 4 2   5 3 1 4 2 5 3 2 3 1   6 4 7 5 1 1 1 1 2 3
                                        1 2 3 1 2 3 1 1 4 2   5 3 1 4 2 5 3 2 3 1   6 4 7 5

 Eigenvalues of metric

         1 0.759E-03 0.128E-02 0.170E-02 0.220E-02 0.367E-02 0.610E-02 0.110E-01 0.136E-01


 Contracted 2-electron integrals neglected if value below      1.0D-11
 AO integral compression algorithm  1   Integral accuracy      1.0D-11

     20.185 MB (compressed) written to integral file ( 14.0%)


 NUMBER OF SORTED TWO-ELECTRON INTEGRALS:   14908530.     BUFFER LENGTH:  32768
 NUMBER OF SEGMENTS:   1  SEGMENT LENGTH:   14908530      RECORD LENGTH: 524288

 Memory used in sort:      15.47 MW

 SORT1 READ    18266260. AND WROTE     3049656. INTEGRALS IN      9 RECORDS. CPU TIME:     0.08 SEC, REAL TIME:     0.09 SEC
 SORT2 READ     3049656. AND WROTE    14908530. INTEGRALS IN     77 RECORDS. CPU TIME:     0.13 SEC, REAL TIME:     0.13 SEC

 FILE SIZES:   FILE 1:    50.6 MBYTE,  FILE 4:    37.8 MBYTE,   TOTAL:     88.4 MBYTE

 OPERATOR DM      FOR CENTER  0  COORDINATES:    0.000000    0.000000    0.000000


 **********************************************************************************************************************************
 DATASETS  * FILE   NREC   LENGTH (MB)   RECORD NAMES
              1      19       43.54       500      610      700      900      950      970     1000      129      960     1100   
                                          VAR    BASINP    GEOM    SYMINP    ZMAT    AOBASIS   BASIS     P2S    ABASIS      S 
                                         1400     1410     1200     1210     1080     1600     1650     1300     1700   
                                           T        V       H0       H01     AOSYM     SMH    MOLCAS    ERIS     OPER   

 PROGRAMS   *        TOTAL       INT
 CPU TIMES  *         0.81      0.70
 REAL TIME  *         4.29 SEC
 DISK USED  *        84.74 MB
 **********************************************************************************************************************************


 Program * Restricted Hartree-Fock

 Orbital guess generated from atomic densities. Full valence occupancy:   16

 Initial occupancy:  11

 NELEC=   22   SYM=1   MS2= 0   THRE=1.0D-08   THRD=3.2D-06   THRG=3.2D-06  HFMA2=F  DIIS_START=2   DIIS_MAX=10   DIIS_INCORE=F

 Level shifts:    0.00 (CLOSED)    0.00 (OPEN)    0.30 (GAP_MIN)

 ITER           ETOT              DE          GRAD        DDIFF     DIIS  NEXP   TIME(IT)  TIME(TOT)  DIAG
   1     -167.63971309    -167.63971309     0.00D+00     0.82D-01     0     0       0.06      0.12    start
   2     -167.66869190      -0.02897881     0.84D-02     0.10D-01     1     0       0.07      0.19    diag
   3     -167.69359133      -0.02489943     0.60D-02     0.49D-02     2     0       0.06      0.25    diag
   4     -167.69422021      -0.00062888     0.83D-03     0.88D-03     3     0       0.07      0.32    diag
   5     -167.69432965      -0.00010944     0.28D-03     0.44D-03     4     0       0.06      0.38    diag
   6     -167.69436687      -0.00003723     0.19D-03     0.19D-03     5     0       0.06      0.44    diag
   7     -167.69437042      -0.00000355     0.37D-04     0.77D-04     6     0       0.07      0.51    diag
   8     -167.69437057      -0.00000015     0.90D-05     0.16D-04     7     0       0.06      0.57    fixocc
   9     -167.69437058      -0.00000001     0.19D-05     0.33D-05     8     0       0.07      0.64    diag
  10     -167.69437058      -0.00000000     0.20D-06     0.37D-06     9     0       0.06      0.70    diag/orth
  11     -167.69437058      -0.00000000     0.25D-07     0.31D-07     0     0       0.07      0.77    diag

 Final occupancy:  11

 !RHF STATE 1.1 Energy               -167.694370578182
  RHF One-electron energy            -348.260211054535
  RHF Two-electron energy             120.015040826168
  RHF Kinetic energy                  167.384421751828
  RHF Nuclear energy                   60.550799650184
  RHF Virial quotient                  -1.001851718476

 !RHF STATE 1.1 Dipole moment          -0.00000000    -0.00000000    -1.64222183
 Dipole moment /Debye                  -0.00000000    -0.00000000    -4.17411153

 Orbital energies:

           1.1          2.1          3.1          4.1          5.1          6.1          7.1          8.1          9.1         10.1
    -20.580797   -15.760200   -11.315959    -1.511837    -1.227551    -0.817916    -0.730694    -0.679061    -0.679061    -0.405994

          11.1         12.1         13.1
     -0.405994     0.133532     0.157487


 HOMO     11.1    -0.405994 =     -11.0477eV
 LUMO     12.1     0.133532 =       3.6336eV
 LUMO-HOMO         0.539526 =      14.6812eV

 Orbitals saved in record  2100.2


 **********************************************************************************************************************************
 DATASETS  * FILE   NREC   LENGTH (MB)   RECORD NAMES
              1      19       43.54       500      610      700      900      950      970     1000      129      960     1100   
                                          VAR    BASINP    GEOM    SYMINP    ZMAT    AOBASIS   BASIS     P2S    ABASIS      S 
                                         1400     1410     1200     1210     1080     1600     1650     1300     1700   
                                           T        V       H0       H01     AOSYM     SMH    MOLCAS    ERIS     OPER   

              2       4        0.61       700     1000      520     2100   
                                         GEOM     BASIS   MCVARS     RHF  

 PROGRAMS   *        TOTAL    HF-SCF       INT
 CPU TIMES  *         1.58      0.77      0.70
 REAL TIME  *         5.55 SEC
 DISK USED  *        84.74 MB
 **********************************************************************************************************************************


 Program * Restricted Hartree-Fock

 Molecular orbitals read from record     2100.2  Type=RHF/CANONICAL  

 Initial occupancy:  11

 NELEC=   22   SYM=1   MS2= 0   THRE=1.0D-08   THRD=3.2D-06   THRG=3.2D-06  HFMA2=F  DIIS_START=2   DIIS_MAX=10   DIIS_INCORE=F

 Level shifts:    0.00 (CLOSED)    0.00 (OPEN)    0.30 (GAP_MIN)

 ITER           ETOT              DE          GRAD        DDIFF     DIIS  NEXP   TIME(IT)  TIME(TOT)  DIAG
   1     -167.69437058    -167.69437058     0.00D+00     0.84D-01     0     0       0.07      0.07    start
   2     -167.69437058       0.00000000     0.99D-08     0.15D-07     1     0       0.06      0.13    diag

 Final occupancy:  11

 !RHF STATE 1.1 Energy               -167.694370578182
  RHF One-electron energy            -348.260212758674
  RHF Two-electron energy             120.015042530308
  RHF Kinetic energy                  167.384422405039
  RHF Nuclear energy                   60.550799650184
  RHF Virial quotient                  -1.001851714566

 !RHF STATE 1.1 Dipole moment           0.00000000    -0.00000000    -1.64222231
 Dipole moment /Debye                   0.00000000    -0.00000000    -4.17411276

 Orbital energies:

           1.1          2.1          3.1          4.1          5.1          6.1          7.1          8.1          9.1         10.1
    -20.580797   -15.760201   -11.315959    -1.511837    -1.227552    -0.817916    -0.730694    -0.679061    -0.679061    -0.405994

          11.1         12.1         13.1
     -0.405994     0.133532     0.157487


 HOMO     11.1    -0.405994 =     -11.0477eV
 LUMO     12.1     0.133532 =       3.6336eV
 LUMO-HOMO         0.539526 =      14.6812eV

 Orbitals saved in record  2101.2


 **********************************************************************************************************************************
 DATASETS  * FILE   NREC   LENGTH (MB)   RECORD NAMES
              1      19       43.54       500      610      700      900      950      970     1000      129      960     1100   
                                          VAR    BASINP    GEOM    SYMINP    ZMAT    AOBASIS   BASIS     P2S    ABASIS      S 
                                         1400     1410     1200     1210     1080     1600     1650     1300     1700   
                                           T        V       H0       H01     AOSYM     SMH    MOLCAS    ERIS     OPER   

              2       5        1.00       700     1000      520     2100     2101   
                                         GEOM     BASIS   MCVARS     RHF      RHF  

 PROGRAMS   *        TOTAL    HF-SCF    HF-SCF       INT
 CPU TIMES  *         1.72      0.14      0.77      0.70
 REAL TIME  *         6.24 SEC
 DISK USED  *        84.74 MB
 **********************************************************************************************************************************


 PROGRAM * PAPT (Closed-shell)     Authors: C. Hampel, H.-J. Werner, 1991, P.J. Knowles, 2021


 Convergence thresholds:  THRVAR = 1.00D-08  THRDEN = 1.00D-06

 Number of core orbitals:           3 (   3 )
 Number of closed-shell orbitals:   8 (   8 )
 Number of external orbitals:      93 (  93 )

 Molecular orbitals read from record     2101.2  Type=RHF/CANONICAL  

 Number of N-1 electron functions:               8
 Number of N-2 electron functions:              36
 Number of singly external CSFs:               744
 Number of doubly external CSFs:            277140
 Total number of CSFs:                      277885

 Length of J-op  integral file:               0.00 MB
 Length of K-op  integral file:               0.81 MB

 Integral transformation finished. Total CPU:   0.11 sec, npass=  1  Memory used:   0.89 MW

 Reference energy:                   -167.69437058

                        CORR.ENERGY   TOTAL ENERGY   ENERGY CHANGE
 MP2:                   -0.60384029  -168.29821086    -0.60384029

 SCS-MP2 correlation energy:           -0.58625443   (PS=  1.200000  PT=  0.333333)
 SCS-MP2 total energy:               -168.28062501
 Iteration:   1     0.3232D+00
 Iteration:   2     0.5571D+00
 Iteration:   3     0.1553D+00
 Iteration:   4     0.9636D-01
 Iteration:   5     0.4217D-01
 Iteration:   6     0.1783D-01
 Iteration:   7     0.3334D-01
 Iteration:   8     0.6393D-02
 Iteration:   9     0.1256D-01
 Iteration:  10     0.2508D-02
 Iteration:  11     0.1669D-02
 Iteration:  12     0.1400D-02
 Iteration:  13     0.3855D-03
 Iteration:  14     0.1420D-02
 Iteration:  15     0.1019D-03
 Iteration:  16     0.1367D-03
 Iteration:  17     0.4731D-04
 PAPT operator written to  7000.1
 PAPT orbitals and eigenvalues written to  7000.2

 MP3(D):                -0.58565145  -168.28002202     0.01818884



 RESULTS
 =======

  Reference energy                   -167.694370578182
  MP3 singlet pair energy              -0.380104259390
  MP3 triplet pair energy              -0.205547185758
  MP3 correlation energy               -0.585651445148

 !MP3 total energy                   -168.280022023331

 Timing summary (sec):

 STEP                 CPU(USER)    SYS     CPU(TOT)    WALL
 Transformation          0.12      0.02      0.14      0.41
 CCSD iterations         2.64      0.05      2.69      2.58

 Program statistics:

 Available memory in ccsd:               393215733
 Min. memory needed in ccsd:                862184
 Max. memory used in ccsd:                 1087764
 Max. memory used in cckext:                876418 ( 1 integral passes)



 **********************************************************************************************************************************
 DATASETS  * FILE   NREC   LENGTH (MB)   RECORD NAMES
              1      21       48.22       500      610      700      900      950      970     1000      129      960     1100   
                                          VAR    BASINP    GEOM    SYMINP    ZMAT    AOBASIS   BASIS     P2S    ABASIS      S 
                                         1400     1410     1200     1210     1080     1600     1650     1300     1700     1380   
                                           T        V       H0       H01     AOSYM     SMH    MOLCAS    ERIS     OPER     JKOP   
                                         7000   
                                        PAPT AO    

              2       6        1.34       700     1000      520     2100     2101     7000   
                                         GEOM     BASIS   MCVARS     RHF      RHF     PAPT   

 PROGRAMS   *        TOTAL      PAPT    HF-SCF    HF-SCF       INT
 CPU TIMES  *         2.65      0.91      0.14      0.77      0.70
 REAL TIME  *         9.58 SEC
 DISK USED  *        84.74 MB
 **********************************************************************************************************************************


 PROGRAM * MP4 (Closed-shell)     Authors: C. Hampel, H.-J. Werner, 1991, M. Deegan, P.J. Knowles, 1992


 Convergence thresholds:  THRVAR = 1.00D-08  THRDEN = 1.00D-06

 MP4(T)     terms to be evaluated (factor= 0.000)


 Number of core orbitals:           3 (   3 )
 Number of closed-shell orbitals:   8 (   8 )
 Number of external orbitals:      93 (  93 )

 Molecular orbitals read from record     7000.2  Type=PAPT/CANONICAL (state 1.1)

 Number of N-1 electron functions:               8
 Number of N-2 electron functions:              36
 Number of singly external CSFs:               744
 Number of doubly external CSFs:            277140
 Total number of CSFs:                      277885

 Length of J-op  integral file:               0.00 MB
 Length of K-op  integral file:               0.81 MB

 Memory could be reduced to 9.31 Mwords without degradation in triples

 Integral transformation finished. Total CPU:   0.31 sec, npass=  1  Memory used:   6.00 MW
 Orbital energies read from record       7000.2  Type=PAPT/CANONICAL (state 1.1)

 Reference energy:                   -167.69437058

                        CORR.ENERGY   TOTAL ENERGY   ENERGY CHANGE
 MP2:                   -0.59280050  -168.28717108    -0.59280050

 SCS-MP2 correlation energy:           -0.57855381   (PS=  1.200000  PT=  0.333333)
 SCS-MP2 total energy:               -168.27292438

 MP3(D):                -0.59301124  -168.28738182    -0.00021074
 MP4(DQ):               -0.58586879  -168.28023937     0.00714245
 MP4(SDQ):              -0.59387989  -168.28825047    -0.00801109

 Norm of t1 vector:      0.07841986      S-energy:    -0.00801109      T1 diagnostic:  0.01386280

 Largest off-diagonal element in interal  block of Fock matrix:  0.18D+00
 Largest off-diagonal element in external block of Fock matrix:  0.47D+00


 Total CPU time for triples:      3.07 sec


 RESULTS
 =======

  Reference energy                   -167.694370578182
  MP4(SDQ) singlet pair energy         -0.377041884636
  MP4(SDQ) triplet pair energy         -0.208826909805
  MP4(SDQ) correlation energy          -0.593879888874

  Triples contribution                 -0.034212682607
  Total correlation energy             -0.628092571481

  MP4(SDQ) total energy              -168.288250467056
 !MP4(SDTQ) total energy             -168.322463149663

 Timing summary (sec):

 STEP                 CPU(USER)    SYS     CPU(TOT)    WALL
 Transformation          0.39      0.04      0.43      0.81
 CCSD iterations         3.18      0.01      3.19      0.81
 Triples                 3.07      0.15      3.22      3.36

 Program statistics:

 Available memory in ccsd:               393215733
 Min. memory needed in ccsd:                862184
 Max. memory used in ccsd:                 1087764
 Max. memory used in cckext:                876418 ( 1 integral passes)



 **********************************************************************************************************************************
 DATASETS  * FILE   NREC   LENGTH (MB)   RECORD NAMES
              1      22       73.03       500      610      700      900      950      970     1000      129      960     1100   
                                          VAR    BASINP    GEOM    SYMINP    ZMAT    AOBASIS   BASIS     P2S    ABASIS      S 
                                         1400     1410     1200     1210     1080     1600     1650     1300     1700     1380   
                                           T        V       H0       H01     AOSYM     SMH    MOLCAS    ERIS     OPER     JKOP   
                                         7000     1380(1)
                                        PAPT AO   JKOP   

              2       6        1.34       700     1000      520     2100     2101     7000   
                                         GEOM     BASIS   MCVARS     RHF      RHF     PAPT   

 PROGRAMS   *        TOTAL       MP4      PAPT    HF-SCF    HF-SCF       INT
 CPU TIMES  *         6.53      3.88      0.91      0.14      0.77      0.70
 REAL TIME  *        15.02 SEC
 DISK USED  *       116.26 MB
 **********************************************************************************************************************************

 Dump information in style XML to xml output                                                                      

 Orbitals will not be exported.

 **********************************************************************************************************************************

 MP4/cc-pVTZ energy=   -168.322463149663

             MP4            PAPT          HF-SCF          HF-SCF
   -168.32246315   -168.28002202   -167.69437058   -167.69437058
 **********************************************************************************************************************************
 Molpro calculation terminated
