
 Working directory              : /var/folders/2v/xbgp75_9785319ghcgb4zr4r0000gp/T//molpro.IRY0aja544/
 Global scratch directory       : /var/folders/2v/xbgp75_9785319ghcgb4zr4r0000gp/T//molpro.IRY0aja544/
 Wavefunction directory         : /Users/sacpjk/wfu/
 Main file repository           : /var/folders/2v/xbgp75_9785319ghcgb4zr4r0000gp/T//molpro.IRY0aja544/

 id        : peterk

 Nodes                        nprocs
 Cardiff-University-G34YLXT77Y    1
 GA implementation: MPI file
 GA implementation (serial work in mppx): MPI file

 Using customized tuning parameters: mindgm=1; mindgv=20; mindgc=4; mindgr=1; noblas=0; minvec=7
 default implementation of scratch files=df  


 Variables initialized (1032), CPU time= 0.01 sec
 
 symmetry,nosym
 
 
 geometry={
 7
  n         -0.229345409277   -0.708649435882   -0.535982633208
  h          0.066923260748   -0.434111700981   -1.463967876502
  h          0.394204257637   -1.456339751910   -0.260787770234
  c         -0.069115433328    0.426561156949    0.377692670847
  h         -0.339305737415    0.111865376710    1.383345779611
  h          0.938294877758    0.848337716107    0.414664404502
  h         -0.761655816229    1.212336638955    0.085035424878
 }
 basis=aug-cc-pVDZ
 
 
 
 hf; ccsd(t)
 
 
 
 {put,xml;noorbitals,nobasis}
 Commands initialized (841), CPU time= 0.00 sec, 704 directives.
 Default parameters read. Elapsed time= 0.06 sec

 Checking input...
 Passed
1


                                         ***  PROGRAM SYSTEM MOLPRO  ***
                                       Copyright, TTI GmbH Stuttgart, 2015
                                    Version 2023.1 linked Tue Jun  6 09:54:11 2023


 **********************************************************************************************************************************
 LABEL *                                                                                                                                                                 
  64 bit serial version                                                                  DATE: 08-Jun-23          TIME: 21:58:07  
 **********************************************************************************************************************************

 SHA1:             8ebb0dd001088a5c915591db1a321413035db0b1
 **********************************************************************************************************************************

 Memory per process:       805 MW
 Total memory per node:   1074 MW
 Total GA space:           268 MW

 GA preallocation disabled
 GA check enabled

 Variable memory set to 805.3 MW

 ZSYMEL=NOSYM


 Geometry recognized as XYZ

 SETTING BASIS          =    AUG-CC-PVDZ


 Recomputing integrals since basis changed


 Using spherical harmonics

 Library entry N      S aug-cc-pVDZ          selected for orbital group  1
 Library entry N      P aug-cc-pVDZ          selected for orbital group  1
 Library entry N      D aug-cc-pVDZ          selected for orbital group  1
 Library entry H      S aug-cc-pVDZ          selected for orbital group  2
 Library entry H      P aug-cc-pVDZ          selected for orbital group  2
 Library entry C      S aug-cc-pVDZ          selected for orbital group  3
 Library entry C      P aug-cc-pVDZ          selected for orbital group  3
 Library entry C      D aug-cc-pVDZ          selected for orbital group  3


 PROGRAM * SEWARD (Integral evaluation for generally contracted gaussian basis sets)     Author: Roland Lindh, 1990

 Geometry written to block  1 of record 700


 Point group  C1  



 ATOMIC COORDINATES

 NR  ATOM    CHARGE       X              Y              Z

   1  N       7.00   -0.433400011   -1.339153352   -1.012860384
   2  H       1.00    0.126466634   -0.820352222   -2.766498342
   3  H       1.00    0.744938084   -2.752083276   -0.492817462
   4  C       6.00   -0.130609240    0.806083762    0.713735707
   5  H       1.00   -0.641194916    0.211394925    2.614144659
   6  H       1.00    1.773120343    1.603125945    0.783602158
   7  H       1.00   -1.439320894    2.290984218    0.160693664

 Bond lengths in Bohr (Angstrom)

 1-2  1.912551008  1-3  1.911882914  1-4  2.770353514  4-5  2.055701031  4-6  2.065028786
     ( 1.012078408)     ( 1.011724868)     ( 1.466007946)     ( 1.087830138)     ( 1.092766173)

 4-7  2.055118259
     ( 1.087521749)

 Bond angles

  1-4-5  108.96566473   1-4-6  114.88035324   1-4-7  108.79498984   2-1-3  105.63187802

  2-1-4  109.23286160   3-1-4  109.59570301   5-4-6  108.02032202   5-4-7  107.43539387

  6-4-7  108.49916730

 NUCLEAR CHARGE:                   18
 NUMBER OF PRIMITIVE AOS:         129
 NUMBER OF SYMMETRY AOS:          125
 NUMBER OF CONTRACTIONS:           91   (   91A   )
 NUMBER OF INNER CORE ORBITALS:     0   (    0A   )
 NUMBER OF OUTER CORE ORBITALS:     2   (    2A   )
 NUMBER OF VALENCE ORBITALS:       13   (   13A   )


 NUCLEAR REPULSION ENERGY   42.05982948

 Eigenvalues of metric

         1 0.508E-03 0.630E-03 0.709E-03 0.848E-03 0.124E-02 0.130E-02 0.296E-02 0.448E-02


 Contracted 2-electron integrals neglected if value below      1.0D-11
 AO integral compression algorithm  1   Integral accuracy      1.0D-11

     48.234 MB (compressed) written to integral file ( 56.8%)


 NUMBER OF SORTED TWO-ELECTRON INTEGRALS:    8763391.     BUFFER LENGTH:  32768
 NUMBER OF SEGMENTS:   1  SEGMENT LENGTH:    8763391      RECORD LENGTH: 524288

 Memory used in sort:       9.32 MW

 SORT1 READ    10676406. AND WROTE     8692359. INTEGRALS IN     25 RECORDS. CPU TIME:     0.05 SEC, REAL TIME:     0.08 SEC
 SORT2 READ     8692359. AND WROTE     8763391. INTEGRALS IN    184 RECORDS. CPU TIME:     0.10 SEC, REAL TIME:     0.12 SEC

 FILE SIZES:   FILE 1:    78.6 MBYTE,  FILE 4:   104.9 MBYTE,   TOTAL:    183.6 MBYTE

 OPERATOR DM      FOR CENTER  0  COORDINATES:    0.000000    0.000000    0.000000


 **********************************************************************************************************************************
 DATASETS  * FILE   NREC   LENGTH (MB)   RECORD NAMES
              1      19       67.60       500      610      700      900      950      970     1000      129      960     1100   
                                          VAR    BASINP    GEOM    SYMINP    ZMAT    AOBASIS   BASIS     P2S    ABASIS      S 
                                         1400     1410     1200     1210     1080     1600     1650     1300     1700   
                                           T        V       H0       H01     AOSYM     SMH    MOLCAS    ERIS     OPER   

 PROGRAMS   *        TOTAL       INT
 CPU TIMES  *         0.54      0.46
 REAL TIME  *         0.84 SEC
 DISK USED  *       175.49 MB
 **********************************************************************************************************************************


 Program * Restricted Hartree-Fock

 Orbital guess generated from atomic densities. Full valence occupancy:   15

 Initial occupancy:   9

 NELEC=   18   SYM=1   MS2= 0   THRE=1.0D-08   THRD=3.2D-06   THRG=3.2D-06  HFMA2=F  DIIS_START=2   DIIS_MAX=10   DIIS_INCORE=F

 Level shifts:    0.00 (CLOSED)    0.00 (OPEN)    0.30 (GAP_MIN)

 ITER           ETOT              DE          GRAD        DDIFF     DIIS  NEXP   TIME(IT)  TIME(TOT)  DIAG
   1      -95.20178995     -95.20178995     0.00D+00     0.86D-01     0     0       0.04      0.07    start
   2      -95.22667380      -0.02488385     0.55D-02     0.93D-02     1     0       0.03      0.10    diag
   3      -95.23011909      -0.00344530     0.22D-02     0.28D-02     2     0       0.04      0.14    diag
   4      -95.23062115      -0.00050206     0.68D-03     0.11D-02     3     0       0.04      0.18    diag
   5      -95.23064397      -0.00002281     0.13D-03     0.21D-03     4     0       0.04      0.22    diag
   6      -95.23064543      -0.00000146     0.29D-04     0.58D-04     5     0       0.04      0.26    diag
   7      -95.23064553      -0.00000010     0.82D-05     0.15D-04     6     0       0.04      0.30    diag
   8      -95.23064554      -0.00000001     0.22D-05     0.63D-05     7     0       0.04      0.34    fixocc
   9      -95.23064555      -0.00000000     0.56D-06     0.14D-05     8     0       0.03      0.37    diag
  10      -95.23064555      -0.00000000     0.11D-06     0.23D-06     0     0       0.04      0.41    diag/orth

 Final occupancy:   9

 !RHF STATE 1.1 Energy                -95.230645545877
  RHF One-electron energy            -211.388496905228
  RHF Two-electron energy              74.098021874805
  RHF Kinetic energy                   95.083180577324
  RHF Nuclear energy                   42.059829484546
  RHF Virial quotient                  -1.001550904878

 !RHF STATE 1.1 Dipole moment           0.54900056     0.16619564    -0.00756520
 Dipole moment /Debye                   1.39542023     0.42242717    -0.01922881

 Orbital energies:

           1.1          2.1          3.1          4.1          5.1          6.1          7.1          8.1          9.1         10.1
    -15.548635   -11.247792    -1.172487    -0.897364    -0.661805    -0.603980    -0.554635    -0.516649    -0.392880     0.035734

          11.1
      0.051480


 HOMO      9.1    -0.392880 =     -10.6908eV
 LUMO     10.1     0.035734 =       0.9724eV
 LUMO-HOMO         0.428613 =      11.6632eV

 Orbitals saved in record  2100.2


 **********************************************************************************************************************************
 DATASETS  * FILE   NREC   LENGTH (MB)   RECORD NAMES
              1      19       67.60       500      610      700      900      950      970     1000      129      960     1100   
                                          VAR    BASINP    GEOM    SYMINP    ZMAT    AOBASIS   BASIS     P2S    ABASIS      S 
                                         1400     1410     1200     1210     1080     1600     1650     1300     1700   
                                           T        V       H0       H01     AOSYM     SMH    MOLCAS    ERIS     OPER   

              2       4        0.61       700     1000      520     2100   
                                         GEOM     BASIS   MCVARS     RHF  

 PROGRAMS   *        TOTAL    HF-SCF       INT
 CPU TIMES  *         0.95      0.41      0.46
 REAL TIME  *         1.42 SEC
 DISK USED  *       175.49 MB
 **********************************************************************************************************************************


 PROGRAM * CCSD (Closed-shell coupled cluster)     Authors: C. Hampel, H.-J. Werner, 1991, M. Deegan, P.J. Knowles, 1992


 Convergence thresholds:  THRVAR = 1.00D-08  THRDEN = 1.00D-06

 CCSD(T)     terms to be evaluated (factor= 1.000)


 Number of core orbitals:           2 (   2 )
 Number of closed-shell orbitals:   7 (   7 )
 Number of external orbitals:      82 (  82 )

 Molecular orbitals read from record     2100.2  Type=RHF/CANONICAL  

 Number of N-1 electron functions:               7
 Number of N-2 electron functions:              28
 Number of singly external CSFs:               574
 Number of doubly external CSFs:            165025
 Total number of CSFs:                      165600

 Length of J-op  integral file:               0.00 MB
 Length of K-op  integral file:               0.63 MB
 Length of 3-ext integral record:             0.00 MB

 Memory could be reduced to 5.79 Mwords without degradation in triples

 Integral transformation finished. Total CPU:   0.13 sec, npass=  1  Memory used:   3.63 MW

 Reference energy:                    -95.23064555

 MP2 singlet pair energy:              -0.22548604
 MP2 triplet pair energy:              -0.11701216
 MP2 correlation energy:               -0.34249820
 MP2 total energy:                    -95.57314374

 SCS-MP2 correlation energy:           -0.34339081   (PS=  1.200000  PT=  0.333333)
 SCS-MP2 total energy:                -95.57403636

 ITER.      SQ.NORM     CORR.ENERGY   TOTAL ENERGY   ENERGY CHANGE        DEN1      VAR(S)    VAR(P)  DIIS     TIME  TIME/IT
   1      1.12374606    -0.36962349   -95.60026904    -0.02712530    -0.01784854  0.11D-02  0.19D-02  1  1     1.34     0.16
   2      1.13383244    -0.37175923   -95.60240478    -0.00213574    -0.00992462  0.18D-04  0.18D-03  2  2     1.50     0.17
   3      1.13608447    -0.37186610   -95.60251164    -0.00010686    -0.00129457  0.11D-04  0.10D-04  3  3     1.65     0.18
   4      1.13673394    -0.37187577   -95.60252131    -0.00000967    -0.00025676  0.99D-06  0.80D-06  4  4     1.81     0.19
   5      1.13687173    -0.37187450   -95.60252005     0.00000127    -0.00004183  0.20D-06  0.90D-07  5  5     1.97     0.19
   6      1.13690692    -0.37187225   -95.60251779     0.00000225    -0.00000657  0.40D-07  0.88D-08  6  6     2.17     0.20
   7      1.13691725    -0.37187185   -95.60251739     0.00000040    -0.00000035  0.61D-08  0.22D-08  6  2     2.32     0.19
   8      1.13692200    -0.37187169   -95.60251724     0.00000016    -0.00000056  0.98D-09  0.26D-09  6  1     2.48     0.19

 Norm of t1 vector:      0.04859369      S-energy:    -0.00000015      T1 diagnostic:  0.00918334
                                                                       D1 diagnostic:  0.02458294
                                                                       D2 diagnostic:  0.13888553 (internal)


 Total CPU time for triples:      1.34 sec


 RESULTS
 =======

  Reference energy                    -95.230645545877
  CCSD singlet pair energy             -0.263862284684
  CCSD triplet pair energy             -0.108009262309
  CCSD correlation energy              -0.371871692124

  Triples (T) contribution             -0.010659073572
  Total correlation energy             -0.382530765697

  CCSD total energy                   -95.602517238001
  CCSD[T] energy                      -95.613495657978
  CCSD-T energy                       -95.613006190693
 !CCSD(T) total energy                -95.613176311573

 Timing summary (sec):

 STEP                 CPU(USER)    SYS     CPU(TOT)    WALL
 Transformation          0.13      0.02      0.15      0.21
 CCSD iterations         2.36      0.09      2.45      1.59
 Triples                 1.34      0.06      1.40      1.46

 Program statistics:

 Available memory in ccsd:               805306163
 Min. memory needed in ccsd:                547472
 Max. memory used in ccsd:                  678351
 Max. memory used in cckext:                544325 ( 8 integral passes)



 **********************************************************************************************************************************
 DATASETS  * FILE   NREC   LENGTH (MB)   RECORD NAMES
              1      20       85.29       500      610      700      900      950      970     1000      129      960     1100   
                                          VAR    BASINP    GEOM    SYMINP    ZMAT    AOBASIS   BASIS     P2S    ABASIS      S 
                                         1400     1410     1200     1210     1080     1600     1650     1300     1700     1380   
                                           T        V       H0       H01     AOSYM     SMH    MOLCAS    ERIS     OPER     JKOP   

              2       4        0.61       700     1000      520     2100   
                                         GEOM     BASIS   MCVARS     RHF  

 PROGRAMS   *        TOTAL   CCSD(T)    HF-SCF       INT
 CPU TIMES  *         3.75      2.80      0.41      0.46
 REAL TIME  *         4.75 SEC
 DISK USED  *       175.49 MB
 **********************************************************************************************************************************

 Dump information in style XML to xml output                                                                      

 Orbitals will not be exported.

 **********************************************************************************************************************************

 CCSD(T)/aug-cc-pVDZ energy=    -95.613176311573

         CCSD(T)          HF-SCF
    -95.61317631    -95.23064555
 **********************************************************************************************************************************
 Molpro calculation terminated
