
 Working directory              : /var/folders/2v/xbgp75_9785319ghcgb4zr4r0000gp/T//molpro.LgziQV6Pmi/
 Global scratch directory       : /var/folders/2v/xbgp75_9785319ghcgb4zr4r0000gp/T//molpro.LgziQV6Pmi/
 Wavefunction directory         : /Users/sacpjk/wfu/
 Main file repository           : /var/folders/2v/xbgp75_9785319ghcgb4zr4r0000gp/T//molpro.LgziQV6Pmi/

 id        : peterk

 Nodes                        nprocs
 Cardiff-University-G34YLXT77Y    1
 GA implementation: MPI file
 GA implementation (serial work in mppx): MPI file

 Using customized tuning parameters: mindgm=1; mindgv=20; mindgc=4; mindgr=1; noblas=0; minvec=7
 default implementation of scratch files=df  


 Variables initialized (1032), CPU time= 0.00 sec
 
 symmetry,nosym
 
 
 geometry={
            5
     N          0.00000000      0.00000000      1.88832511
     N          0.00000000      0.00000000      0.75165554
     C          0.00000000      0.00000000     -0.54332281
     H          0.95203700      0.00000000     -1.04832892
     H         -0.95203700      0.00000000     -1.04832892
 }
 basis=cc-pVTZ
 
 
 
 hf; ccsd
 
 
 
 {put,xml;noorbitals,nobasis}
 Commands initialized (841), CPU time= 0.01 sec, 704 directives.
 Default parameters read. Elapsed time= 0.09 sec

 Checking input...
 Passed
1


                                         ***  PROGRAM SYSTEM MOLPRO  ***
                                       Copyright, TTI GmbH Stuttgart, 2015
                                    Version 2023.1 linked Tue Jun  6 09:54:11 2023


 **********************************************************************************************************************************
 LABEL *                                                                                                                                                                 
  64 bit serial version                                                                  DATE: 11-Jun-23          TIME: 08:46:16  
 **********************************************************************************************************************************

 SHA1:             8ebb0dd001088a5c915591db1a321413035db0b1
 **********************************************************************************************************************************

 Memory per process:       393 MW
 Total memory per node:    524 MW
 Total GA space:           131 MW

 GA preallocation disabled
 GA check enabled

 Variable memory set to 393.2 MW

 ZSYMEL=NOSYM


 Geometry recognized as XYZ

 SETTING BASIS          =    CC-PVTZ


 Recomputing integrals since basis changed


 Using spherical harmonics

 Library entry N      S cc-pVTZ              selected for orbital group  1
 Library entry N      P cc-pVTZ              selected for orbital group  1
 Library entry N      D cc-pVTZ              selected for orbital group  1
 Library entry N      F cc-pVTZ              selected for orbital group  1
 Library entry C      S cc-pVTZ              selected for orbital group  2
 Library entry C      P cc-pVTZ              selected for orbital group  2
 Library entry C      D cc-pVTZ              selected for orbital group  2
 Library entry C      F cc-pVTZ              selected for orbital group  2
 Library entry H      S cc-pVTZ              selected for orbital group  3
 Library entry H      P cc-pVTZ              selected for orbital group  3
 Library entry H      D cc-pVTZ              selected for orbital group  3


 PROGRAM * SEWARD (Integral evaluation for generally contracted gaussian basis sets)     Author: Roland Lindh, 1990

 Geometry written to block  1 of record 700


 Point group  C1  



 ATOMIC COORDINATES

 NR  ATOM    CHARGE       X              Y              Z

   1  N       7.00    0.000000000    0.000000000    3.568417292
   2  N       7.00    0.000000000    0.000000000    1.420423111
   3  C       6.00    0.000000000    0.000000000   -1.026731308
   4  H       1.00    1.799089191    0.000000000   -1.981054547
   5  H       1.00   -1.799089191    0.000000000   -1.981054547

 Bond lengths in Bohr (Angstrom)

 1-2  2.147994181  2-3  2.447154419  3-4  2.036530078  3-5  2.036530078
     ( 1.136669570)     ( 1.294978350)     ( 1.077685307)     ( 1.077685307)

 Bond angles

  1-2-3  180.00000000   2-3-4  117.94362484   2-3-5  117.94362484   4-3-5  124.11275032

 NUCLEAR CHARGE:                   22
 NUMBER OF PRIMITIVE AOS:         175
 NUMBER OF SYMMETRY AOS:          158
 NUMBER OF CONTRACTIONS:          118   (  118A   )
 NUMBER OF INNER CORE ORBITALS:     0   (    0A   )
 NUMBER OF OUTER CORE ORBITALS:     3   (    3A   )
 NUMBER OF VALENCE ORBITALS:       14   (   14A   )


 NUCLEAR REPULSION ENERGY   61.32323683

 EXTRA SYMMETRY OF AOS IN SYMMETRY 1:   1 1 1 1 1 2 1 1 2 1   1 2 1 1 2 1 1 2 1 2   1 1 2 1 2 1 1 2 2 1   1 1 1 1 1 2 1 1 2 1
                                        1 2 1 1 2 1 1 2 1 2   1 1 2 1 2 1 1 2 2 1   1 1 1 1 1 2 1 1 2 1   1 2 1 1 2 1 1 2 1 2
                                        1 1 2 1 2 1 1 2 2 1   1 1 1 1 2 1 1 2 1 1   2 1 1 2 1 1 1 1 2 1   1 2 1 1 2 1 1 2

 Eigenvalues of metric

         1 0.737E-03 0.127E-02 0.157E-02 0.180E-02 0.193E-02 0.280E-02 0.625E-02 0.757E-02


 Contracted 2-electron integrals neglected if value below      1.0D-11
 AO integral compression algorithm  1   Integral accuracy      1.0D-11

     51.380 MB (compressed) written to integral file ( 22.1%)


 NUMBER OF SORTED TWO-ELECTRON INTEGRALS:   24650731.     BUFFER LENGTH:  32768
 NUMBER OF SEGMENTS:   2  SEGMENT LENGTH:   15997996      RECORD LENGTH: 524288

 Memory used in sort:      16.56 MW

 SORT1 READ    29019001. AND WROTE     9742709. INTEGRALS IN     28 RECORDS. CPU TIME:     0.19 SEC, REAL TIME:     0.40 SEC
 SORT2 READ     9742709. AND WROTE    24650731. INTEGRALS IN    196 RECORDS. CPU TIME:     0.23 SEC, REAL TIME:     0.50 SEC

 FILE SIZES:   FILE 1:    82.0 MBYTE,  FILE 4:   117.5 MBYTE,   TOTAL:    199.5 MBYTE

 OPERATOR DM      FOR CENTER  0  COORDINATES:    0.000000    0.000000    0.000000


 **********************************************************************************************************************************
 DATASETS  * FILE   NREC   LENGTH (MB)   RECORD NAMES
              1      19       69.95       500      610      700      900      950      970     1000      129      960     1100   
                                          VAR    BASINP    GEOM    SYMINP    ZMAT    AOBASIS   BASIS     P2S    ABASIS      S 
                                         1400     1410     1200     1210     1080     1600     1650     1300     1700   
                                           T        V       H0       H01     AOSYM     SMH    MOLCAS    ERIS     OPER   

 PROGRAMS   *        TOTAL       INT
 CPU TIMES  *         1.41      1.30
 REAL TIME  *         3.08 SEC
 DISK USED  *       190.64 MB
 **********************************************************************************************************************************


 Program * Restricted Hartree-Fock

 Orbital guess generated from atomic densities. Full valence occupancy:   17

 Initial occupancy:  11

 NELEC=   22   SYM=1   MS2= 0   THRE=1.0D-08   THRD=3.2D-06   THRG=3.2D-06  HFMA2=F  DIIS_START=2   DIIS_MAX=10   DIIS_INCORE=F

 Level shifts:    0.00 (CLOSED)    0.00 (OPEN)    0.30 (GAP_MIN)

 ITER           ETOT              DE          GRAD        DDIFF     DIIS  NEXP   TIME(IT)  TIME(TOT)  DIAG
   1     -147.84949876    -147.84949876     0.00D+00     0.72D-01     0     0       0.13      0.24    start
   2     -147.88236624      -0.03286748     0.63D-02     0.82D-02     1     0       0.12      0.36    diag
   3     -147.89736127      -0.01499503     0.41D-02     0.35D-02     2     0       0.13      0.49    diag
   4     -147.89877703      -0.00141576     0.78D-03     0.11D-02     3     0       0.12      0.61    diag
   5     -147.89926658      -0.00048956     0.46D-03     0.61D-03     4     0       0.12      0.73    diag
   6     -147.89949690      -0.00023031     0.21D-03     0.48D-03     5     0       0.13      0.86    diag
   7     -147.89956545      -0.00006855     0.98D-04     0.35D-03     6     0       0.13      0.99    diag
   8     -147.89957048      -0.00000503     0.30D-04     0.11D-03     7     0       0.13      1.12    fixocc
   9     -147.89957059      -0.00000011     0.65D-05     0.13D-04     8     0       0.12      1.24    diag
  10     -147.89957060      -0.00000001     0.21D-05     0.36D-05     9     0       0.13      1.37    diag/orth
  11     -147.89957060      -0.00000000     0.50D-06     0.12D-05     9     0       0.13      1.50    diag
  12     -147.89957060      -0.00000000     0.99D-07     0.15D-06     0     0       0.12      1.62    diag

 Final occupancy:  11

 !RHF STATE 1.1 Energy               -147.899570598444
  RHF One-electron energy            -320.727751196800
  RHF Two-electron energy             111.504943772628
  RHF Kinetic energy                  147.602167346148
  RHF Nuclear energy                   61.323236825727
  RHF Virial quotient                  -1.002014897597

 !RHF STATE 1.1 Dipole moment           0.00000000    -0.00000000    -0.60384182
 Dipole moment /Debye                   0.00000000    -0.00000000    -1.53481282

 Orbital energies:

           1.1          2.1          3.1          4.1          5.1          6.1          7.1          8.1          9.1         10.1
    -15.734114   -15.653216   -11.265251    -1.455558    -1.120407    -0.758273    -0.693208    -0.658466    -0.654041    -0.537545

          11.1         12.1         13.1
     -0.328853     0.125391     0.155463


 HOMO     11.1    -0.328853 =      -8.9485eV
 LUMO     12.1     0.125391 =       3.4121eV
 LUMO-HOMO         0.454244 =      12.3606eV

 Orbitals saved in record  2100.2


 **********************************************************************************************************************************
 DATASETS  * FILE   NREC   LENGTH (MB)   RECORD NAMES
              1      19       69.95       500      610      700      900      950      970     1000      129      960     1100   
                                          VAR    BASINP    GEOM    SYMINP    ZMAT    AOBASIS   BASIS     P2S    ABASIS      S 
                                         1400     1410     1200     1210     1080     1600     1650     1300     1700   
                                           T        V       H0       H01     AOSYM     SMH    MOLCAS    ERIS     OPER   

              2       4        0.67       700     1000      520     2100   
                                         GEOM     BASIS   MCVARS     RHF  

 PROGRAMS   *        TOTAL    HF-SCF       INT
 CPU TIMES  *         3.03      1.62      1.30
 REAL TIME  *         6.32 SEC
 DISK USED  *       190.64 MB
 **********************************************************************************************************************************


 PROGRAM * CCSD (Closed-shell coupled cluster)     Authors: C. Hampel, H.-J. Werner, 1991, M. Deegan, P.J. Knowles, 1992


 Convergence thresholds:  THRVAR = 1.00D-08  THRDEN = 1.00D-06

 Number of core orbitals:           3 (   3 )
 Number of closed-shell orbitals:   8 (   8 )
 Number of external orbitals:     107 ( 107 )

 Molecular orbitals read from record     2100.2  Type=RHF/CANONICAL  

 Number of N-1 electron functions:               8
 Number of N-2 electron functions:              36
 Number of singly external CSFs:               856
 Number of doubly external CSFs:            366796
 Total number of CSFs:                      367653

 Length of J-op  integral file:               0.00 MB
 Length of K-op  integral file:               1.02 MB
 Length of 3-ext integral record:             0.00 MB

 Integral transformation finished. Total CPU:   0.50 sec, npass=  1  Memory used:   8.60 MW

 Reference energy:                   -147.89957060

 MP2 singlet pair energy:              -0.35057469
 MP2 triplet pair energy:              -0.21365988
 MP2 correlation energy:               -0.56423457
 MP2 total energy:                   -148.46380517

 SCS-MP2 correlation energy:           -0.55363355   (PS=  1.200000  PT=  0.333333)
 SCS-MP2 total energy:               -148.45320415

 ITER.      SQ.NORM     CORR.ENERGY   TOTAL ENERGY   ENERGY CHANGE        DEN1      VAR(S)    VAR(P)  DIIS     TIME  TIME/IT
   1      1.17668137    -0.56807254  -148.46764313    -0.00383797     0.01730632  0.52D-02  0.49D-02  1  1     4.19     0.74
   2      1.19182773    -0.56816119  -148.46773179    -0.00008865    -0.01619927  0.22D-03  0.62D-03  2  2     4.76     0.84
   3      1.20053496    -0.56852857  -148.46809916    -0.00036738    -0.00387337  0.13D-03  0.46D-04  3  3     5.38     0.95
   4      1.20455314    -0.56862426  -148.46819486    -0.00009569    -0.00114845  0.21D-04  0.96D-05  4  4     5.98     0.99
   5      1.20654716    -0.56864792  -148.46821852    -0.00002366    -0.00039576  0.42D-05  0.13D-05  5  5     6.58     1.00
   6      1.20722357    -0.56862961  -148.46820021     0.00001831    -0.00007392  0.63D-06  0.23D-06  6  6     7.24     1.03
   7      1.20739403    -0.56862859  -148.46819918     0.00000102    -0.00000792  0.11D-06  0.49D-07  6  1     7.87     1.07
   8      1.20743852    -0.56862885  -148.46819945    -0.00000027    -0.00000182  0.31D-07  0.78D-08  6  2     8.50     1.09
   9      1.20746177    -0.56862813  -148.46819873     0.00000072    -0.00000106  0.25D-08  0.15D-08  6  3     9.13     1.10

 Norm of t1 vector:      0.11305919      S-energy:     0.00000060      T1 diagnostic:  0.01998623
                                                                       D1 diagnostic:  0.05353235
                                                                       D2 diagnostic:  0.18877033 (internal)

 Doubles amplitudes (print threshold =  0.500E-01):

         I         J         SYM. A    SYM. B    A         B      T(IJ, AB)

         7         7         1         1         1         1     -0.06029038
         8         8         1         1         3         3     -0.09950430


 RESULTS
 =======

  Reference energy                   -147.899570598444
  CCSD singlet pair energy             -0.384111697585
  CCSD triplet pair energy             -0.184517031218
  CCSD correlation energy              -0.568628133097

 !CCSD total energy                  -148.468198731542

 Timing summary (sec):

 STEP                 CPU(USER)    SYS     CPU(TOT)    WALL
 Transformation          0.52      0.04      0.56      0.98
 CCSD iterations         8.63      0.37      9.00      9.89

 Program statistics:

 Available memory in ccsd:               393215733
 Min. memory needed in ccsd:               1129080
 Max. memory used in ccsd:                 1430708
 Max. memory used in cckext:               1125886 ( 9 integral passes)



 **********************************************************************************************************************************
 DATASETS  * FILE   NREC   LENGTH (MB)   RECORD NAMES
              1      20      113.65       500      610      700      900      950      970     1000      129      960     1100   
                                          VAR    BASINP    GEOM    SYMINP    ZMAT    AOBASIS   BASIS     P2S    ABASIS      S 
                                         1400     1410     1200     1210     1080     1600     1650     1300     1700     1380   
                                           T        V       H0       H01     AOSYM     SMH    MOLCAS    ERIS     OPER     JKOP   

              2       4        0.67       700     1000      520     2100   
                                         GEOM     BASIS   MCVARS     RHF  

 PROGRAMS   *        TOTAL      CCSD    HF-SCF       INT
 CPU TIMES  *         9.04      6.01      1.62      1.30
 REAL TIME  *        17.25 SEC
 DISK USED  *       190.64 MB
 **********************************************************************************************************************************

 Dump information in style XML to xml output                                                                      

 Orbitals will not be exported.

 **********************************************************************************************************************************

 CCSD/cc-pVTZ energy=   -148.468198731542

            CCSD          HF-SCF
   -148.46819873   -147.89957060
 **********************************************************************************************************************************
 Molpro calculation terminated
