
 Working directory              : /tmp/peterk/molpro.4ZCqaFcADF/
 Global scratch directory       : /tmp/peterk/molpro.4ZCqaFcADF/
 Wavefunction directory         : /home/peterk/wfu/
 Main file repository           : /tmp/peterk/molpro.4ZCqaFcADF/

 id        : peterk

 Nodes     nprocs
 marat        1
 GA implementation: MPI file
 GA implementation (serial work in mppx): MPI file

 Using customized tuning parameters: mindgm=1; mindgv=20; mindgc=4; mindgr=1; noblas=0; minvec=7
 default implementation of scratch files=df  


 Variables initialized (1032), CPU time= 0.00 sec
 
 symmetry,nosym
 
 
 geometry={
            2
     O          0.00000000      0.00000000      0.48102212
     H          0.00000000      0.00000000     -0.48102212
 }
 basis=cc-pVQZ
 
 charge=-1
 
 hf; ccsd
 
 
 
 {put,xml;noorbitals,nobasis}
 Commands initialized (841), CPU time= 0.01 sec, 708 directives.
 Default parameters read. Elapsed time= 0.06 sec

 Checking input...
 Passed
1


                                         ***  PROGRAM SYSTEM MOLPRO  ***
                                       Copyright, TTI GmbH Stuttgart, 2015
                                    Version 2023.1 linked Sat Jun 10 08:01:27 2023


 **********************************************************************************************************************************
 LABEL *                                                                                                                                                                 
  (16 PROC) 64 bit serial version                                                        DATE: 10-Jun-23          TIME: 19:41:46  
 **********************************************************************************************************************************

 SHA1:             8376d659ba1296ca7ee514c57770fe2c96af278c
 **********************************************************************************************************************************

 Memory per process:      1074 MW
 Total memory per node:   1074 MW

 GA preallocation disabled
 GA check disabled

 Variable memory set to 1073.7 MW

 ZSYMEL=NOSYM


 Geometry recognized as XYZ

 SETTING BASIS          =    CC-PVQZ
 SETTING CHARGE         =        -1.00000000                                  


 Recomputing integrals since basis changed


 Using spherical harmonics

 Library entry O      S cc-pVQZ              selected for orbital group  1
 Library entry O      P cc-pVQZ              selected for orbital group  1
 Library entry O      D cc-pVQZ              selected for orbital group  1
 Library entry O      F cc-pVQZ              selected for orbital group  1
 Library entry O      G cc-pVQZ              selected for orbital group  1
 Library entry H      S cc-pVQZ              selected for orbital group  2
 Library entry H      P cc-pVQZ              selected for orbital group  2
 Library entry H      D cc-pVQZ              selected for orbital group  2
 Library entry H      F cc-pVQZ              selected for orbital group  2


 PROGRAM * SEWARD (Integral evaluation for generally contracted gaussian basis sets)     Author: Roland Lindh, 1990

 Geometry written to block  1 of record 700


 Point group  C1  



 ATOMIC COORDINATES

 NR  ATOM    CHARGE       X              Y              Z

   1  O       8.00    0.000000000    0.000000000    0.909000067
   2  H       1.00    0.000000000    0.000000000   -0.909000067

 Bond lengths in Bohr (Angstrom)

 1-2  1.818000133
     ( 0.962044240)

 NUCLEAR CHARGE:                    9
 NUMBER OF PRIMITIVE AOS:         120
 NUMBER OF SYMMETRY AOS:          100
 NUMBER OF CONTRACTIONS:           85   (   85A   )
 NUMBER OF INNER CORE ORBITALS:     0   (    0A   )
 NUMBER OF OUTER CORE ORBITALS:     1   (    1A   )
 NUMBER OF VALENCE ORBITALS:        5   (    5A   )


 NUCLEAR REPULSION ENERGY    4.40043972

 EXTRA SYMMETRY OF AOS IN SYMMETRY 1:   1 1 1 1 1 2 3 1 2 3   1 2 3 1 2 3 1 1 4 2   5 3 1 4 2 5 3 1 4 2   5 3 2 3 1 6 4 7 5 2
                                        3 1 6 4 7 5 1 4 2 8   3 5 9 6 7 1 1 1 1 2   3 1 2 3 1 2 3 1 1 4   2 5 3 1 4 2 5 3 2 3
                                        1 6 4 7 5

 Eigenvalues of metric

         1 0.336E-03 0.601E-03 0.239E-02 0.683E-02 0.932E-02 0.102E-01 0.102E-01 0.131E-01


 Contracted 2-electron integrals neglected if value below      1.0D-11
 AO integral compression algorithm  1   Integral accuracy      1.0D-11

     9.961 MB (compressed) written to integral file ( 15.0%)


 NUMBER OF SORTED TWO-ELECTRON INTEGRALS:    6681340.     BUFFER LENGTH:  32768
 NUMBER OF SEGMENTS:   1  SEGMENT LENGTH:    6681340      RECORD LENGTH: 524288

 Memory used in sort:       7.24 MW

 SORT1 READ     8260110. AND WROTE     1212952. INTEGRALS IN      4 RECORDS. CPU TIME:     0.03 SEC, REAL TIME:     0.04 SEC
 SORT2 READ     1212952. AND WROTE     6681340. INTEGRALS IN     38 RECORDS. CPU TIME:     0.08 SEC, REAL TIME:     0.10 SEC

 FILE SIZES:   FILE 1:    40.2 MBYTE,  FILE 4:    16.8 MBYTE,   TOTAL:     57.1 MBYTE

 OPERATOR DM      FOR CENTER  0  COORDINATES:    0.000000    0.000000    0.000000


 **********************************************************************************************************************************
 DATASETS  * FILE   NREC   LENGTH (MB)   RECORD NAMES
              1      19       35.49       500      610      700      900      950      970     1000      129      960     1100   
                                          VAR    BASINP    GEOM    SYMINP    ZMAT    AOBASIS   BASIS     P2S    ABASIS      S 
                                         1400     1410     1200     1210     1080     1600     1650     1300     1700   
                                           T        V       H0       H01     AOSYM     SMH    MOLCAS    ERIS     OPER   

 PROGRAMS   *        TOTAL       INT
 CPU TIMES  *         0.89      0.78
 REAL TIME  *         1.57 SEC
 DISK USED  *        54.79 MB
 **********************************************************************************************************************************


 Program * Restricted Hartree-Fock

 Orbital guess generated from atomic densities. Full valence occupancy:    6

 Initial occupancy:   5

 NELEC=   10   SYM=1   MS2= 0   THRE=1.0D-08   THRD=3.2D-06   THRG=3.2D-06  HFMA2=F  DIIS_START=2   DIIS_MAX=10   DIIS_INCORE=F

 Level shifts:    0.00 (CLOSED)    0.00 (OPEN)    0.30 (GAP_MIN)

 ITER           ETOT              DE          GRAD        DDIFF     DIIS  NEXP   TIME(IT)  TIME(TOT)  DIAG
   1      -75.27488875     -75.27488875     0.00D+00     0.72D-01     0     0       0.03      0.06    start
   2      -75.33420962      -0.05932087     0.19D-01     0.22D-01     1     0       0.03      0.09    diag
   3      -75.40140226      -0.06719265     0.16D-01     0.92D-02     2     0       0.03      0.12    diag
   4      -75.40156255      -0.00016028     0.70D-03     0.47D-03     3     0       0.04      0.16    diag
   5      -75.40158124      -0.00001869     0.18D-03     0.17D-03     4     0       0.03      0.19    diag
   6      -75.40158348      -0.00000224     0.45D-04     0.69D-04     5     0       0.03      0.22    diag
   7      -75.40158370      -0.00000022     0.13D-04     0.27D-04     6     0       0.03      0.25    diag
   8      -75.40158371      -0.00000001     0.24D-05     0.62D-05     7     0       0.03      0.28    fixocc
   9      -75.40158371      -0.00000000     0.29D-06     0.10D-05     8     0       0.04      0.32    diag
  10      -75.40158371      -0.00000000     0.29D-07     0.66D-07     0     0       0.03      0.35    diag/orth

 Final occupancy:   5

 !RHF STATE 1.1 Energy                -75.401583711075
  RHF One-electron energy            -116.839245014836
  RHF Two-electron energy              37.037221582585
  RHF Kinetic energy                   75.473177562030
  RHF Nuclear energy                    4.400439721175
  RHF Virial quotient                  -0.999051400070

 !RHF STATE 1.1 Dipole moment           0.00000000     0.00000000    -1.30285976
 Dipole moment /Debye                   0.00000000     0.00000000    -3.31153919

 Orbital energies:

           1.1          2.1          3.1          4.1          5.1          6.1          7.1
    -20.135013    -0.867498    -0.217845    -0.081023    -0.081023     0.374950     0.759396


 HOMO      5.1    -0.081023 =      -2.2048eV
 LUMO      6.1     0.374950 =      10.2029eV
 LUMO-HOMO         0.455974 =      12.4077eV

 Orbitals saved in record  2100.2


 **********************************************************************************************************************************
 DATASETS  * FILE   NREC   LENGTH (MB)   RECORD NAMES
              1      19       35.49       500      610      700      900      950      970     1000      129      960     1100   
                                          VAR    BASINP    GEOM    SYMINP    ZMAT    AOBASIS   BASIS     P2S    ABASIS      S 
                                         1400     1410     1200     1210     1080     1600     1650     1300     1700   
                                           T        V       H0       H01     AOSYM     SMH    MOLCAS    ERIS     OPER   

              2       4        0.51       700     1000      520     2100   
                                         GEOM     BASIS   MCVARS     RHF  

 PROGRAMS   *        TOTAL    HF-SCF       INT
 CPU TIMES  *         1.24      0.35      0.78
 REAL TIME  *         1.94 SEC
 DISK USED  *        54.79 MB
 **********************************************************************************************************************************


 PROGRAM * CCSD (Closed-shell coupled cluster)     Authors: C. Hampel, H.-J. Werner, 1991, M. Deegan, P.J. Knowles, 1992


 Convergence thresholds:  THRVAR = 1.00D-08  THRDEN = 1.00D-06

 Number of core orbitals:           1 (   1 )
 Number of closed-shell orbitals:   4 (   4 )
 Number of external orbitals:      80 (  80 )

 Molecular orbitals read from record     2100.2  Type=RHF/CANONICAL  

 Number of N-1 electron functions:               4
 Number of N-2 electron functions:              10
 Number of singly external CSFs:               320
 Number of doubly external CSFs:             51360
 Total number of CSFs:                       51681

 Length of J-op  integral file:               0.00 MB
 Length of K-op  integral file:               0.56 MB
 Length of 3-ext integral record:             0.00 MB

 Integral transformation finished. Total CPU:   0.09 sec, npass=  1  Memory used:   1.84 MW

 Reference energy:                    -75.40158371

 MP2 singlet pair energy:              -0.18467382
 MP2 triplet pair energy:              -0.10794624
 MP2 correlation energy:               -0.29262005
 MP2 total energy:                    -75.69420377

 SCS-MP2 correlation energy:           -0.28877513   (PS=  1.200000  PT=  0.333333)
 SCS-MP2 total energy:                -75.69035884

 ITER.      SQ.NORM     CORR.ENERGY   TOTAL ENERGY   ENERGY CHANGE        DEN1      VAR(S)    VAR(P)  DIIS     TIME  TIME/IT
   1      1.06863937    -0.29051866   -75.69210237     0.00210140     0.00855304  0.80D-03  0.13D-02  1  1     1.92     0.07
   2      1.07237573    -0.29044079   -75.69202451     0.00007786    -0.00514150  0.13D-04  0.12D-03  2  2     1.99     0.07
   3      1.07383193    -0.29050835   -75.69209206    -0.00006755    -0.00104944  0.23D-05  0.77D-05  3  3     2.07     0.07
   4      1.07427804    -0.29052052   -75.69210423    -0.00001217    -0.00022274  0.20D-06  0.45D-06  4  4     2.14     0.08
   5      1.07434090    -0.29051618   -75.69209989     0.00000434    -0.00002927  0.14D-07  0.31D-07  5  5     2.21     0.08
   6      1.07435065    -0.29051503   -75.69209874     0.00000116    -0.00000549  0.43D-08  0.12D-08  6  6     2.28     0.08
   7      1.07434990    -0.29051538   -75.69209909    -0.00000035    -0.00000017  0.84D-09  0.15D-09  6  1     2.35     0.08
   8      1.07434949    -0.29051545   -75.69209916    -0.00000007     0.00000017  0.11D-09  0.22D-10  6  2     2.42     0.08

 Norm of t1 vector:      0.03376394      S-energy:    -0.00000007      T1 diagnostic:  0.00844099
                                                                       D1 diagnostic:  0.01356350
                                                                       D2 diagnostic:  0.13593701 (internal)

 Doubles amplitudes (print threshold =  0.500E-01):

         I         J         SYM. A    SYM. B    A         B      T(IJ, AB)

         2         2         1         1         3         3     -0.05039297
         3         3         1         1         4         4     -0.05330361
         4         4         1         1         5         5     -0.05330361


 RESULTS
 =======

  Reference energy                    -75.401583711075
  CCSD singlet pair energy             -0.197633973851
  CCSD triplet pair energy             -0.092881403751
  CCSD correlation energy              -0.290515446080

 !CCSD total energy                   -75.692099157155

 Timing summary (sec):

 STEP                 CPU(USER)    SYS     CPU(TOT)    WALL
 Transformation          0.10      0.03      0.13      0.12
 CCSD iterations         2.33      0.03      2.36      0.61

 Program statistics:

 Available memory in ccsd:              1073741755
 Min. memory needed in ccsd:                245102
 Max. memory used in ccsd:                  280522
 Max. memory used in cckext:                210944 ( 8 integral passes)



 **********************************************************************************************************************************
 DATASETS  * FILE   NREC   LENGTH (MB)   RECORD NAMES
              1      20       44.35       500      610      700      900      950      970     1000      129      960     1100   
                                          VAR    BASINP    GEOM    SYMINP    ZMAT    AOBASIS   BASIS     P2S    ABASIS      S 
                                         1400     1410     1200     1210     1080     1600     1650     1300     1700     1380   
                                           T        V       H0       H01     AOSYM     SMH    MOLCAS    ERIS     OPER     JKOP   

              2       4        0.51       700     1000      520     2100   
                                         GEOM     BASIS   MCVARS     RHF  

 PROGRAMS   *        TOTAL      CCSD    HF-SCF       INT
 CPU TIMES  *         1.95      0.71      0.35      0.78
 REAL TIME  *         2.70 SEC
 DISK USED  *        56.97 MB
 **********************************************************************************************************************************

 Dump information in style XML to xml output                                                                      

 Orbitals will not be exported.

 **********************************************************************************************************************************

 CCSD/cc-pVQZ energy=    -75.692099157155

            CCSD          HF-SCF
    -75.69209916    -75.40158371
 **********************************************************************************************************************************
 Molpro calculation terminated
