
 Working directory              : /var/folders/2v/xbgp75_9785319ghcgb4zr4r0000gp/T//molpro.tkpblbqOhp/
 Global scratch directory       : /var/folders/2v/xbgp75_9785319ghcgb4zr4r0000gp/T//molpro.tkpblbqOhp/
 Wavefunction directory         : /Users/sacpjk/wfu/
 Main file repository           : /var/folders/2v/xbgp75_9785319ghcgb4zr4r0000gp/T//molpro.tkpblbqOhp/

 id        : peterk

 Nodes                        nprocs
 Cardiff-University-G34YLXT77Y    1
 GA implementation: MPI file
 GA implementation (serial work in mppx): MPI file

 Using customized tuning parameters: mindgm=1; mindgv=20; mindgc=4; mindgr=1; noblas=0; minvec=7
 default implementation of scratch files=df  


 Variables initialized (1032), CPU time= 0.00 sec
 
 symmetry,nosym
 
 
 geometry={
 13
  o         -1.725658698929    0.985176445376   -0.004488198682
  h         -0.753114891893    1.011056221199   -0.009535009727
  c         -2.095409174148   -0.374569734755   -0.009260022770
  h         -3.181662082972   -0.423849691993   -0.005008878932
  h         -1.742144451973   -0.905305597558   -0.898617800828
  h         -1.734818285074   -0.913474749636    0.872205471870
  n          1.182533933068    0.902925205363   -0.014212692653
  h          1.553153485078    1.410701710979    0.778919698223
  h          1.553276772794    1.367263772138   -0.833471526912
  c          1.660285868833   -0.483108241945    0.023248511912
  h          1.268401032225   -1.017133518680   -0.838943217015
  h          2.746997025046   -0.589843409911    0.026283006876
  h          1.268159468103   -0.969838410578    0.912880658849
 }
 basis=aug-cc-pVTZ
 
 
 
 hf; hf; papt; mp4
 
 
 
 {put,xml;noorbitals,nobasis}
 Commands initialized (841), CPU time= 0.01 sec, 704 directives.
 Default parameters read. Elapsed time= 1.93 sec

 Checking input...
 Passed
1


                                         ***  PROGRAM SYSTEM MOLPRO  ***
                                       Copyright, TTI GmbH Stuttgart, 2015
                                    Version 2023.1 linked Tue Jun  6 09:54:11 2023


 **********************************************************************************************************************************
 LABEL *                                                                                                                                                                 
  64 bit serial version                                                                  DATE: 09-Jun-23          TIME: 01:35:21  
 **********************************************************************************************************************************

 SHA1:             8ebb0dd001088a5c915591db1a321413035db0b1
 **********************************************************************************************************************************

 Memory per process:       805 MW
 Total memory per node:   1074 MW
 Total GA space:           268 MW

 GA preallocation disabled
 GA check enabled

 Variable memory set to 805.3 MW

 ZSYMEL=NOSYM


 Geometry recognized as XYZ

 SETTING BASIS          =    AUG-CC-PVTZ


 Recomputing integrals since basis changed


 Using spherical harmonics

 Library entry O      S aug-cc-pVTZ          selected for orbital group  1
 Library entry O      P aug-cc-pVTZ          selected for orbital group  1
 Library entry O      D aug-cc-pVTZ          selected for orbital group  1
 Library entry O      F aug-cc-pVTZ          selected for orbital group  1
 Library entry H      S aug-cc-pVTZ          selected for orbital group  2
 Library entry H      P aug-cc-pVTZ          selected for orbital group  2
 Library entry H      D aug-cc-pVTZ          selected for orbital group  2
 Library entry C      S aug-cc-pVTZ          selected for orbital group  3
 Library entry C      P aug-cc-pVTZ          selected for orbital group  3
 Library entry C      D aug-cc-pVTZ          selected for orbital group  3
 Library entry C      F aug-cc-pVTZ          selected for orbital group  3
 Library entry N      S aug-cc-pVTZ          selected for orbital group  5
 Library entry N      P aug-cc-pVTZ          selected for orbital group  5
 Library entry N      D aug-cc-pVTZ          selected for orbital group  5
 Library entry N      F aug-cc-pVTZ          selected for orbital group  5


 PROGRAM * SEWARD (Integral evaluation for generally contracted gaussian basis sets)     Author: Roland Lindh, 1990

 Geometry written to block  1 of record 700


 Point group  C1  



 ATOMIC COORDINATES

 NR  ATOM    CHARGE       X              Y              Z

   1  O       8.00   -3.261022326    1.861713666   -0.008481466
   2  H       1.00   -1.423180886    1.910619355   -0.018018557
   3  C       6.00   -3.959749458   -0.707834213   -0.017498907
   4  H       1.00   -6.012469958   -0.800959836   -0.009465409
   5  H       1.00   -3.292175884   -1.710779638   -1.698141534
   6  H       1.00   -3.278331435   -1.726217099    1.648229466
   7  N       7.00    2.234665267    1.706281349   -0.026858097
   8  H       1.00    2.935034716    2.665839877    1.471944903
   9  H       1.00    2.935267696    2.583754069   -1.575032919
  10  C       6.00    3.137485581   -0.912942266    0.043933320
  11  H       1.00    2.396930567   -1.922103782   -1.585372914
  12  H       1.00    5.191072042   -1.114642501    0.049667685
  13  H       1.00    2.396474077   -1.832728981    1.725094430

 Bond lengths in Bohr (Angstrom)

 1-2  1.838516761  1-3  2.662870110  3-4  2.054847529  3-5  2.067876603  3-6  2.067869734
     ( 0.972901172)     ( 1.409130178)     ( 1.087378484)     ( 1.094273173)     ( 1.094269538)

  7- 8  1.912506305   7- 9  1.912497691   7-10  2.771358564  10-11  2.054621012  10-12  2.063476005
       ( 1.012054752)       ( 1.012050194)       ( 1.466539795)       ( 1.087258616)       ( 1.091944477)

 10-13  2.054606611
       ( 1.087250996)

 Bond angles

  1-3-4  107.80889362   1-3-5  112.70939659   1-3-6  112.70742447   2-1-3  106.73530620

  4- 3- 5  107.67954830   4- 3- 6  107.68099729   5- 3- 6  108.02575012   7-10-11  109.05828429

  7-10-12  114.62388022   7-10-13  109.05680438   8- 7- 9  105.66707886   8- 7-10  109.56459379

  9- 7-10  109.57028934  11-10-12  108.23406659  11-10-13  107.39674284  12-10-13  108.23392760

 NUCLEAR CHARGE:                   36
 NUMBER OF PRIMITIVE AOS:         511
 NUMBER OF SYMMETRY AOS:          457
 NUMBER OF CONTRACTIONS:          391   (  391A   )
 NUMBER OF INNER CORE ORBITALS:     0   (    0A   )
 NUMBER OF OUTER CORE ORBITALS:     4   (    4A   )
 NUMBER OF VALENCE ORBITALS:       25   (   25A   )


 NUCLEAR REPULSION ENERGY  131.81617702


 Eigenvalues of metric

         1 0.165E-04 0.268E-04 0.341E-04 0.450E-04 0.463E-04 0.547E-04 0.695E-04 0.735E-04


 Contracted 2-electron integrals neglected if value below      1.0D-12
 AO integral compression algorithm  1   Integral accuracy      1.0D-12

     11925.717 MB (compressed) written to integral file ( 46.8%)


 NUMBER OF SORTED TWO-ELECTRON INTEGRALS: 2936576566.     BUFFER LENGTH:  32768
 NUMBER OF SEGMENTS:  92  SEGMENT LENGTH:   31999951      RECORD LENGTH: 262144

 Memory used in sort:      32.29 MW

 SORT1 READ  3183797859. AND WROTE  2676142256. INTEGRALS IN  15358 RECORDS. CPU TIME:    26.49 SEC, REAL TIME:    39.08 SEC
 SORT2 READ  2676142256. AND WROTE  2936576566. INTEGRALS IN  45493 RECORDS. CPU TIME:    16.38 SEC, REAL TIME:    46.50 SEC

 FILE SIZES:   FILE 1: 11961.5 MBYTE,  FILE 4: 32208.1 MBYTE,   TOTAL:  44169.7 MBYTE

 OPERATOR DM      FOR CENTER  0  COORDINATES:    0.000000    0.000000    0.000000


 **********************************************************************************************************************************
 DATASETS  * FILE   NREC   LENGTH (MB)   RECORD NAMES
              1      19    10613.52       500      610      700      900      950      970     1000      129      960     1100   
                                          VAR    BASINP    GEOM    SYMINP    ZMAT    AOBASIS   BASIS     P2S    ABASIS      S 
                                         1400     1410     1200     1210     1080     1600     1650     1300     1700   
                                           T        V       H0       H01     AOSYM     SMH    MOLCAS    ERIS     OPER   

 PROGRAMS   *        TOTAL       INT
 CPU TIMES  *        99.32     99.21
 REAL TIME  *       158.88 SEC
 DISK USED  *        41.14 GB
 **********************************************************************************************************************************


 Program * Restricted Hartree-Fock

 Orbital guess generated from atomic densities. Full valence occupancy:   29

 Initial occupancy:  18

 NELEC=   36   SYM=1   MS2= 0   THRE=1.0D-08   THRD=3.2D-06   THRG=3.2D-06  HFMA2=F  DIIS_START=2   DIIS_MAX=10   DIIS_INCORE=F

 Level shifts:    0.00 (CLOSED)    0.00 (OPEN)    0.30 (GAP_MIN)

 ITER           ETOT              DE          GRAD        DDIFF     DIIS  NEXP   TIME(IT)  TIME(TOT)  DIAG
   1     -210.29050330    -210.29050330     0.00D+00     0.31D-01     0     0      14.34     27.82    start
   2     -210.34233997      -0.05183667     0.30D-02     0.34D-02     1     0      14.49     42.31    diag
   3     -210.35256224      -0.01022227     0.15D-02     0.10D-02     2     0      14.97     57.28    diag
   4     -210.35367031      -0.00110807     0.38D-03     0.37D-03     3     0      15.53     72.81    diag
   5     -210.35372525      -0.00005494     0.68D-04     0.88D-04     4     0      15.25     88.06    diag
   6     -210.35372963      -0.00000438     0.22D-04     0.24D-04     5     0      14.89    102.95    diag
   7     -210.35373012      -0.00000049     0.68D-05     0.78D-05     6     0      15.26    118.21    diag
   8     -210.35373015      -0.00000003     0.14D-05     0.20D-05     7     0      14.83    133.04    fixocc
   9     -210.35373016      -0.00000000     0.49D-06     0.65D-06     8     0      14.76    147.80    diag
  10     -210.35373016      -0.00000000     0.12D-06     0.16D-06     0     0      15.21    163.01    diag/orth

 Final occupancy:  18

 !RHF STATE 1.1 Energy               -210.353730156494
  RHF One-electron energy            -547.342159414325
  RHF Two-electron energy             205.172252234937
  RHF Kinetic energy                  210.083924210128
  RHF Nuclear energy                  131.816177022894
  RHF Virial quotient                  -1.001284276973

 !RHF STATE 1.1 Dipole moment           1.37660612    -0.48871535    -0.00479774
 Dipole moment /Debye                   3.49898374    -1.24219051    -0.01219464

 Orbital energies:

           1.1          2.1          3.1          4.1          5.1          6.1          7.1          8.1          9.1         10.1
    -20.519211   -15.564753   -11.257982   -11.248889    -1.324730    -1.195882    -0.917442    -0.899527    -0.685287    -0.670388

          11.1         12.1         13.1         14.1         15.1         16.1         17.1         18.1         19.1         20.1
     -0.622799    -0.594929    -0.575543    -0.566654    -0.536669    -0.482759    -0.418829    -0.416529     0.023943     0.037631


 HOMO     18.1    -0.416529 =     -11.3343eV
 LUMO     19.1     0.023943 =       0.6515eV
 LUMO-HOMO         0.440473 =      11.9859eV

 Orbitals saved in record  2100.2


 **********************************************************************************************************************************
 DATASETS  * FILE   NREC   LENGTH (MB)   RECORD NAMES
              1      19    10613.52       500      610      700      900      950      970     1000      129      960     1100   
                                          VAR    BASINP    GEOM    SYMINP    ZMAT    AOBASIS   BASIS     P2S    ABASIS      S 
                                         1400     1410     1200     1210     1080     1600     1650     1300     1700   
                                           T        V       H0       H01     AOSYM     SMH    MOLCAS    ERIS     OPER   

              2       4        2.97       700     1000      520     2100   
                                         GEOM     BASIS   MCVARS     RHF  

 PROGRAMS   *        TOTAL    HF-SCF       INT
 CPU TIMES  *       262.33    163.00     99.21
 REAL TIME  *       350.39 SEC
 DISK USED  *        41.14 GB
 **********************************************************************************************************************************


 Program * Restricted Hartree-Fock

 Molecular orbitals read from record     2100.2  Type=RHF/CANONICAL  

 Initial occupancy:  18

 NELEC=   36   SYM=1   MS2= 0   THRE=1.0D-08   THRD=3.2D-06   THRG=3.2D-06  HFMA2=F  DIIS_START=2   DIIS_MAX=10   DIIS_INCORE=F

 Level shifts:    0.00 (CLOSED)    0.00 (OPEN)    0.30 (GAP_MIN)

 ITER           ETOT              DE          GRAD        DDIFF     DIIS  NEXP   TIME(IT)  TIME(TOT)  DIAG
   1     -210.35373016    -210.35373016     0.00D+00     0.32D-01     0     0      14.54     14.55    start
   2     -210.35373016      -0.00000000     0.55D-07     0.62D-07     1     0      14.98     29.53    diag

 Final occupancy:  18

 !RHF STATE 1.1 Energy               -210.353730156535
  RHF One-electron energy            -547.342188687005
  RHF Two-electron energy             205.172281507576
  RHF Kinetic energy                  210.083945455033
  RHF Nuclear energy                  131.816177022894
  RHF Virial quotient                  -1.001284175718

 !RHF STATE 1.1 Dipole moment           1.37659964    -0.48871427    -0.00479781
 Dipole moment /Debye                   3.49896728    -1.24218777    -0.01219482

 Orbital energies:

           1.1          2.1          3.1          4.1          5.1          6.1          7.1          8.1          9.1         10.1
    -20.519216   -15.564751   -11.257988   -11.248890    -1.324732    -1.195882    -0.917443    -0.899527    -0.685287    -0.670389

          11.1         12.1         13.1         14.1         15.1         16.1         17.1         18.1         19.1         20.1
     -0.622800    -0.594931    -0.575544    -0.566656    -0.536670    -0.482760    -0.418831    -0.416530     0.023943     0.037631


 HOMO     18.1    -0.416530 =     -11.3344eV
 LUMO     19.1     0.023943 =       0.6515eV
 LUMO-HOMO         0.440473 =      11.9859eV

 Orbitals saved in record  2101.2


 **********************************************************************************************************************************
 DATASETS  * FILE   NREC   LENGTH (MB)   RECORD NAMES
              1      19    10613.52       500      610      700      900      950      970     1000      129      960     1100   
                                          VAR    BASINP    GEOM    SYMINP    ZMAT    AOBASIS   BASIS     P2S    ABASIS      S 
                                         1400     1410     1200     1210     1080     1600     1650     1300     1700   
                                           T        V       H0       H01     AOSYM     SMH    MOLCAS    ERIS     OPER   

              2       5        7.17       700     1000      520     2100     2101   
                                         GEOM     BASIS   MCVARS     RHF      RHF  

 PROGRAMS   *        TOTAL    HF-SCF    HF-SCF       INT
 CPU TIMES  *       291.88     29.54    163.00     99.21
 REAL TIME  *       384.97 SEC
 DISK USED  *        41.14 GB
 **********************************************************************************************************************************


 PROGRAM * PAPT (Closed-shell)     Authors: C. Hampel, H.-J. Werner, 1991, P.J. Knowles, 2021


 Convergence thresholds:  THRVAR = 1.00D-08  THRDEN = 1.00D-06

 Number of core orbitals:           4 (   4 )
 Number of closed-shell orbitals:  14 (  14 )
 Number of external orbitals:     373 ( 373 )

 Molecular orbitals read from record     2101.2  Type=RHF/CANONICAL  

 Number of N-1 electron functions:              14
 Number of N-2 electron functions:             105
 Number of singly external CSFs:              5222
 Number of doubly external CSFs:          13637253
 Total number of CSFs:                    13642476

 Length of J-op  integral file:               0.00 MB
 Length of K-op  integral file:              10.56 MB

 Integral transformation finished. Total CPU:  34.09 sec, npass=  1  Memory used:  29.78 MW

 Reference energy:                   -210.35373016

                        CORR.ENERGY   TOTAL ENERGY   ENERGY CHANGE
 MP2:                   -0.85497677  -211.20870693    -0.85497677

 SCS-MP2 correlation energy:           -0.85863226   (PS=  1.200000  PT=  0.333333)
 SCS-MP2 total energy:               -211.21236242
 Iteration:   1     0.1986D+00
 Iteration:   2     0.2443D+00
 Iteration:   3     0.6045D-01
 Iteration:   4     0.4880D-01
 Iteration:   5     0.2250D+00
 Iteration:   6     0.4244D-01
 Iteration:   7     0.7486D-01
 Iteration:   8     0.7725D-01
 Iteration:   9     0.4768D-01
 Iteration:  10     0.2739D+00
 Iteration:  11     0.3624D-01
 Iteration:  12     0.3338D-01
 Iteration:  13     0.2822D-01
 Iteration:  14     0.7110D-02
 Iteration:  15     0.2187D-01
 Iteration:  16     0.3822D-02
 Iteration:  17     0.4525D-02
 Iteration:  18     0.2091D-02
 Iteration:  19     0.1392D-02
 Iteration:  20     0.1563D-02
 Iteration:  21     0.4070D-03
 Iteration:  22     0.1581D-02
 Iteration:  23     0.1514D-03
 Iteration:  24     0.1369D-03
 Iteration:  25     0.1585D-03
 Iteration:  26     0.4506D-04
 PAPT operator written to  7000.1
 PAPT orbitals and eigenvalues written to  7000.2

 MP3(D):                -0.88970799  -211.24343814    -0.03473121



 RESULTS
 =======

  Reference energy                   -210.353730156533
  MP3 singlet pair energy              -0.616636176358
  MP3 triplet pair energy              -0.273071808658
  MP3 correlation energy               -0.889707985016

 !MP3 total energy                   -211.243438141549

 Timing summary (sec):

 STEP                 CPU(USER)    SYS     CPU(TOT)    WALL
 Transformation         35.26      3.17     38.43     39.16
 CCSD iterations       456.13      7.25    463.38    162.73

 Program statistics:

 Available memory in ccsd:               805305566
 Min. memory needed in ccsd:              33723737
 Max. memory used in ccsd:                46197170
 Max. memory used in cckext:              33420406 ( 1 integral passes)



 **********************************************************************************************************************************
 DATASETS  * FILE   NREC   LENGTH (MB)   RECORD NAMES
              1      21    10800.30       500      610      700      900      950      970     1000      129      960     1100   
                                          VAR    BASINP    GEOM    SYMINP    ZMAT    AOBASIS   BASIS     P2S    ABASIS      S 
                                         1400     1410     1200     1210     1080     1600     1650     1300     1700     1380   
                                           T        V       H0       H01     AOSYM     SMH    MOLCAS    ERIS     OPER     JKOP   
                                         7000   
                                        PAPT AO    

              2       6       10.77       700     1000      520     2100     2101     7000   
                                         GEOM     BASIS   MCVARS     RHF      RHF     PAPT   

 PROGRAMS   *        TOTAL      PAPT    HF-SCF    HF-SCF       INT
 CPU TIMES  *       491.28    199.40     29.54    163.00     99.21
 REAL TIME  *       587.34 SEC
 DISK USED  *        41.14 GB
 **********************************************************************************************************************************


 PROGRAM * MP4 (Closed-shell)     Authors: C. Hampel, H.-J. Werner, 1991, M. Deegan, P.J. Knowles, 1992


 Convergence thresholds:  THRVAR = 1.00D-08  THRDEN = 1.00D-06

 MP4(T)     terms to be evaluated (factor= 0.000)


 Number of core orbitals:           4 (   4 )
 Number of closed-shell orbitals:  14 (  14 )
 Number of external orbitals:     373 ( 373 )

 Molecular orbitals read from record     7000.2  Type=PAPT/CANONICAL (state 1.1)

 Number of N-1 electron functions:              14
 Number of N-2 electron functions:             105
 Number of singly external CSFs:              5222
 Number of doubly external CSFs:          13637253
 Total number of CSFs:                    13642476

 Length of J-op  integral file:               0.00 MB
 Length of K-op  integral file:              10.56 MB

 For full I/O caching in triples, increase memory by 85.39 Mwords to 890.75 Mwords.

 Integral transformation finished. Total CPU:  87.02 sec, npass=  1  Memory used: 479.25 MW
 Orbital energies read from record       7000.2  Type=PAPT/CANONICAL (state 1.1)

 Reference energy:                   -210.35373016

                        CORR.ENERGY   TOTAL ENERGY   ENERGY CHANGE
 MP2:                   -0.89893941  -211.25266957    -0.89893941

 SCS-MP2 correlation energy:           -0.90680299   (PS=  1.200000  PT=  0.333333)
 SCS-MP2 total energy:               -211.26053314

 MP3(D):                -0.89935948  -211.25308963    -0.00042007
 MP4(DQ):               -0.88923420  -211.24296436     0.01012527
 MP4(SDQ):              -0.89475488  -211.24848503    -0.00552067

 Norm of t1 vector:      0.05890052      S-energy:    -0.00552067      T1 diagnostic:  0.00787091

 Largest off-diagonal element in interal  block of Fock matrix:  0.11D+00
 Largest off-diagonal element in external block of Fock matrix:  0.41D+00

   CPU time for triples:   1818.10 sec for i =  1 - 13 / 14 (~  81.0 % done)
   CPU time for triples:    341.16 sec for i = 14 - 14 / 14 (  100.0 % done)

 Total CPU time for triples:   2159.26 sec


 RESULTS
 =======

  Reference energy                   -210.353730156533
  MP4(SDQ) singlet pair energy         -0.617910880692
  MP4(SDQ) triplet pair energy         -0.271323323841
  MP4(SDQ) correlation energy          -0.894754875879

  Triples contribution                 -0.036547977931
  Total correlation energy             -0.931302853810

  MP4(SDQ) total energy              -211.248485032413
 !MP4(SDTQ) total energy             -211.285033010343

 Timing summary (sec):

 STEP                 CPU(USER)    SYS     CPU(TOT)    WALL
 Transformation        102.90     13.63    116.53    114.49
 CCSD iterations       624.17      8.17    632.34    127.22
 Triples              2159.26     88.24   2247.50   1876.13

 Program statistics:

 Available memory in ccsd:               805305566
 Min. memory needed in ccsd:              33723737
 Max. memory used in ccsd:                46197170
 Max. memory used in cckext:              33420406 ( 1 integral passes)



 **********************************************************************************************************************************
 DATASETS  * FILE   NREC   LENGTH (MB)   RECORD NAMES
              1      22    13579.23       500      610      700      900      950      970     1000      129      960     1100   
                                          VAR    BASINP    GEOM    SYMINP    ZMAT    AOBASIS   BASIS     P2S    ABASIS      S 
                                         1400     1410     1200     1210     1080     1600     1650     1300     1700     1380   
                                           T        V       H0       H01     AOSYM     SMH    MOLCAS    ERIS     OPER     JKOP   
                                         7000     1380(1)
                                        PAPT AO   JKOP   

              2       6       10.77       700     1000      520     2100     2101     7000   
                                         GEOM     BASIS   MCVARS     RHF      RHF     PAPT   

 PROGRAMS   *        TOTAL       MP4      PAPT    HF-SCF    HF-SCF       INT
 CPU TIMES  *      2886.22   2394.94    199.40     29.54    163.00     99.21
 REAL TIME  *      2705.52 SEC
 DISK USED  *        41.14 GB
 **********************************************************************************************************************************

 Dump information in style XML to xml output                                                                      

 Orbitals will not be exported.

 **********************************************************************************************************************************

 MP4/aug-cc-pVTZ energy=   -211.285033010343

             MP4            PAPT          HF-SCF          HF-SCF
   -211.28503301   -211.24343814   -210.35373016   -210.35373016
 **********************************************************************************************************************************
 Molpro calculation terminated
