
 Working directory              : /var/folders/2v/xbgp75_9785319ghcgb4zr4r0000gp/T//molpro.5rM7LgP2XQ/
 Global scratch directory       : /var/folders/2v/xbgp75_9785319ghcgb4zr4r0000gp/T//molpro.5rM7LgP2XQ/
 Wavefunction directory         : /Users/sacpjk/wfu/
 Main file repository           : /var/folders/2v/xbgp75_9785319ghcgb4zr4r0000gp/T//molpro.5rM7LgP2XQ/

 id        : peterk

 Nodes                        nprocs
 Cardiff-University-G34YLXT77Y    1
 GA implementation: MPI file
 GA implementation (serial work in mppx): MPI file

 Using customized tuning parameters: mindgm=1; mindgv=20; mindgc=4; mindgr=1; noblas=0; minvec=7
 default implementation of scratch files=df  


 Variables initialized (1032), CPU time= 0.00 sec
 
 symmetry,nosym
 
 
 geometry={
            6
     C          0.96745826     -0.11636709      0.00000000
     N         -0.30997205     -0.08985970      0.00000000
     C         -1.52110730     -0.22012413      0.00000000
     H          1.50098112     -0.12812485      0.94177700
     H          1.50098112     -0.12812485     -0.94177700
     H         -2.13834115      0.68260062      0.00000000
 }
 basis=cc-pVDZ
 
 
 
 hf; hf; papt; mp4
 
 
 
 {put,xml;noorbitals,nobasis}
 Commands initialized (841), CPU time= 0.01 sec, 704 directives.
 Default parameters read. Elapsed time= 0.75 sec

 Checking input...
 Passed
1


                                         ***  PROGRAM SYSTEM MOLPRO  ***
                                       Copyright, TTI GmbH Stuttgart, 2015
                                    Version 2023.1 linked Tue Jun  6 09:54:11 2023


 **********************************************************************************************************************************
 LABEL *                                                                                                                                                                 
  64 bit serial version                                                                  DATE: 11-Jun-23          TIME: 13:55:58  
 **********************************************************************************************************************************

 SHA1:             8ebb0dd001088a5c915591db1a321413035db0b1
 **********************************************************************************************************************************

 Memory per process:       393 MW
 Total memory per node:    524 MW
 Total GA space:           131 MW

 GA preallocation disabled
 GA check enabled

 Variable memory set to 393.2 MW

 ZSYMEL=NOSYM


 Geometry recognized as XYZ

 SETTING BASIS          =    CC-PVDZ


 Recomputing integrals since basis changed


 Using spherical harmonics

 Library entry C      S cc-pVDZ              selected for orbital group  1
 Library entry C      P cc-pVDZ              selected for orbital group  1
 Library entry C      D cc-pVDZ              selected for orbital group  1
 Library entry N      S cc-pVDZ              selected for orbital group  2
 Library entry N      P cc-pVDZ              selected for orbital group  2
 Library entry N      D cc-pVDZ              selected for orbital group  2
 Library entry H      S cc-pVDZ              selected for orbital group  4
 Library entry H      P cc-pVDZ              selected for orbital group  4


 PROGRAM * SEWARD (Integral evaluation for generally contracted gaussian basis sets)     Author: Roland Lindh, 1990

 Geometry written to block  1 of record 700


 Point group  C1  



 ATOMIC COORDINATES

 NR  ATOM    CHARGE       X              Y              Z

   1  C       6.00    1.828231148   -0.219901930    0.000000000
   2  N       7.00   -0.585762281   -0.169810223    0.000000000
   3  C       6.00   -2.874476203   -0.415974319    0.000000000
   4  H       1.00    2.836443235   -0.242120876    1.779700600
   5  H       1.00    2.836443235   -0.242120876   -1.779700600
   6  H       1.00   -4.040879135    1.289928224    0.000000000

 Bond lengths in Bohr (Angstrom)

 1-2  2.414513089  1-4  2.045560931  1-5  2.045560931  2-3  2.301914026  3-6  2.066542834
     ( 1.277705302)     ( 1.082464228)     ( 1.082464228)     ( 1.218120444)     ( 1.093567373)

 Bond angles

  1-2-3  172.67236630   2-1-4  119.53777769   2-1-5  119.53777769   2-3-6  118.22330183

  4-1-5  120.92439085

 NUCLEAR CHARGE:                   22
 NUMBER OF PRIMITIVE AOS:         102
 NUMBER OF SYMMETRY AOS:           99
 NUMBER OF CONTRACTIONS:           57   (   57A   )
 NUMBER OF INNER CORE ORBITALS:     0   (    0A   )
 NUMBER OF OUTER CORE ORBITALS:     3   (    3A   )
 NUMBER OF VALENCE ORBITALS:       15   (   15A   )


 NUCLEAR REPULSION ENERGY   61.10533246


 Eigenvalues of metric

         1 0.681E-02 0.724E-02 0.167E-01 0.217E-01 0.273E-01 0.363E-01 0.416E-01 0.453E-01


 Contracted 2-electron integrals neglected if value below      1.0D-11
 AO integral compression algorithm  1   Integral accuracy      1.0D-11

     5.767 MB (compressed) written to integral file ( 43.4%)


 NUMBER OF SORTED TWO-ELECTRON INTEGRALS:    1367031.     BUFFER LENGTH:  32768
 NUMBER OF SEGMENTS:   1  SEGMENT LENGTH:    1367031      RECORD LENGTH: 524288

 Memory used in sort:       1.92 MW

 SORT1 READ     1637414. AND WROTE     1048719. INTEGRALS IN      4 RECORDS. CPU TIME:     0.01 SEC, REAL TIME:     0.01 SEC
 SORT2 READ     1048719. AND WROTE     1367031. INTEGRALS IN     22 RECORDS. CPU TIME:     0.03 SEC, REAL TIME:     0.04 SEC

 FILE SIZES:   FILE 1:    36.0 MBYTE,  FILE 4:    16.8 MBYTE,   TOTAL:     52.8 MBYTE

 OPERATOR DM      FOR CENTER  0  COORDINATES:    0.000000    0.000000    0.000000


 **********************************************************************************************************************************
 DATASETS  * FILE   NREC   LENGTH (MB)   RECORD NAMES
              1      19       33.30       500      610      700      900      950      970     1000      129      960     1100   
                                          VAR    BASINP    GEOM    SYMINP    ZMAT    AOBASIS   BASIS     P2S    ABASIS      S 
                                         1400     1410     1200     1210     1080     1600     1650     1300     1700   
                                           T        V       H0       H01     AOSYM     SMH    MOLCAS    ERIS     OPER   

 PROGRAMS   *        TOTAL       INT
 CPU TIMES  *         0.30      0.20
 REAL TIME  *         2.51 SEC
 DISK USED  *        50.77 MB
 **********************************************************************************************************************************


 Program * Restricted Hartree-Fock

 Orbital guess generated from atomic densities. Full valence occupancy:   18

 Initial occupancy:  11

 NELEC=   22   SYM=1   MS2= 0   THRE=1.0D-08   THRD=3.2D-06   THRG=3.2D-06  HFMA2=F  DIIS_START=2   DIIS_MAX=10   DIIS_INCORE=F

 Level shifts:    0.00 (CLOSED)    0.00 (OPEN)    0.30 (GAP_MIN)

 ITER           ETOT              DE          GRAD        DDIFF     DIIS  NEXP   TIME(IT)  TIME(TOT)  DIAG
   1     -131.79517480    -131.79517480     0.00D+00     0.14D+00     0     0       0.00      0.01    start
   2     -131.82052268      -0.02534788     0.58D-02     0.13D-01     1     0       0.01      0.02    diag
   3     -131.82635014      -0.00582746     0.31D-02     0.51D-02     2     0       0.01      0.03    diag
   4     -131.82881971      -0.00246957     0.13D-02     0.30D-02     3     0       0.00      0.03    diag
   5     -131.82942015      -0.00060044     0.49D-03     0.15D-02     4     0       0.01      0.04    diag
   6     -131.82958643      -0.00016628     0.29D-03     0.97D-03     5     0       0.01      0.05    diag
   7     -131.82959968      -0.00001324     0.83D-04     0.31D-03     6     0       0.00      0.05    diag
   8     -131.82960017      -0.00000049     0.20D-04     0.58D-04     7     0       0.01      0.06    fixocc
   9     -131.82960019      -0.00000003     0.47D-05     0.13D-04     8     0       0.01      0.07    diag
  10     -131.82960020      -0.00000000     0.14D-05     0.43D-05     9     0       0.00      0.07    diag/orth
  11     -131.82960020      -0.00000000     0.33D-06     0.11D-05     9     0       0.01      0.08    diag
  12     -131.82960020      -0.00000000     0.87D-07     0.20D-06     0     0       0.01      0.09    diag

 Final occupancy:  11

 !RHF STATE 1.1 Energy               -131.829600195702
  RHF One-electron energy            -297.990308396319
  RHF Two-electron energy             105.055375740817
  RHF Kinetic energy                  131.653078072579
  RHF Nuclear energy                   61.105332459801
  RHF Virial quotient                  -1.001340812731

 !RHF STATE 1.1 Dipole moment           0.55759254     0.58632160     0.00000000
 Dipole moment /Debye                   1.41725887     1.49028085     0.00000000

 Orbital energies:

           1.1          2.1          3.1          4.1          5.1          6.1          7.1          8.1          9.1         10.1
    -15.651998   -11.286895   -11.267763    -1.294675    -1.025265    -0.753288    -0.674009    -0.662255    -0.549818    -0.465990

          11.1         12.1         13.1
     -0.307823     0.136281     0.155301


 HOMO     11.1    -0.307823 =      -8.3763eV
 LUMO     12.1     0.136281 =       3.7084eV
 LUMO-HOMO         0.444104 =      12.0847eV

 Orbitals saved in record  2100.2


 **********************************************************************************************************************************
 DATASETS  * FILE   NREC   LENGTH (MB)   RECORD NAMES
              1      19       33.30       500      610      700      900      950      970     1000      129      960     1100   
                                          VAR    BASINP    GEOM    SYMINP    ZMAT    AOBASIS   BASIS     P2S    ABASIS      S 
                                         1400     1410     1200     1210     1080     1600     1650     1300     1700   
                                           T        V       H0       H01     AOSYM     SMH    MOLCAS    ERIS     OPER   

              2       4        0.51       700     1000      520     2100   
                                         GEOM     BASIS   MCVARS     RHF  

 PROGRAMS   *        TOTAL    HF-SCF       INT
 CPU TIMES  *         0.39      0.09      0.20
 REAL TIME  *         3.67 SEC
 DISK USED  *        50.77 MB
 **********************************************************************************************************************************


 Program * Restricted Hartree-Fock

 Molecular orbitals read from record     2100.2  Type=RHF/CANONICAL  

 Initial occupancy:  11

 NELEC=   22   SYM=1   MS2= 0   THRE=1.0D-08   THRD=3.2D-06   THRG=3.2D-06  HFMA2=F  DIIS_START=2   DIIS_MAX=10   DIIS_INCORE=F

 Level shifts:    0.00 (CLOSED)    0.00 (OPEN)    0.30 (GAP_MIN)

 ITER           ETOT              DE          GRAD        DDIFF     DIIS  NEXP   TIME(IT)  TIME(TOT)  DIAG
   1     -131.82960020    -131.82960020     0.00D+00     0.15D+00     0     0       0.00      0.00    start
   2     -131.82960020      -0.00000000     0.36D-07     0.88D-07     1     0       0.01      0.01    diag

 Final occupancy:  11

 !RHF STATE 1.1 Energy               -131.829600195704
  RHF One-electron energy            -297.990307634229
  RHF Two-electron energy             105.055374978724
  RHF Kinetic energy                  131.653078141098
  RHF Nuclear energy                   61.105332459801
  RHF Virial quotient                  -1.001340812210

 !RHF STATE 1.1 Dipole moment           0.55760002     0.58632175     0.00000000
 Dipole moment /Debye                   1.41727787     1.49028124     0.00000000

 Orbital energies:

           1.1          2.1          3.1          4.1          5.1          6.1          7.1          8.1          9.1         10.1
    -15.651998   -11.286894   -11.267765    -1.294675    -1.025265    -0.753288    -0.674009    -0.662255    -0.549818    -0.465990

          11.1         12.1         13.1
     -0.307823     0.136281     0.155301


 HOMO     11.1    -0.307823 =      -8.3763eV
 LUMO     12.1     0.136281 =       3.7084eV
 LUMO-HOMO         0.444104 =      12.0847eV

 Orbitals saved in record  2101.2


 **********************************************************************************************************************************
 DATASETS  * FILE   NREC   LENGTH (MB)   RECORD NAMES
              1      19       33.30       500      610      700      900      950      970     1000      129      960     1100   
                                          VAR    BASINP    GEOM    SYMINP    ZMAT    AOBASIS   BASIS     P2S    ABASIS      S 
                                         1400     1410     1200     1210     1080     1600     1650     1300     1700   
                                           T        V       H0       H01     AOSYM     SMH    MOLCAS    ERIS     OPER   

              2       5        0.70       700     1000      520     2100     2101   
                                         GEOM     BASIS   MCVARS     RHF      RHF  

 PROGRAMS   *        TOTAL    HF-SCF    HF-SCF       INT
 CPU TIMES  *         0.41      0.02      0.09      0.20
 REAL TIME  *         4.16 SEC
 DISK USED  *        50.77 MB
 **********************************************************************************************************************************


 PROGRAM * PAPT (Closed-shell)     Authors: C. Hampel, H.-J. Werner, 1991, P.J. Knowles, 2021


 Convergence thresholds:  THRVAR = 1.00D-08  THRDEN = 1.00D-06

 Number of core orbitals:           3 (   3 )
 Number of closed-shell orbitals:   8 (   8 )
 Number of external orbitals:      46 (  46 )

 Molecular orbitals read from record     2101.2  Type=RHF/CANONICAL  

 Number of N-1 electron functions:               8
 Number of N-2 electron functions:              36
 Number of singly external CSFs:               368
 Number of doubly external CSFs:             67896
 Total number of CSFs:                       68265

 Length of J-op  integral file:               0.00 MB
 Length of K-op  integral file:               0.29 MB

 Integral transformation finished. Total CPU:   0.02 sec, npass=  1  Memory used:   0.31 MW

 Reference energy:                   -131.82960020

                        CORR.ENERGY   TOTAL ENERGY   ENERGY CHANGE
 MP2:                   -0.42684292  -132.25644311    -0.42684292

 SCS-MP2 correlation energy:           -0.41942018   (PS=  1.200000  PT=  0.333333)
 SCS-MP2 total energy:               -132.24902038
 Iteration:   1     0.2699D+00
 Iteration:   2     0.6393D+00
 Iteration:   3     0.1024D+00
 Iteration:   4     0.9937D-01
 Iteration:   5     0.4484D-01
 Iteration:   6     0.3133D-01
 Iteration:   7     0.8068D-01
 Iteration:   8     0.8512D-02
 Iteration:   9     0.1096D-01
 Iteration:  10     0.3063D-02
 Iteration:  11     0.2147D-02
 Iteration:  12     0.1697D-02
 Iteration:  13     0.5293D-03
 Iteration:  14     0.2010D-02
 Iteration:  15     0.1863D-03
 Iteration:  16     0.2484D-03
 Iteration:  17     0.8671D-04
 PAPT operator written to  7000.1
 PAPT orbitals and eigenvalues written to  7000.2

 MP3(D):                -0.44412066  -132.27372086    -0.01727775



 RESULTS
 =======

  Reference energy                   -131.829600195704
  MP3 singlet pair energy              -0.297583428260
  MP3 triplet pair energy              -0.146537235609
  MP3 correlation energy               -0.444120663869

 !MP3 total energy                   -132.273720859573

 Timing summary (sec):

 STEP                 CPU(USER)    SYS     CPU(TOT)    WALL
 Transformation          0.02      0.00      0.02      0.12
 CCSD iterations         0.75      0.05      0.80      1.55

 Program statistics:

 Available memory in ccsd:               393215733
 Min. memory needed in ccsd:                229940
 Max. memory used in ccsd:                  280492
 Max. memory used in cckext:                291392 ( 1 integral passes)



 **********************************************************************************************************************************
 DATASETS  * FILE   NREC   LENGTH (MB)   RECORD NAMES
              1      21       34.71       500      610      700      900      950      970     1000      129      960     1100   
                                          VAR    BASINP    GEOM    SYMINP    ZMAT    AOBASIS   BASIS     P2S    ABASIS      S 
                                         1400     1410     1200     1210     1080     1600     1650     1300     1700     1380   
                                           T        V       H0       H01     AOSYM     SMH    MOLCAS    ERIS     OPER     JKOP   
                                         7000   
                                        PAPT AO    

              2       6        0.87       700     1000      520     2100     2101     7000   
                                         GEOM     BASIS   MCVARS     RHF      RHF     PAPT   

 PROGRAMS   *        TOTAL      PAPT    HF-SCF    HF-SCF       INT
 CPU TIMES  *         0.67      0.26      0.02      0.09      0.20
 REAL TIME  *         6.09 SEC
 DISK USED  *        50.77 MB
 **********************************************************************************************************************************


 PROGRAM * MP4 (Closed-shell)     Authors: C. Hampel, H.-J. Werner, 1991, M. Deegan, P.J. Knowles, 1992


 Convergence thresholds:  THRVAR = 1.00D-08  THRDEN = 1.00D-06

 MP4(T)     terms to be evaluated (factor= 0.000)


 Number of core orbitals:           3 (   3 )
 Number of closed-shell orbitals:   8 (   8 )
 Number of external orbitals:      46 (  46 )

 Molecular orbitals read from record     7000.2  Type=PAPT/CANONICAL (state 1.1)

 Number of N-1 electron functions:               8
 Number of N-2 electron functions:              36
 Number of singly external CSFs:               368
 Number of doubly external CSFs:             67896
 Total number of CSFs:                       68265

 Length of J-op  integral file:               0.00 MB
 Length of K-op  integral file:               0.29 MB

 Memory could be reduced to 1.28 Mwords without degradation in triples

 Integral transformation finished. Total CPU:   0.05 sec, npass=  1  Memory used:   1.16 MW
 Orbital energies read from record       7000.2  Type=PAPT/CANONICAL (state 1.1)

 Reference energy:                   -131.82960020

                        CORR.ENERGY   TOTAL ENERGY   ENERGY CHANGE
 MP2:                   -0.44938762  -132.27898782    -0.44938762

 SCS-MP2 correlation energy:           -0.44491935   (PS=  1.200000  PT=  0.333333)
 SCS-MP2 total energy:               -132.27451955

 MP3(D):                -0.44991674  -132.27951693    -0.00052912
 MP4(DQ):               -0.44616897  -132.27576917     0.00374777
 MP4(SDQ):              -0.45298816  -132.28258836    -0.00681919

 Norm of t1 vector:      0.09133304      S-energy:    -0.00681919      T1 diagnostic:  0.01614555

 Largest off-diagonal element in interal  block of Fock matrix:  0.11D+00
 Largest off-diagonal element in external block of Fock matrix:  0.21D+00


 Total CPU time for triples:      0.14 sec


 RESULTS
 =======

  Reference energy                   -131.829600195704
  MP4(SDQ) singlet pair energy         -0.299190623693
  MP4(SDQ) triplet pair energy         -0.146978346940
  MP4(SDQ) correlation energy          -0.452988164356

  Triples contribution                 -0.021499199012
  Total correlation energy             -0.474487363368

  MP4(SDQ) total energy              -132.282588360060
 !MP4(SDTQ) total energy             -132.304087559072

 Timing summary (sec):

 STEP                 CPU(USER)    SYS     CPU(TOT)    WALL
 Transformation          0.06      0.02      0.08      0.26
 CCSD iterations         0.91      0.00      0.91      0.44
 Triples                 0.14      0.01      0.15      0.15

 Program statistics:

 Available memory in ccsd:               393215733
 Min. memory needed in ccsd:                229940
 Max. memory used in ccsd:                  280492
 Max. memory used in cckext:                291392 ( 1 integral passes)



 **********************************************************************************************************************************
 DATASETS  * FILE   NREC   LENGTH (MB)   RECORD NAMES
              1      22       37.75       500      610      700      900      950      970     1000      129      960     1100   
                                          VAR    BASINP    GEOM    SYMINP    ZMAT    AOBASIS   BASIS     P2S    ABASIS      S 
                                         1400     1410     1200     1210     1080     1600     1650     1300     1700     1380   
                                           T        V       H0       H01     AOSYM     SMH    MOLCAS    ERIS     OPER     JKOP   
                                         7000     1380(1)
                                        PAPT AO   JKOP   

              2       6        0.87       700     1000      520     2100     2101     7000   
                                         GEOM     BASIS   MCVARS     RHF      RHF     PAPT   

 PROGRAMS   *        TOTAL       MP4      PAPT    HF-SCF    HF-SCF       INT
 CPU TIMES  *         1.03      0.34      0.26      0.02      0.09      0.20
 REAL TIME  *         7.15 SEC
 DISK USED  *        50.77 MB
 **********************************************************************************************************************************

 Dump information in style XML to xml output                                                                      

 Orbitals will not be exported.

 **********************************************************************************************************************************

 MP4/cc-pVDZ energy=   -132.304087559072

             MP4            PAPT          HF-SCF          HF-SCF
   -132.30408756   -132.27372086   -131.82960020   -131.82960020
 **********************************************************************************************************************************
 Molpro calculation terminated
