
 Working directory              : /var/folders/2v/xbgp75_9785319ghcgb4zr4r0000gp/T//molpro.mNjxRAVsWU/
 Global scratch directory       : /var/folders/2v/xbgp75_9785319ghcgb4zr4r0000gp/T//molpro.mNjxRAVsWU/
 Wavefunction directory         : /Users/sacpjk/wfu/
 Main file repository           : /var/folders/2v/xbgp75_9785319ghcgb4zr4r0000gp/T//molpro.mNjxRAVsWU/

 id        : peterk

 Nodes                        nprocs
 Cardiff-University-G34YLXT77Y    1
 GA implementation: MPI file
 GA implementation (serial work in mppx): MPI file

 Using customized tuning parameters: mindgm=1; mindgv=20; mindgc=4; mindgr=1; noblas=0; minvec=7
 default implementation of scratch files=df  


 Variables initialized (1032), CPU time= 0.00 sec
 
 symmetry,nosym
 
 
 geometry={
 9
  o         -0.922075427238    0.661035175532   -0.004511951808
  h          0.042193368987    0.628562630671   -0.004158221689
  c         -1.383504346250   -0.674416801454    0.003760788250
  h         -2.469790848305   -0.643030365379    0.002898366921
  h         -1.061479151022   -1.233901361304   -0.877768215069
  h         -1.062541236219   -1.222596147687    0.892753686953
  o          1.993369735639    0.564530130397   -0.002063767774
  h          2.432573874862    0.952682329557   -0.761936449984
  h          2.431254029544    0.967134409455    0.751025764305
 }
 basis=aug-cc-pVTZ
 
 
 
 hf; mp2; counterpoise
 
 
 
 {put,xml;noorbitals,nobasis}
 Commands initialized (841), CPU time= 0.01 sec, 704 directives.
 Default parameters read. Elapsed time= 0.06 sec

 Checking input...
 Passed
1


                                         ***  PROGRAM SYSTEM MOLPRO  ***
                                       Copyright, TTI GmbH Stuttgart, 2015
                                    Version 2023.1 linked Tue Jun  6 09:54:11 2023


 **********************************************************************************************************************************
 LABEL *                                                                                                                                                                 
  64 bit serial version                                                                  DATE: 07-Jun-23          TIME: 07:33:19  
 **********************************************************************************************************************************

 SHA1:             8ebb0dd001088a5c915591db1a321413035db0b1
 **********************************************************************************************************************************

 Memory per process:       805 MW
 Total memory per node:   1074 MW
 Total GA space:           268 MW

 GA preallocation disabled
 GA check enabled

 Variable memory set to 805.3 MW

 ZSYMEL=NOSYM


 Geometry recognized as XYZ

 SETTING BASIS          =    AUG-CC-PVTZ


 Recomputing integrals since basis changed


 Using spherical harmonics

 Library entry O      S aug-cc-pVTZ          selected for orbital group  1
 Library entry O      P aug-cc-pVTZ          selected for orbital group  1
 Library entry O      D aug-cc-pVTZ          selected for orbital group  1
 Library entry O      F aug-cc-pVTZ          selected for orbital group  1
 Library entry H      S aug-cc-pVTZ          selected for orbital group  2
 Library entry H      P aug-cc-pVTZ          selected for orbital group  2
 Library entry H      D aug-cc-pVTZ          selected for orbital group  2
 Library entry C      S aug-cc-pVTZ          selected for orbital group  3
 Library entry C      P aug-cc-pVTZ          selected for orbital group  3
 Library entry C      D aug-cc-pVTZ          selected for orbital group  3
 Library entry C      F aug-cc-pVTZ          selected for orbital group  3


 PROGRAM * SEWARD (Integral evaluation for generally contracted gaussian basis sets)     Author: Roland Lindh, 1990

 Geometry written to block  1 of record 700


 Point group  C1  



 ATOMIC COORDINATES

 NR  ATOM    CHARGE       X              Y              Z

   1  O       8.00   -1.742470024    1.249175440   -0.008526353
   2  H       1.00    0.079733912    1.187811224   -0.007857900
   3  C       6.00   -2.614444307   -1.274463049    0.007106860
   4  H       1.00   -4.667228288   -1.215151280    0.005477120
   5  H       1.00   -2.005904882   -2.331735638   -1.658741527
   6  H       1.00   -2.007911933   -2.310371880    1.687059965
   7  O       8.00    3.766922865    1.066807336   -0.003899956
   8  H       1.00    4.596898401    1.800308687   -1.439851215
   9  H       1.00    4.594404255    1.827619160    1.419233007

 Bond lengths in Bohr (Angstrom)

 1-2  1.823237010  1-3  2.670081417  3-4  2.053641307  3-5  2.064750931  3-6  2.064759324
     ( 0.964815476)     ( 1.412946237)     ( 1.086740179)     ( 1.092619139)     ( 1.092623580)

 7-8  1.813515823  7-9  1.813523507
     ( 0.959671245)     ( 0.959675312)

 Bond angles

  1-3-4  107.40559297   1-3-5  112.51964703   1-3-6  112.52114044   2-1-3  107.13200477

  4-3-5  107.98411746   4-3-6  107.98497415   5-3-6  108.23763290   8-7-9  104.05491273

 NUCLEAR CHARGE:                   28
 NUMBER OF PRIMITIVE AOS:         363
 NUMBER OF SYMMETRY AOS:          324
 NUMBER OF CONTRACTIONS:          276   (  276A   )
 NUMBER OF INNER CORE ORBITALS:     0   (    0A   )
 NUMBER OF OUTER CORE ORBITALS:     3   (    3A   )
 NUMBER OF VALENCE ORBITALS:       18   (   18A   )


 NUCLEAR REPULSION ENERGY   78.74537443


 Eigenvalues of metric

         1 0.515E-04 0.522E-04 0.835E-04 0.923E-04 0.234E-03 0.299E-03 0.311E-03 0.324E-03


 Contracted 2-electron integrals neglected if value below      1.0D-11
 AO integral compression algorithm  1   Integral accuracy      1.0D-11

     2758.279 MB (compressed) written to integral file ( 42.1%)


 NUMBER OF SORTED TWO-ELECTRON INTEGRALS:  730632651.     BUFFER LENGTH:  32768
 NUMBER OF SEGMENTS:  46  SEGMENT LENGTH:   15999984      RECORD LENGTH: 262144

 Memory used in sort:      16.29 MW

 SORT1 READ   818610096. AND WROTE   652617786. INTEGRALS IN   3759 RECORDS. CPU TIME:     6.23 SEC, REAL TIME:     9.23 SEC
 SORT2 READ   652617786. AND WROTE   730632651. INTEGRALS IN  10522 RECORDS. CPU TIME:     4.25 SEC, REAL TIME:    15.17 SEC

 FILE SIZES:   FILE 1:  2791.2 MBYTE,  FILE 4:  7883.3 MBYTE,   TOTAL:  10674.5 MBYTE

 OPERATOR DM      FOR CENTER  0  COORDINATES:    0.000000    0.000000    0.000000


 **********************************************************************************************************************************
 DATASETS  * FILE   NREC   LENGTH (MB)   RECORD NAMES
              1      19     2394.36       500      610      700      900      950      970     1000      129      960     1100   
                                          VAR    BASINP    GEOM    SYMINP    ZMAT    AOBASIS   BASIS     P2S    ABASIS      S 
                                         1400     1410     1200     1210     1080     1600     1650     1300     1700   
                                           T        V       H0       H01     AOSYM     SMH    MOLCAS    ERIS     OPER   

 PROGRAMS   *        TOTAL       INT
 CPU TIMES  *        25.17     25.08
 REAL TIME  *        44.50 SEC
 DISK USED  *         9.94 GB
 **********************************************************************************************************************************


 Program * Restricted Hartree-Fock

 Orbital guess generated from atomic densities. Full valence occupancy:   21

 Initial occupancy:  14

 NELEC=   28   SYM=1   MS2= 0   THRE=1.0D-08   THRD=3.2D-06   THRG=3.2D-06  HFMA2=F  DIIS_START=2   DIIS_MAX=10   DIIS_INCORE=F

 Level shifts:    0.00 (CLOSED)    0.00 (OPEN)    0.30 (GAP_MIN)

 ITER           ETOT              DE          GRAD        DDIFF     DIIS  NEXP   TIME(IT)  TIME(TOT)  DIAG
   1     -191.09170581    -191.09170581     0.00D+00     0.38D-01     0     0       3.31      6.31    start
   2     -191.14264504      -0.05093922     0.45D-02     0.49D-02     1     0       3.33      9.64    diag
   3     -191.15720111      -0.01455607     0.25D-02     0.16D-02     2     0       3.22     12.86    diag
   4     -191.15790946      -0.00070835     0.39D-03     0.36D-03     3     0       3.35     16.21    diag
   5     -191.15795634      -0.00004688     0.83D-04     0.85D-04     4     0       3.48     19.69    diag
   6     -191.15795884      -0.00000250     0.20D-04     0.23D-04     5     0       3.37     23.06    diag
   7     -191.15795917      -0.00000033     0.95D-05     0.76D-05     6     0       3.43     26.49    diag
   8     -191.15795919      -0.00000003     0.18D-05     0.27D-05     7     0       3.30     29.79    fixocc
   9     -191.15795920      -0.00000000     0.43D-06     0.57D-06     8     0       3.31     33.10    diag
  10     -191.15795920      -0.00000000     0.14D-06     0.15D-06     0     0       3.45     36.55    diag/orth

 Final occupancy:  14

 !RHF STATE 1.1 Energy               -191.157959196004
  RHF One-electron energy            -418.524686232732
  RHF Two-electron energy             148.621352602577
  RHF Kinetic energy                  190.899271510581
  RHF Nuclear energy                   78.745374434150
  RHF Virial quotient                  -1.001355100433

 !RHF STATE 1.1 Dipole moment           1.24248402    -0.00337251    -0.00094642
 Dipole moment /Debye                   3.15807938    -0.00857207    -0.00240555

 Orbital energies:

           1.1          2.1          3.1          4.1          5.1          6.1          7.1          8.1          9.1         10.1
    -20.593318   -20.529528   -11.251290    -1.381049    -1.332712    -0.905021    -0.741990    -0.678216    -0.611342    -0.599249

          11.1         12.1         13.1         14.1         15.1         16.1
     -0.572886    -0.539037    -0.478847    -0.426479     0.022045     0.041616


 HOMO     14.1    -0.426479 =     -11.6051eV
 LUMO     15.1     0.022045 =       0.5999eV
 LUMO-HOMO         0.448524 =      12.2050eV

 Orbitals saved in record  2100.2


 **********************************************************************************************************************************
 DATASETS  * FILE   NREC   LENGTH (MB)   RECORD NAMES
              1      19     2394.36       500      610      700      900      950      970     1000      129      960     1100   
                                          VAR    BASINP    GEOM    SYMINP    ZMAT    AOBASIS   BASIS     P2S    ABASIS      S 
                                         1400     1410     1200     1210     1080     1600     1650     1300     1700   
                                           T        V       H0       H01     AOSYM     SMH    MOLCAS    ERIS     OPER   

              2       4        1.71       700     1000      520     2100   
                                         GEOM     BASIS   MCVARS     RHF  

 PROGRAMS   *        TOTAL    HF-SCF       INT
 CPU TIMES  *        61.72     36.55     25.08
 REAL TIME  *        92.77 SEC
 DISK USED  *         9.94 GB
 **********************************************************************************************************************************


 PROGRAM * MP2 (Closed-shell)     Authors: C. Hampel, H.-J. Werner, 1991, M. Deegan, P.J. Knowles, 1992


 Convergence thresholds:  THRVAR = 1.00D-08  THRDEN = 1.00D-06

 Number of core orbitals:           3 (   3 )
 Number of closed-shell orbitals:  11 (  11 )
 Number of external orbitals:     262 ( 262 )

 Molecular orbitals read from record     2100.2  Type=RHF/CANONICAL  

 Number of N-1 electron functions:              11
 Number of N-2 electron functions:              66
 Number of singly external CSFs:              2882
 Number of doubly external CSFs:           4154403
 Total number of CSFs:                     4157286

 Length of J-op  integral file:               0.00 MB
 Length of K-op  integral file:               5.29 MB

 Integral transformation finished. Total CPU:   6.12 sec, npass=  1  Memory used:  10.04 MW

 Memory needed for MP2:                      0.37 MW

 SCS-MP2 correlation energy:           -0.705425915994   (PS=  1.200000  PT=  0.333333)
 SCS-MP2 total energy:               -191.863385111999


  Reference energy                   -191.157959196005
  MP2 singlet pair energy              -0.458132612904
  MP2 triplet pair energy              -0.250178754391
  MP2 correlation energy               -0.708311367295

 !MP2 total energy                   -191.866270563300


 **********************************************************************************************************************************
 DATASETS  * FILE   NREC   LENGTH (MB)   RECORD NAMES
              1      20     2453.13       500      610      700      900      950      970     1000      129      960     1100   
                                          VAR    BASINP    GEOM    SYMINP    ZMAT    AOBASIS   BASIS     P2S    ABASIS      S 
                                         1400     1410     1200     1210     1080     1600     1650     1300     1700     1380   
                                           T        V       H0       H01     AOSYM     SMH    MOLCAS    ERIS     OPER     JKOP   

              2       4        1.71       700     1000      520     2100   
                                         GEOM     BASIS   MCVARS     RHF  

 PROGRAMS   *        TOTAL       MP2    HF-SCF       INT
 CPU TIMES  *        68.16      6.44     36.55     25.08
 REAL TIME  *       100.84 SEC
 DISK USED  *         9.94 GB
 **********************************************************************************************************************************

 Counterpoise: absolute minimum monomer separation=    -1.000 Bragg radius scale factor=     1.400 Number of monomers= 2

 Counterpoise  MP2  energy

 Running default procedure: HF-SCF000  MP2

 Assignment of unique atoms to monomers:
1-9     1     1     1     1     1     1     2     2     2

 *** Long output written to logfile /Users/sacpjk/current/PAPT/S66/04eef7c2/08.molpro/run/1.molpro/1.log ***


 Description                       ENERGY          ENERGR          ENERGC
 Raw                        -191.86627056   -191.15795920   -191.86627056
 Dimer basis, monomer 1     -115.52919895   -115.09195916   -115.52919895
 Dimer basis, monomer 2      -76.32945175    -76.06048696    -76.32945175
 Monomer basis, monomer 1   -115.52885808   -115.09190072   -115.52885808
 Monomer basis, monomer 2    -76.32898660    -76.06040794    -76.32898660
 Counterpoise correction       0.00080602      0.00013746      0.00080602
 Counterpoise corrected     -191.86546455   -191.15782174   -191.86546455


 **********************************************************************************************************************************
 DATASETS  * FILE   NREC   LENGTH (MB)   RECORD NAMES
              1      18       31.42       500      610      700      900      950      970     1000      129      960     1100   
                                          VAR    BASINP    GEOM    SYMINP    ZMAT    AOBASIS   BASIS     P2S    ABASIS      S 
                                         1400     1410     1200     1210     1080     1600     1650     1700   
                                           T        V       H0       H01     AOSYM     SMH    MOLCAS    OPER   

              2      12        8.77       700     1000      520     2100     2101     2102      701     1001     2103      702   
                                         GEOM     BASIS   MCVARS     RHF      RHF      RHF     GEOM     BASIS     RHF     GEOM   
                                         1002     2104   
                                         BASIS     RHF  

 PROGRAMS   *        TOTALCOUNTERPOI    HF-SCF       INT       MP2    HF-SCF       INT       MP2    HF-SCF       INT       MP2
 CPU TIMES  *       154.49      0.17      0.36      0.36      0.79      5.81      4.65      3.78     32.10      0.04      4.88
 REAL TIME  *       210.76 SEC
 DISK USED  *         9.94 GB
 **********************************************************************************************************************************

 Dump information in style XML to xml output                                                                      

 Orbitals will not be exported.

 **********************************************************************************************************************************

 MP2/aug-cc-pVTZ energy=   -191.865464545437

             MP2          HF-SCF             MP2          HF-SCF             MP2          HF-SCF             MP2          HF-SCF
    -76.32898660    -76.06040794   -115.52885808   -115.09190072    -76.32945175    -76.06048696   -115.52919895   -115.09195916
 **********************************************************************************************************************************
 Molpro calculation terminated
