
 Working directory              : /var/folders/2v/xbgp75_9785319ghcgb4zr4r0000gp/T//molpro.2Ktiy52479/
 Global scratch directory       : /var/folders/2v/xbgp75_9785319ghcgb4zr4r0000gp/T//molpro.2Ktiy52479/
 Wavefunction directory         : /Users/sacpjk/wfu/
 Main file repository           : /var/folders/2v/xbgp75_9785319ghcgb4zr4r0000gp/T//molpro.2Ktiy52479/

 id        : peterk

 Nodes                        nprocs
 Cardiff-University-G34YLXT77Y    1
 GA implementation: MPI file
 GA implementation (serial work in mppx): MPI file

 Using customized tuning parameters: mindgm=1; mindgv=20; mindgc=4; mindgr=1; noblas=0; minvec=7
 default implementation of scratch files=df  


 Variables initialized (1032), CPU time= 0.00 sec
 
 core,small
 angstrom
 
 geometry={
 H1;O1,H1,0.9619;O2,O1,1.4497,H1,99.99;H2,O2,0.9619,O1,99.99,H1,112.7
 }
 basis=cc-pCVQZ
 
 
 
 hf; ccsd
 
 
 
 {put,xml;noorbitals,nobasis}
 Commands initialized (841), CPU time= 0.00 sec, 704 directives.
 Default parameters read. Elapsed time= 1.43 sec

 Checking input...
 Passed
1


                                         ***  PROGRAM SYSTEM MOLPRO  ***
                                       Copyright, TTI GmbH Stuttgart, 2015
                                    Version 2023.1 linked Tue Jun  6 09:54:11 2023


 **********************************************************************************************************************************
 LABEL *                                                                                                                                                                 
  64 bit serial version                                                                  DATE: 12-Jun-23          TIME: 10:45:27  
 **********************************************************************************************************************************

 SHA1:             8ebb0dd001088a5c915591db1a321413035db0b1
 **********************************************************************************************************************************

 Memory per process:       393 MW
 Total memory per node:    524 MW
 Total GA space:           131 MW

 GA preallocation disabled
 GA check enabled

 Variable memory set to 393.2 MW

 ZUNIT=ANG

 SETTING BASIS          =    CC-PCVQZ


 Recomputing integrals since basis changed


 Using spherical harmonics

 Library entry H      S cc-pVQZ              selected for orbital group  1
 Library entry H      P cc-pVQZ              selected for orbital group  1
 Library entry H      D cc-pVQZ              selected for orbital group  1
 Library entry H      F cc-pVQZ              selected for orbital group  1
 Library entry O      S cc-pCVQZ             selected for orbital group  2
 Library entry O      P cc-pCVQZ             selected for orbital group  2
 Library entry O      D cc-pCVQZ             selected for orbital group  2
 Library entry O      F cc-pCVQZ             selected for orbital group  2
 Library entry O      G cc-pCVQZ             selected for orbital group  2


 PROGRAM * SEWARD (Integral evaluation for generally contracted gaussian basis sets)     Author: Roland Lindh, 1990

 Geometry written to block  1 of record 700

 Orientation using atomic masses  
 Molecule type: Asymmetric top,     Order of principal axis = 2
 Symmetry elements: XY
 Rotational constants:      26.5232282    304.4736754     25.6942510 GHz  (calculated with average atomic masses)

 Point group  C2  



 ATOMIC COORDINATES

 NR  ATOM    CHARGE       X              Y              Z

   1  H1      1.00    1.347424735   -1.801309636   -0.933175495
   2  H2      1.00   -1.347424735    1.801309636   -0.933175495
   3  O1      8.00   -0.112004019   -1.365181095    0.058788761
   4  O2      8.00    0.112004019    1.365181095    0.058788761

 Bond lengths in Bohr (Angstrom)

 1-3  1.817727559  2-4  1.817727559  3-4  2.739535963
     ( 0.961900000)     ( 0.961900000)     ( 1.449700000)

 Bond angles

  1-3-4   99.99000000   2-4-3   99.99000000

 NUCLEAR CHARGE:                   18
 NUMBER OF PRIMITIVE AOS:         308
 NUMBER OF SYMMETRY AOS:          258
 NUMBER OF CONTRACTIONS:          228   (  114A   +  114B   )
 NUMBER OF INNER CORE ORBITALS:     0   (    0A   +    0B   )
 NUMBER OF OUTER CORE ORBITALS:     2   (    1A   +    1B   )
 NUMBER OF VALENCE ORBITALS:       10   (    5A   +    5B   )


 NUCLEAR REPULSION ENERGY   36.90490578

 Eigenvalues of metric

         1 0.263E-04 0.329E-03 0.135E-02 0.156E-02 0.210E-02 0.228E-02 0.251E-02 0.616E-02
         2 0.254E-04 0.350E-03 0.112E-02 0.162E-02 0.194E-02 0.237E-02 0.250E-02 0.359E-02


 Contracted 2-electron integrals neglected if value below      1.0D-12
 AO integral compression algorithm  1   Integral accuracy      1.0D-12

     1041.498 MB (compressed) written to integral file ( 48.2%)


 NUMBER OF SORTED TWO-ELECTRON INTEGRALS:  171878655.     BUFFER LENGTH:  32768
 NUMBER OF SEGMENTS:  11  SEGMENT LENGTH:   15998114      RECORD LENGTH: 524288

 Memory used in sort:      16.56 MW

 SORT1 READ   270083968. AND WROTE   146174763. INTEGRALS IN    424 RECORDS. CPU TIME:     1.62 SEC, REAL TIME:     2.20 SEC
 SORT2 READ   146174763. AND WROTE   171878655. INTEGRALS IN   3973 RECORDS. CPU TIME:     1.17 SEC, REAL TIME:     1.49 SEC

 FILE SIZES:   FILE 1:  1072.8 MBYTE,  FILE 4:  1778.5 MBYTE,   TOTAL:   2851.3 MBYTE

 OPERATOR DM      FOR CENTER  0  COORDINATES:    0.000000    0.000000    0.000000


 **********************************************************************************************************************************
 DATASETS  * FILE   NREC   LENGTH (MB)   RECORD NAMES
              1      19      709.61       500      610      700      900      950      970     1000      129      960     1100   
                                          VAR    BASINP    GEOM    SYMINP    ZMAT    AOBASIS   BASIS     P2S    ABASIS      S 
                                         1400     1410     1200     1210     1080     1600     1650     1300     1700   
                                           T        V       H0       H01     AOSYM     SMH    MOLCAS    ERIS     OPER   

 PROGRAMS   *        TOTAL       INT
 CPU TIMES  *         9.28      9.18
 REAL TIME  *        14.43 SEC
 DISK USED  *         2.66 GB
 **********************************************************************************************************************************


 Program * Restricted Hartree-Fock

 Orbital guess generated from atomic densities. Full valence occupancy:    6   6

 Initial occupancy:   5   4

 NELEC=   18   SYM=1   MS2= 0   THRE=1.0D-08   THRD=3.2D-06   THRG=3.2D-06  HFMA2=F  DIIS_START=2   DIIS_MAX=10   DIIS_INCORE=F

 Level shifts:    0.00 (CLOSED)    0.00 (OPEN)    0.30 (GAP_MIN)

 ITER           ETOT              DE          GRAD        DDIFF     DIIS  NEXP   TIME(IT)  TIME(TOT)  DIAG
   1     -150.82067316    -150.82067316     0.00D+00     0.51D-01     0     0       0.51      1.00    start
   2     -150.84743766      -0.02676450     0.62D-02     0.40D-02     1     0       0.50      1.50    diag
   3     -150.84860997      -0.00117231     0.14D-02     0.65D-03     2     0       0.55      2.05    diag
   4     -150.84874114      -0.00013117     0.34D-03     0.29D-03     3     0       0.55      2.60    diag
   5     -150.84875730      -0.00001617     0.13D-03     0.88D-04     4     0       0.55      3.15    diag
   6     -150.84875888      -0.00000157     0.30D-04     0.26D-04     5     0       0.55      3.70    diag
   7     -150.84875897      -0.00000009     0.61D-05     0.64D-05     6     0       0.54      4.24    diag
   8     -150.84875897      -0.00000001     0.14D-05     0.19D-05     7     0       0.54      4.78    fixocc
   9     -150.84875897      -0.00000000     0.40D-06     0.27D-06     0     0       0.50      5.28    diag

 Final occupancy:   5   4

 !RHF STATE 1.1 Energy               -150.848758971460
  RHF One-electron energy            -281.534497490281
  RHF Two-electron energy              93.780832735230
  RHF Kinetic energy                  150.669670224495
  RHF Nuclear energy                   36.904905783591
  RHF Virial quotient                  -1.001188618431

 !RHF STATE 1.1 Dipole moment           0.00000000     0.00000000    -0.74275931
 Dipole moment /Debye                   0.00000000     0.00000000    -1.88790586

 Orbital energies:

           1.1          2.1          3.1          4.1          5.1          6.1          7.1
    -20.627961    -1.475833    -0.714211    -0.609329    -0.518653     0.122976     0.464406

           1.2          2.2          3.2          4.2          5.2          6.2
    -20.627669    -1.214457    -0.711318    -0.486987     0.134599     0.256117


 HOMO      4.2    -0.486987 =     -13.2516eV
 LUMO      6.1     0.122976 =       3.3463eV
 LUMO-HOMO         0.609963 =      16.5979eV

 Orbitals saved in record  2100.2


 **********************************************************************************************************************************
 DATASETS  * FILE   NREC   LENGTH (MB)   RECORD NAMES
              1      19      709.61       500      610      700      900      950      970     1000      129      960     1100   
                                          VAR    BASINP    GEOM    SYMINP    ZMAT    AOBASIS   BASIS     P2S    ABASIS      S 
                                         1400     1410     1200     1210     1080     1600     1650     1300     1700   
                                           T        V       H0       H01     AOSYM     SMH    MOLCAS    ERIS     OPER   

              2       4        0.84       700     1000      520     2100   
                                         GEOM     BASIS   MCVARS     RHF  

 PROGRAMS   *        TOTAL    HF-SCF       INT
 CPU TIMES  *        14.57      5.29      9.18
 REAL TIME  *        21.42 SEC
 DISK USED  *         2.66 GB
 **********************************************************************************************************************************


 PROGRAM * CCSD (Closed-shell coupled cluster)     Authors: C. Hampel, H.-J. Werner, 1991, M. Deegan, P.J. Knowles, 1992


 CORETYPE=SMALL

 Convergence thresholds:  THRVAR = 1.00D-08  THRDEN = 1.00D-06

 Number of closed-shell orbitals:   9 (   5   4 )
 Number of external orbitals:     219 ( 109 110 )

 Molecular orbitals read from record     2100.2  Type=RHF/CANONICAL  

 Number of N-1 electron functions:               9
 Number of N-2 electron functions:              45
 Number of singly external CSFs:               985
 Number of doubly external CSFs:            972196
 Total number of CSFs:                      973182

 Length of J-op  integral file:               0.00 MB
 Length of K-op  integral file:               1.85 MB
 Length of 3-ext integral record:             0.00 MB

 Integral transformation finished. Total CPU:   2.36 sec, npass=  1  Memory used:  23.18 MW

 Reference energy:                   -150.84875897

 MP2 singlet pair energy:              -0.43866674
 MP2 triplet pair energy:              -0.21643747
 MP2 correlation energy:               -0.65510421
 MP2 total energy:                   -151.50386318

 SCS-MP2 correlation energy:           -0.66107229   (PS=  1.200000  PT=  0.333333)
 SCS-MP2 total energy:               -151.50983126

 ITER.      SQ.NORM     CORR.ENERGY   TOTAL ENERGY   ENERGY CHANGE        DEN1      VAR(S)    VAR(P)  DIIS     TIME  TIME/IT
   1      1.12192092    -0.65872370  -151.50748267    -0.00361949     0.01102491  0.19D-02  0.24D-02  1  1    18.47     1.69
   2      1.13028007    -0.65891275  -151.50767172    -0.00018905    -0.01199413  0.45D-04  0.31D-03  2  2    19.91     1.74
   3      1.13344761    -0.65903804  -151.50779701    -0.00012529    -0.00196866  0.17D-04  0.28D-04  3  3    21.32     1.71
   4      1.13504927    -0.65904254  -151.50780152    -0.00000450    -0.00087932  0.15D-05  0.22D-05  4  4    22.76     1.72
   5      1.13538428    -0.65904432  -151.50780329    -0.00000178    -0.00011419  0.52D-06  0.19D-06  5  5    24.18     1.70
   6      1.13545987    -0.65904398  -151.50780295     0.00000034    -0.00000610  0.99D-07  0.27D-07  6  6    25.65     1.71
   7      1.13547917    -0.65904403  -151.50780300    -0.00000005    -0.00000260  0.18D-07  0.46D-08  6  2    27.19     1.73
   8      1.13548409    -0.65904341  -151.50780238     0.00000063     0.00000035  0.35D-08  0.95D-09  6  1    28.67     1.73

 Norm of t1 vector:      0.05581511      S-energy:    -0.00000023      T1 diagnostic:  0.00930252
                                                                       D1 diagnostic:  0.02331509
                                                                       D2 diagnostic:  0.17559251 (internal)

 Doubles amplitudes (print threshold =  0.500E-01):

         I         J         SYM. A    SYM. B    A         B      T(IJ, AB)

         4         4         2         2         2         2     -0.05325520


 RESULTS
 =======

  Reference energy                   -150.848758971459

  Correlated core orbitals:             1.1       1.2
  Orbital energies:                   -20.6280  -20.6277

  CCSD core-core energy                -0.080117117004
  CCSD core-valence energy             -0.039159771112
  CCSD valence correlation energy      -0.539766518212

  CCSD singlet pair energy             -0.467170468190
  CCSD triplet pair energy             -0.191872703763
  CCSD correlation energy              -0.659043406328

 !CCSD total energy                  -151.507802377787

 Timing summary (sec):

 STEP                 CPU(USER)    SYS     CPU(TOT)    WALL
 Transformation          2.37      0.21      2.58      2.76
 CCSD iterations        26.32      1.25     27.57     14.84

 Program statistics:

 Available memory in ccsd:               393215671
 Min. memory needed in ccsd:               2747478
 Max. memory used in ccsd:                 3593660
 Max. memory used in cckext:               4049185 ( 8 integral passes)



 **********************************************************************************************************************************
 DATASETS  * FILE   NREC   LENGTH (MB)   RECORD NAMES
              1      20      904.54       500      610      700      900      950      970     1000      129      960     1100   
                                          VAR    BASINP    GEOM    SYMINP    ZMAT    AOBASIS   BASIS     P2S    ABASIS      S 
                                         1400     1410     1200     1210     1080     1600     1650     1300     1700     1380   
                                           T        V       H0       H01     AOSYM     SMH    MOLCAS    ERIS     OPER     JKOP   

              2       4        0.84       700     1000      520     2100   
                                         GEOM     BASIS   MCVARS     RHF  

 PROGRAMS   *        TOTAL      CCSD    HF-SCF       INT
 CPU TIMES  *        28.58     14.01      5.29      9.18
 REAL TIME  *        40.07 SEC
 DISK USED  *         2.66 GB
 **********************************************************************************************************************************

 Dump information in style XML to xml output                                                                      

 Orbitals will not be exported.

 **********************************************************************************************************************************

 CCSD/cc-pCVQZ energy=   -151.507802377787

            CCSD          HF-SCF
   -151.50780238   -150.84875897
 **********************************************************************************************************************************
 Molpro calculation terminated
