
 Working directory              : /tmp/peterk/molpro.FUSl1zuqm4/
 Global scratch directory       : /tmp/peterk/molpro.FUSl1zuqm4/
 Wavefunction directory         : /home/peterk/wfu/
 Main file repository           : /tmp/peterk/molpro.FUSl1zuqm4/

 id        : peterk

 Nodes     nprocs
 marat        1
 GA implementation: MPI file
 GA implementation (serial work in mppx): MPI file

 Using customized tuning parameters: mindgm=1; mindgv=20; mindgc=4; mindgr=1; noblas=0; minvec=7
 default implementation of scratch files=df  


 Variables initialized (1032), CPU time= 0.00 sec
 
 core,small
 angstrom
 
 geometry={
 H1;O1,H1,0.9619;O2,O1,1.4497,H1,99.99;H2,O2,0.9619,O1,99.99,H1,112.7
 }
 basis=cc-pCVTZ
 
 
 
 hf
 
 
 
 {put,xml;noorbitals,nobasis}
 Commands initialized (841), CPU time= 0.01 sec, 708 directives.
 Default parameters read. Elapsed time= 0.05 sec

 Checking input...
 Passed
1


                                         ***  PROGRAM SYSTEM MOLPRO  ***
                                       Copyright, TTI GmbH Stuttgart, 2015
                                    Version 2023.1 linked Sat Jun 10 08:01:27 2023


 **********************************************************************************************************************************
 LABEL *                                                                                                                                                                 
  (16 PROC) 64 bit serial version                                                        DATE: 12-Jun-23          TIME: 10:21:39  
 **********************************************************************************************************************************

 SHA1:             8376d659ba1296ca7ee514c57770fe2c96af278c
 **********************************************************************************************************************************

 Memory per process:      1074 MW
 Total memory per node:   1074 MW

 GA preallocation disabled
 GA check disabled

 Variable memory set to 1073.7 MW

 ZUNIT=ANG

 SETTING BASIS          =    CC-PCVTZ


 Recomputing integrals since basis changed


 Using spherical harmonics

 Library entry H      S cc-pVTZ              selected for orbital group  1
 Library entry H      P cc-pVTZ              selected for orbital group  1
 Library entry H      D cc-pVTZ              selected for orbital group  1
 Library entry O      S cc-pCVTZ             selected for orbital group  2
 Library entry O      P cc-pCVTZ             selected for orbital group  2
 Library entry O      D cc-pCVTZ             selected for orbital group  2
 Library entry O      F cc-pCVTZ             selected for orbital group  2


 PROGRAM * SEWARD (Integral evaluation for generally contracted gaussian basis sets)     Author: Roland Lindh, 1990

 Geometry written to block  1 of record 700

 Orientation using atomic masses  
 Molecule type: Asymmetric top,     Order of principal axis = 2
 Symmetry elements: XY
 Rotational constants:      26.5232282    304.4736754     25.6942510 GHz  (calculated with average atomic masses)

 Point group  C2  



 ATOMIC COORDINATES

 NR  ATOM    CHARGE       X              Y              Z

   1  H1      1.00    1.347424735   -1.801309636   -0.933175495
   2  H2      1.00   -1.347424735    1.801309636   -0.933175495
   3  O1      8.00   -0.112004019   -1.365181095    0.058788761
   4  O2      8.00    0.112004019    1.365181095    0.058788761

 Bond lengths in Bohr (Angstrom)

 1-3  1.817727559  2-4  1.817727559  3-4  2.739535963
     ( 0.961900000)     ( 0.961900000)     ( 1.449700000)

 Bond angles

  1-3-4   99.99000000   2-4-3   99.99000000

 NUCLEAR CHARGE:                   18
 NUMBER OF PRIMITIVE AOS:         156
 NUMBER OF SYMMETRY AOS:          142
 NUMBER OF CONTRACTIONS:          114   (   57A   +   57B   )
 NUMBER OF INNER CORE ORBITALS:     0   (    0A   +    0B   )
 NUMBER OF OUTER CORE ORBITALS:     2   (    1A   +    1B   )
 NUMBER OF VALENCE ORBITALS:       10   (    5A   +    5B   )


 NUCLEAR REPULSION ENERGY   36.90490578

 Eigenvalues of metric

         1 0.256E-02 0.404E-02 0.899E-02 0.140E-01 0.258E-01 0.273E-01 0.325E-01 0.702E-01
         2 0.291E-02 0.321E-02 0.804E-02 0.106E-01 0.145E-01 0.257E-01 0.312E-01 0.391E-01


 Contracted 2-electron integrals neglected if value below      1.0D-11
 AO integral compression algorithm  1   Integral accuracy      1.0D-11

     66.847 MB (compressed) written to integral file ( 44.2%)


 NUMBER OF SORTED TWO-ELECTRON INTEGRALS:   10931289.     BUFFER LENGTH:  32768
 NUMBER OF SEGMENTS:   1  SEGMENT LENGTH:   10931289      RECORD LENGTH: 524288

 Memory used in sort:      11.49 MW

 SORT1 READ    18931808. AND WROTE     9156465. INTEGRALS IN     27 RECORDS. CPU TIME:     0.09 SEC, REAL TIME:     0.16 SEC
 SORT2 READ     9156465. AND WROTE    10931289. INTEGRALS IN    255 RECORDS. CPU TIME:     0.18 SEC, REAL TIME:     0.20 SEC

 FILE SIZES:   FILE 1:    97.2 MBYTE,  FILE 4:   113.3 MBYTE,   TOTAL:    210.5 MBYTE

 OPERATOR DM      FOR CENTER  0  COORDINATES:    0.000000    0.000000    0.000000


 **********************************************************************************************************************************
 DATASETS  * FILE   NREC   LENGTH (MB)   RECORD NAMES
              1      19       67.97       500      610      700      900      950      970     1000      129      960     1100   
                                          VAR    BASINP    GEOM    SYMINP    ZMAT    AOBASIS   BASIS     P2S    ABASIS      S 
                                         1400     1410     1200     1210     1080     1600     1650     1300     1700   
                                           T        V       H0       H01     AOSYM     SMH    MOLCAS    ERIS     OPER   

 PROGRAMS   *        TOTAL       INT
 CPU TIMES  *         1.36      1.26
 REAL TIME  *         2.13 SEC
 DISK USED  *       201.12 MB
 **********************************************************************************************************************************


 Program * Restricted Hartree-Fock

 Orbital guess generated from atomic densities. Full valence occupancy:    6   6

 Initial occupancy:   5   4

 NELEC=   18   SYM=1   MS2= 0   THRE=1.0D-08   THRD=3.2D-06   THRG=3.2D-06  HFMA2=F  DIIS_START=2   DIIS_MAX=10   DIIS_INCORE=F

 Level shifts:    0.00 (CLOSED)    0.00 (OPEN)    0.30 (GAP_MIN)

 ITER           ETOT              DE          GRAD        DDIFF     DIIS  NEXP   TIME(IT)  TIME(TOT)  DIAG
   1     -150.80900028    -150.80900028     0.00D+00     0.10D+00     0     0       0.04      0.07    start
   2     -150.83549921      -0.02649892     0.89D-02     0.98D-02     1     0       0.04      0.11    diag
   3     -150.83663760      -0.00113839     0.20D-02     0.14D-02     2     0       0.04      0.15    diag
   4     -150.83676497      -0.00012737     0.48D-03     0.58D-03     3     0       0.04      0.19    diag
   5     -150.83678012      -0.00001515     0.18D-03     0.17D-03     4     0       0.05      0.24    diag
   6     -150.83678158      -0.00000146     0.42D-04     0.47D-04     5     0       0.04      0.28    diag
   7     -150.83678166      -0.00000008     0.85D-05     0.11D-04     6     0       0.03      0.31    diag
   8     -150.83678166      -0.00000001     0.20D-05     0.34D-05     7     0       0.04      0.35    fixocc
   9     -150.83678166      -0.00000000     0.56D-06     0.83D-06     8     0       0.04      0.39    diag
  10     -150.83678166      -0.00000000     0.89D-07     0.10D-06     0     0       0.04      0.43    diag/orth

 Final occupancy:   5   4

 !RHF STATE 1.1 Energy               -150.836781662027
  RHF One-electron energy            -281.557486093998
  RHF Two-electron energy              93.815798648379
  RHF Kinetic energy                  150.670024177961
  RHF Nuclear energy                   36.904905783591
  RHF Virial quotient                  -1.001106772797

 !RHF STATE 1.1 Dipole moment           0.00000000     0.00000000    -0.75053142
 Dipole moment /Debye                   0.00000000     0.00000000    -1.90766059

 Orbital energies:

           1.1          2.1          3.1          4.1          5.1          6.1          7.1
    -20.625151    -1.473612    -0.711321    -0.606577    -0.516043     0.146558     0.580337

           1.2          2.2          3.2          4.2          5.2          6.2
    -20.624863    -1.212320    -0.708693    -0.484365     0.157619     0.280403


 HOMO      4.2    -0.484365 =     -13.1802eV
 LUMO      6.1     0.146558 =       3.9880eV
 LUMO-HOMO         0.630922 =      17.1683eV

 Orbitals saved in record  2100.2


 **********************************************************************************************************************************
 DATASETS  * FILE   NREC   LENGTH (MB)   RECORD NAMES
              1      19       67.97       500      610      700      900      950      970     1000      129      960     1100   
                                          VAR    BASINP    GEOM    SYMINP    ZMAT    AOBASIS   BASIS     P2S    ABASIS      S 
                                         1400     1410     1200     1210     1080     1600     1650     1300     1700   
                                           T        V       H0       H01     AOSYM     SMH    MOLCAS    ERIS     OPER   

              2       4        0.51       700     1000      520     2100   
                                         GEOM     BASIS   MCVARS     RHF  

 PROGRAMS   *        TOTAL    HF-SCF       INT
 CPU TIMES  *         1.79      0.43      1.26
 REAL TIME  *         2.60 SEC
 DISK USED  *       201.12 MB
 **********************************************************************************************************************************

 Dump information in style XML to xml output                                                                      

 Orbitals will not be exported.

 **********************************************************************************************************************************

 HF/cc-pCVTZ energy=   -150.836781662027

          HF-SCF
   -150.83678166
 **********************************************************************************************************************************
 Molpro calculation terminated
