
 Working directory              : /var/folders/2v/xbgp75_9785319ghcgb4zr4r0000gp/T//molpro.jkPGjyuX7X/
 Global scratch directory       : /var/folders/2v/xbgp75_9785319ghcgb4zr4r0000gp/T//molpro.jkPGjyuX7X/
 Wavefunction directory         : /Users/sacpjk/wfu/
 Main file repository           : /var/folders/2v/xbgp75_9785319ghcgb4zr4r0000gp/T//molpro.jkPGjyuX7X/

 id        : peterk

 Nodes                        nprocs
 Cardiff-University-G34YLXT77Y    1
 GA implementation: MPI file
 GA implementation (serial work in mppx): MPI file

 Using customized tuning parameters: mindgm=1; mindgv=20; mindgc=4; mindgr=1; noblas=0; minvec=7
 default implementation of scratch files=df  


 Variables initialized (1032), CPU time= 0.00 sec
 
 symmetry,nosym
 
 
 geometry={
 7
  n          0.359011992707    0.182100579047   -0.826971520423
  h          1.187607731412   -0.402752954475   -0.877313602017
  h         -0.302815572360   -0.207558990448   -1.485208477152
  c         -0.201005447520    0.102582784531    0.520406601472
  h         -1.095084398408    0.720428922492    0.581627497827
  h         -0.465092139202   -0.904659460390    0.857912192878
  h          0.517377833318    0.509859119244    1.229547307467
 }
 basis=aug-cc-pVDZ
 
 
 
 hf; hf; papt; mp2
 
 
 
 {put,xml;noorbitals,nobasis}
 Commands initialized (841), CPU time= 0.00 sec, 704 directives.
 Default parameters read. Elapsed time= 0.07 sec

 Checking input...
 Passed
1


                                         ***  PROGRAM SYSTEM MOLPRO  ***
                                       Copyright, TTI GmbH Stuttgart, 2015
                                    Version 2023.1 linked Tue Jun  6 09:54:11 2023


 **********************************************************************************************************************************
 LABEL *                                                                                                                                                                 
  64 bit serial version                                                                  DATE: 08-Jun-23          TIME: 21:54:17  
 **********************************************************************************************************************************

 SHA1:             8ebb0dd001088a5c915591db1a321413035db0b1
 **********************************************************************************************************************************

 Memory per process:       805 MW
 Total memory per node:   1074 MW
 Total GA space:           268 MW

 GA preallocation disabled
 GA check enabled

 Variable memory set to 805.3 MW

 ZSYMEL=NOSYM


 Geometry recognized as XYZ

 SETTING BASIS          =    AUG-CC-PVDZ


 Recomputing integrals since basis changed


 Using spherical harmonics

 Library entry N      S aug-cc-pVDZ          selected for orbital group  1
 Library entry N      P aug-cc-pVDZ          selected for orbital group  1
 Library entry N      D aug-cc-pVDZ          selected for orbital group  1
 Library entry H      S aug-cc-pVDZ          selected for orbital group  2
 Library entry H      P aug-cc-pVDZ          selected for orbital group  2
 Library entry C      S aug-cc-pVDZ          selected for orbital group  3
 Library entry C      P aug-cc-pVDZ          selected for orbital group  3
 Library entry C      D aug-cc-pVDZ          selected for orbital group  3


 PROGRAM * SEWARD (Integral evaluation for generally contracted gaussian basis sets)     Author: Roland Lindh, 1990

 Geometry written to block  1 of record 700


 Point group  C1  



 ATOMIC COORDINATES

 NR  ATOM    CHARGE       X              Y              Z

   1  N       7.00    0.678434342    0.344120222   -1.562749686
   2  H       1.00    2.244253356   -0.761092780   -1.657882433
   3  H       1.00   -0.572238498   -0.392229647   -2.806637260
   4  C       6.00   -0.379845245    0.193853368    0.983425950
   5  H       1.00   -2.069409596    1.361413356    1.099116677
   6  H       1.00   -0.878896766   -1.709558616    1.621219084
   7  H       1.00    0.977702408    0.963494098    2.323507668

 Bond lengths in Bohr (Angstrom)

 1-2  1.918941167  1-3  1.911452321  1-4  2.761439151  4-5  2.056990123  4-6  2.068528386
     ( 1.015459935)     ( 1.011497008)     ( 1.461290668)     ( 1.088512296)     ( 1.094618082)

 4-7  2.056964145
     ( 1.088498549)

 Bond angles

  1-4-5  109.61825692   1-4-6  115.26640672   1-4-7  109.11184885   2-1-3  106.24620119

  2-1-4  109.09178005   3-1-4  109.16631861   5-4-6  107.86599269   5-4-7  107.04188173

  6-4-7  107.61673372

 NUCLEAR CHARGE:                   18
 NUMBER OF PRIMITIVE AOS:         129
 NUMBER OF SYMMETRY AOS:          125
 NUMBER OF CONTRACTIONS:           91   (   91A   )
 NUMBER OF INNER CORE ORBITALS:     0   (    0A   )
 NUMBER OF OUTER CORE ORBITALS:     2   (    2A   )
 NUMBER OF VALENCE ORBITALS:       13   (   13A   )


 NUCLEAR REPULSION ENERGY   42.09217567

 Eigenvalues of metric

         1 0.506E-03 0.627E-03 0.708E-03 0.846E-03 0.122E-02 0.130E-02 0.296E-02 0.448E-02


 Contracted 2-electron integrals neglected if value below      1.0D-11
 AO integral compression algorithm  1   Integral accuracy      1.0D-11

     48.234 MB (compressed) written to integral file ( 56.7%)


 NUMBER OF SORTED TWO-ELECTRON INTEGRALS:    8763391.     BUFFER LENGTH:  32768
 NUMBER OF SEGMENTS:   1  SEGMENT LENGTH:    8763391      RECORD LENGTH: 524288

 Memory used in sort:       9.32 MW

 SORT1 READ    10676406. AND WROTE     8692386. INTEGRALS IN     25 RECORDS. CPU TIME:     0.06 SEC, REAL TIME:     0.10 SEC
 SORT2 READ     8692386. AND WROTE     8763391. INTEGRALS IN    184 RECORDS. CPU TIME:     0.10 SEC, REAL TIME:     0.14 SEC

 FILE SIZES:   FILE 1:    78.6 MBYTE,  FILE 4:   104.9 MBYTE,   TOTAL:    183.6 MBYTE

 OPERATOR DM      FOR CENTER  0  COORDINATES:    0.000000    0.000000    0.000000


 **********************************************************************************************************************************
 DATASETS  * FILE   NREC   LENGTH (MB)   RECORD NAMES
              1      19       67.58       500      610      700      900      950      970     1000      129      960     1100   
                                          VAR    BASINP    GEOM    SYMINP    ZMAT    AOBASIS   BASIS     P2S    ABASIS      S 
                                         1400     1410     1200     1210     1080     1600     1650     1300     1700   
                                           T        V       H0       H01     AOSYM     SMH    MOLCAS    ERIS     OPER   

 PROGRAMS   *        TOTAL       INT
 CPU TIMES  *         0.56      0.47
 REAL TIME  *         0.89 SEC
 DISK USED  *       175.49 MB
 **********************************************************************************************************************************


 Program * Restricted Hartree-Fock

 Orbital guess generated from atomic densities. Full valence occupancy:   15

 Initial occupancy:   9

 NELEC=   18   SYM=1   MS2= 0   THRE=1.0D-08   THRD=3.2D-06   THRG=3.2D-06  HFMA2=F  DIIS_START=2   DIIS_MAX=10   DIIS_INCORE=F

 Level shifts:    0.00 (CLOSED)    0.00 (OPEN)    0.30 (GAP_MIN)

 ITER           ETOT              DE          GRAD        DDIFF     DIIS  NEXP   TIME(IT)  TIME(TOT)  DIAG
   1      -95.20172515     -95.20172515     0.00D+00     0.86D-01     0     0       0.03      0.07    start
   2      -95.22661774      -0.02489259     0.55D-02     0.93D-02     1     0       0.04      0.11    diag
   3      -95.23005678      -0.00343904     0.22D-02     0.28D-02     2     0       0.03      0.14    diag
   4      -95.23055943      -0.00050265     0.68D-03     0.11D-02     3     0       0.04      0.18    diag
   5      -95.23058218      -0.00002275     0.13D-03     0.21D-03     4     0       0.03      0.21    diag
   6      -95.23058364      -0.00000145     0.29D-04     0.58D-04     5     0       0.04      0.25    diag
   7      -95.23058374      -0.00000010     0.81D-05     0.15D-04     6     0       0.03      0.28    diag
   8      -95.23058375      -0.00000001     0.22D-05     0.63D-05     7     0       0.04      0.32    fixocc
   9      -95.23058375      -0.00000000     0.55D-06     0.14D-05     8     0       0.04      0.36    diag
  10      -95.23058375      -0.00000000     0.11D-06     0.22D-06     0     0       0.03      0.39    diag/orth

 Final occupancy:   9

 !RHF STATE 1.1 Energy                -95.230583749825
  RHF One-electron energy            -211.450834004343
  RHF Two-electron energy              74.128074586060
  RHF Kinetic energy                   95.080696686753
  RHF Nuclear energy                   42.092175668458
  RHF Virial quotient                  -1.001576419487

 !RHF STATE 1.1 Dipole moment          -0.11710679    -0.54675366     0.11505397
 Dipole moment /Debye                  -0.29765576    -1.38970918     0.29243803

 Orbital energies:

           1.1          2.1          3.1          4.1          5.1          6.1          7.1          8.1          9.1         10.1
    -15.549280   -11.247621    -1.173578    -0.896576    -0.662931    -0.603814    -0.555215    -0.515666    -0.392662     0.035724

          11.1
      0.051460


 HOMO      9.1    -0.392662 =     -10.6849eV
 LUMO     10.1     0.035724 =       0.9721eV
 LUMO-HOMO         0.428386 =      11.6570eV

 Orbitals saved in record  2100.2


 **********************************************************************************************************************************
 DATASETS  * FILE   NREC   LENGTH (MB)   RECORD NAMES
              1      19       67.58       500      610      700      900      950      970     1000      129      960     1100   
                                          VAR    BASINP    GEOM    SYMINP    ZMAT    AOBASIS   BASIS     P2S    ABASIS      S 
                                         1400     1410     1200     1210     1080     1600     1650     1300     1700   
                                           T        V       H0       H01     AOSYM     SMH    MOLCAS    ERIS     OPER   

              2       4        0.61       700     1000      520     2100   
                                         GEOM     BASIS   MCVARS     RHF  

 PROGRAMS   *        TOTAL    HF-SCF       INT
 CPU TIMES  *         0.95      0.39      0.47
 REAL TIME  *         1.43 SEC
 DISK USED  *       175.49 MB
 **********************************************************************************************************************************


 Program * Restricted Hartree-Fock

 Molecular orbitals read from record     2100.2  Type=RHF/CANONICAL  

 Initial occupancy:   9

 NELEC=   18   SYM=1   MS2= 0   THRE=1.0D-08   THRD=3.2D-06   THRG=3.2D-06  HFMA2=F  DIIS_START=2   DIIS_MAX=10   DIIS_INCORE=F

 Level shifts:    0.00 (CLOSED)    0.00 (OPEN)    0.30 (GAP_MIN)

 ITER           ETOT              DE          GRAD        DDIFF     DIIS  NEXP   TIME(IT)  TIME(TOT)  DIAG
   1      -95.23058375     -95.23058375     0.00D+00     0.89D-01     0     0       0.04      0.04    start
   2      -95.23058375      -0.00000000     0.51D-07     0.91D-07     1     0       0.03      0.07    diag

 Final occupancy:   9

 !RHF STATE 1.1 Energy                -95.230583749831
  RHF One-electron energy            -211.450836031517
  RHF Two-electron energy              74.128076613228
  RHF Kinetic energy                   95.080696932634
  RHF Nuclear energy                   42.092175668458
  RHF Virial quotient                  -1.001576416897

 !RHF STATE 1.1 Dipole moment          -0.11710720    -0.54675488     0.11505461
 Dipole moment /Debye                  -0.29765681    -1.38971228     0.29243966

 Orbital energies:

           1.1          2.1          3.1          4.1          5.1          6.1          7.1          8.1          9.1         10.1
    -15.549281   -11.247621    -1.173578    -0.896576    -0.662931    -0.603814    -0.555215    -0.515666    -0.392662     0.035724

          11.1
      0.051460


 HOMO      9.1    -0.392662 =     -10.6849eV
 LUMO     10.1     0.035724 =       0.9721eV
 LUMO-HOMO         0.428387 =      11.6570eV

 Orbitals saved in record  2101.2


 **********************************************************************************************************************************
 DATASETS  * FILE   NREC   LENGTH (MB)   RECORD NAMES
              1      19       67.58       500      610      700      900      950      970     1000      129      960     1100   
                                          VAR    BASINP    GEOM    SYMINP    ZMAT    AOBASIS   BASIS     P2S    ABASIS      S 
                                         1400     1410     1200     1210     1080     1600     1650     1300     1700   
                                           T        V       H0       H01     AOSYM     SMH    MOLCAS    ERIS     OPER   

              2       5        0.93       700     1000      520     2100     2101   
                                         GEOM     BASIS   MCVARS     RHF      RHF  

 PROGRAMS   *        TOTAL    HF-SCF    HF-SCF       INT
 CPU TIMES  *         1.04      0.07      0.39      0.47
 REAL TIME  *         1.58 SEC
 DISK USED  *       175.49 MB
 **********************************************************************************************************************************


 PROGRAM * PAPT (Closed-shell)     Authors: C. Hampel, H.-J. Werner, 1991, P.J. Knowles, 2021


 Convergence thresholds:  THRVAR = 1.00D-08  THRDEN = 1.00D-06

 Number of core orbitals:           2 (   2 )
 Number of closed-shell orbitals:   7 (   7 )
 Number of external orbitals:      82 (  82 )

 Molecular orbitals read from record     2101.2  Type=RHF/CANONICAL  

 Number of N-1 electron functions:               7
 Number of N-2 electron functions:              28
 Number of singly external CSFs:               574
 Number of doubly external CSFs:            165025
 Total number of CSFs:                      165600

 Length of J-op  integral file:               0.00 MB
 Length of K-op  integral file:               0.63 MB

 Integral transformation finished. Total CPU:   0.05 sec, npass=  1  Memory used:   0.58 MW

 Reference energy:                    -95.23058375

                        CORR.ENERGY   TOTAL ENERGY   ENERGY CHANGE
 MP2:                   -0.34255344   -95.57313719    -0.34255344

 SCS-MP2 correlation energy:           -0.34343424   (PS=  1.200000  PT=  0.333333)
 SCS-MP2 total energy:                -95.57401799
 Iteration:   1     0.1853D+00
 Iteration:   2     0.3209D+00
 Iteration:   3     0.5998D-01
 Iteration:   4     0.3495D-01
 Iteration:   5     0.2109D-01
 Iteration:   6     0.9142D-02
 Iteration:   7     0.8851D-01
 Iteration:   8     0.2830D-02
 Iteration:   9     0.2831D-02
 Iteration:  10     0.3029D-02
 Iteration:  11     0.1179D-02
 Iteration:  12     0.6056D-02
 Iteration:  13     0.4435D-03
 Iteration:  14     0.5434D-03
 Iteration:  15     0.3004D-03
 Iteration:  16     0.9614D-04
 PAPT operator written to  7000.1
 PAPT orbitals and eigenvalues written to  7000.2

 MP3(D):                -0.36761174   -95.59819549    -0.02505831



 RESULTS
 =======

  Reference energy                    -95.230583749831
  MP3 singlet pair energy              -0.255337073442
  MP3 triplet pair energy              -0.112274670540
  MP3 correlation energy               -0.367611743982

 !MP3 total energy                    -95.598195493813

 Timing summary (sec):

 STEP                 CPU(USER)    SYS     CPU(TOT)    WALL
 Transformation          0.05      0.01      0.06      0.10
 CCSD iterations         1.51      0.03      1.54      0.47

 Program statistics:

 Available memory in ccsd:               805306163
 Min. memory needed in ccsd:                547472
 Max. memory used in ccsd:                  678351
 Max. memory used in cckext:                543688 ( 1 integral passes)



 **********************************************************************************************************************************
 DATASETS  * FILE   NREC   LENGTH (MB)   RECORD NAMES
              1      21       70.40       500      610      700      900      950      970     1000      129      960     1100   
                                          VAR    BASINP    GEOM    SYMINP    ZMAT    AOBASIS   BASIS     P2S    ABASIS      S 
                                         1400     1410     1200     1210     1080     1600     1650     1300     1700     1380   
                                           T        V       H0       H01     AOSYM     SMH    MOLCAS    ERIS     OPER     JKOP   
                                         7000   
                                        PAPT AO    

              2       6        1.22       700     1000      520     2100     2101     7000   
                                         GEOM     BASIS   MCVARS     RHF      RHF     PAPT   

 PROGRAMS   *        TOTAL      PAPT    HF-SCF    HF-SCF       INT
 CPU TIMES  *         1.48      0.45      0.07      0.39      0.47
 REAL TIME  *         2.19 SEC
 DISK USED  *       175.49 MB
 **********************************************************************************************************************************


 PROGRAM * MP2 (Closed-shell)     Authors: C. Hampel, H.-J. Werner, 1991, M. Deegan, P.J. Knowles, 1992


 Convergence thresholds:  THRVAR = 1.00D-08  THRDEN = 1.00D-06

 Number of core orbitals:           2 (   2 )
 Number of closed-shell orbitals:   7 (   7 )
 Number of external orbitals:      82 (  82 )

 Molecular orbitals read from record     7000.2  Type=PAPT/CANONICAL (state 1.1)

 Number of N-1 electron functions:               7
 Number of N-2 electron functions:              28
 Number of singly external CSFs:               574
 Number of doubly external CSFs:            165025
 Total number of CSFs:                      165600

 Length of J-op  integral file:               0.00 MB
 Length of K-op  integral file:               0.63 MB

 Integral transformation finished. Total CPU:   0.05 sec, npass=  1  Memory used:   0.58 MW
 Orbital energies read from record       7000.2  Type=PAPT/CANONICAL (state 1.1)

 Memory needed for MP2:                      0.04 MW

 SCS-MP2 correlation energy:           -0.375381347678   (PS=  1.200000  PT=  0.333333)
 SCS-MP2 total energy:                -95.605965097509


  Reference energy                    -95.230583749831
  MP2 singlet pair energy              -0.248685821660
  MP2 triplet pair energy              -0.123683081280
  MP2 correlation energy               -0.372368902940

 !MP2 total energy                    -95.602952652772


 **********************************************************************************************************************************
 DATASETS  * FILE   NREC   LENGTH (MB)   RECORD NAMES
              1      21       70.40       500      610      700      900      950      970     1000      129      960     1100   
                                          VAR    BASINP    GEOM    SYMINP    ZMAT    AOBASIS   BASIS     P2S    ABASIS      S 
                                         1400     1410     1200     1210     1080     1600     1650     1300     1700     1380   
                                           T        V       H0       H01     AOSYM     SMH    MOLCAS    ERIS     OPER     JKOP   
                                         7000   
                                        PAPT AO    

              2       6        1.22       700     1000      520     2100     2101     7000   
                                         GEOM     BASIS   MCVARS     RHF      RHF     PAPT   

 PROGRAMS   *        TOTAL       MP2      PAPT    HF-SCF    HF-SCF       INT
 CPU TIMES  *         1.66      0.17      0.45      0.07      0.39      0.47
 REAL TIME  *         2.53 SEC
 DISK USED  *       175.49 MB
 **********************************************************************************************************************************

 Dump information in style XML to xml output                                                                      

 Orbitals will not be exported.

 **********************************************************************************************************************************

 MP2/aug-cc-pVDZ energy=    -95.602952652772

             MP2            PAPT          HF-SCF          HF-SCF
    -95.60295265    -95.59819549    -95.23058375    -95.23058375
 **********************************************************************************************************************************
 Molpro calculation terminated
