
 Working directory              : /var/folders/2v/xbgp75_9785319ghcgb4zr4r0000gp/T//molpro.LXivVCAD5p/
 Global scratch directory       : /var/folders/2v/xbgp75_9785319ghcgb4zr4r0000gp/T//molpro.LXivVCAD5p/
 Wavefunction directory         : /Users/sacpjk/wfu/
 Main file repository           : /var/folders/2v/xbgp75_9785319ghcgb4zr4r0000gp/T//molpro.LXivVCAD5p/

 id        : peterk

 Nodes                        nprocs
 Cardiff-University-G34YLXT77Y    1
 GA implementation: MPI file
 GA implementation (serial work in mppx): MPI file

 Using customized tuning parameters: mindgm=1; mindgv=20; mindgc=4; mindgr=1; noblas=0; minvec=7
 default implementation of scratch files=df  


 Variables initialized (1032), CPU time= 0.01 sec
 
 symmetry,nosym
 
 
 geometry={
            5
     C          0.00000000      0.00000000     -0.14991697
     CL         0.00000000      0.00000000      1.63280180
     H         -0.51399780     -0.89027030     -0.49429494
     H         -0.51399780      0.89027030     -0.49429494
     H          1.02799560      0.00000000     -0.49429494
 }
 basis=cc-pVTZ
 
 
 
 hf; ccsd(t)
 
 
 
 {put,xml;noorbitals,nobasis}
 Commands initialized (841), CPU time= 0.00 sec, 704 directives.
 Default parameters read. Elapsed time= 2.14 sec

 Checking input...
 Passed
1


                                         ***  PROGRAM SYSTEM MOLPRO  ***
                                       Copyright, TTI GmbH Stuttgart, 2015
                                    Version 2023.1 linked Tue Jun  6 09:54:11 2023


 **********************************************************************************************************************************
 LABEL *                                                                                                                                                                 
  64 bit serial version                                                                  DATE: 09-Jun-23          TIME: 16:07:20  
 **********************************************************************************************************************************

 SHA1:             8ebb0dd001088a5c915591db1a321413035db0b1
 **********************************************************************************************************************************

 Memory per process:       805 MW
 Total memory per node:   1074 MW
 Total GA space:           268 MW

 GA preallocation disabled
 GA check enabled

 Variable memory set to 805.3 MW

 ZSYMEL=NOSYM


 Geometry recognized as XYZ

 SETTING BASIS          =    CC-PVTZ


 Recomputing integrals since basis changed


 Using spherical harmonics

 Library entry C      S cc-pVTZ              selected for orbital group  1
 Library entry C      P cc-pVTZ              selected for orbital group  1
 Library entry C      D cc-pVTZ              selected for orbital group  1
 Library entry C      F cc-pVTZ              selected for orbital group  1
 Library entry CL     S cc-pVTZ              selected for orbital group  2
 Library entry CL     P cc-pVTZ              selected for orbital group  2
 Library entry CL     D cc-pVTZ              selected for orbital group  2
 Library entry CL     F cc-pVTZ              selected for orbital group  2
 Library entry H      S cc-pVTZ              selected for orbital group  3
 Library entry H      P cc-pVTZ              selected for orbital group  3
 Library entry H      D cc-pVTZ              selected for orbital group  3


 PROGRAM * SEWARD (Integral evaluation for generally contracted gaussian basis sets)     Author: Roland Lindh, 1990

 Geometry written to block  1 of record 700


 Point group  C1  



 ATOMIC COORDINATES

 NR  ATOM    CHARGE       X              Y              Z

   1  C       6.00    0.000000000    0.000000000   -0.283302015
   2  CL     17.00    0.000000000    0.000000000    3.085548218
   3  H       1.00   -0.971315071   -1.682367044   -0.934082061
   4  H       1.00   -0.971315071    1.682367044   -0.934082061
   5  H       1.00    1.942630141    0.000000000   -0.934082061

 Bond lengths in Bohr (Angstrom)

 1-2  3.368850233  1-3  2.048737784  1-4  2.048737784  1-5  2.048737791
     ( 1.782718770)     ( 1.084145346)     ( 1.084145346)     ( 1.084145350)

 Bond angles

  2-1-3  108.52082168   2-1-4  108.52082168   2-1-5  108.52082162   3-1-4  110.40466842

  3-1-5  110.40466877   4-1-5  110.40466877

 NUCLEAR CHARGE:                   26
 NUMBER OF PRIMITIVE AOS:         162
 NUMBER OF SYMMETRY AOS:          149
 NUMBER OF CONTRACTIONS:          106   (  106A   )
 NUMBER OF INNER CORE ORBITALS:     1   (    1A   )
 NUMBER OF OUTER CORE ORBITALS:     5   (    5A   )
 NUMBER OF VALENCE ORBITALS:       11   (   11A   )


 NUCLEAR REPULSION ENERGY   51.37849152


 Eigenvalues of metric

         1 0.132E-02 0.182E-02 0.182E-02 0.266E-02 0.501E-02 0.674E-02 0.103E-01 0.103E-01


 Contracted 2-electron integrals neglected if value below      1.0D-11
 AO integral compression algorithm  1   Integral accuracy      1.0D-11

     63.439 MB (compressed) written to integral file ( 41.8%)


 NUMBER OF SORTED TWO-ELECTRON INTEGRALS:   16082956.     BUFFER LENGTH:  32768
 NUMBER OF SEGMENTS:   2  SEGMENT LENGTH:   15997996      RECORD LENGTH: 524288

 Memory used in sort:      16.56 MW

 SORT1 READ    19050679. AND WROTE    12806471. INTEGRALS IN     38 RECORDS. CPU TIME:     0.10 SEC, REAL TIME:     0.13 SEC
 SORT2 READ    12806471. AND WROTE    16082956. INTEGRALS IN    242 RECORDS. CPU TIME:     0.14 SEC, REAL TIME:     0.17 SEC

 FILE SIZES:   FILE 1:    93.9 MBYTE,  FILE 4:   159.4 MBYTE,   TOTAL:    253.4 MBYTE

 OPERATOR DM      FOR CENTER  0  COORDINATES:    0.000000    0.000000    0.000000


 **********************************************************************************************************************************
 DATASETS  * FILE   NREC   LENGTH (MB)   RECORD NAMES
              1      19       81.79       500      610      700      900      950      970     1000      129      960     1100   
                                          VAR    BASINP    GEOM    SYMINP    ZMAT    AOBASIS   BASIS     P2S    ABASIS      S 
                                         1400     1410     1200     1210     1080     1600     1650     1300     1700   
                                           T        V       H0       H01     AOSYM     SMH    MOLCAS    ERIS     OPER   

 PROGRAMS   *        TOTAL       INT
 CPU TIMES  *         0.89      0.80
 REAL TIME  *         4.82 SEC
 DISK USED  *       242.04 MB
 **********************************************************************************************************************************


 Program * Restricted Hartree-Fock

 Orbital guess generated from atomic densities. Full valence occupancy:   17

 Initial occupancy:  13

 NELEC=   26   SYM=1   MS2= 0   THRE=1.0D-08   THRD=3.2D-06   THRG=3.2D-06  HFMA2=F  DIIS_START=2   DIIS_MAX=10   DIIS_INCORE=F

 Level shifts:    0.00 (CLOSED)    0.00 (OPEN)    0.30 (GAP_MIN)

 ITER           ETOT              DE          GRAD        DDIFF     DIIS  NEXP   TIME(IT)  TIME(TOT)  DIAG
   1     -499.12966715    -499.12966715     0.00D+00     0.94D-01     0     0       0.07      0.13    start
   2     -499.14542773      -0.01576058     0.32D-02     0.48D-02     1     0       0.06      0.19    diag
   3     -499.14744020      -0.00201247     0.12D-02     0.15D-02     2     0       0.07      0.26    diag
   4     -499.14779177      -0.00035157     0.44D-03     0.59D-03     3     0       0.07      0.33    diag
   5     -499.14780550      -0.00001374     0.68D-04     0.13D-03     4     0       0.07      0.40    diag
   6     -499.14780622      -0.00000071     0.16D-04     0.33D-04     5     0       0.07      0.47    diag
   7     -499.14780628      -0.00000006     0.42D-05     0.92D-05     6     0       0.07      0.54    diag
   8     -499.14780629      -0.00000000     0.10D-05     0.31D-05     7     0       0.07      0.61    fixocc
   9     -499.14780629      -0.00000000     0.16D-06     0.38D-06     0     0       0.07      0.68    diag

 Final occupancy:  13

 !RHF STATE 1.1 Energy               -499.147806285432
  RHF One-electron energy            -790.273724624206
  RHF Two-electron energy             239.747426817857
  RHF Kinetic energy                  499.102478641109
  RHF Nuclear energy                   51.378491520917
  RHF Virial quotient                  -1.000090818311

 !RHF STATE 1.1 Dipole moment          -0.00000000     0.00000000    -0.84040880
 Dipole moment /Debye                  -0.00000000     0.00000000    -2.13610609

 Orbital energies:

           1.1          2.1          3.1          4.1          5.1          6.1          7.1          8.1          9.1         10.1
   -104.822449   -11.289478   -10.547670    -8.014525    -8.012682    -8.012682    -1.126581    -0.914843    -0.617745    -0.617745

          11.1         12.1         13.1         14.1         15.1
     -0.544344    -0.434345    -0.434345     0.131854     0.196014


 HOMO     13.1    -0.434345 =     -11.8191eV
 LUMO     14.1     0.131854 =       3.5879eV
 LUMO-HOMO         0.566198 =      15.4070eV

 Orbitals saved in record  2100.2


 **********************************************************************************************************************************
 DATASETS  * FILE   NREC   LENGTH (MB)   RECORD NAMES
              1      19       81.79       500      610      700      900      950      970     1000      129      960     1100   
                                          VAR    BASINP    GEOM    SYMINP    ZMAT    AOBASIS   BASIS     P2S    ABASIS      S 
                                         1400     1410     1200     1210     1080     1600     1650     1300     1700   
                                           T        V       H0       H01     AOSYM     SMH    MOLCAS    ERIS     OPER   

              2       4        0.63       700     1000      520     2100   
                                         GEOM     BASIS   MCVARS     RHF  

 PROGRAMS   *        TOTAL    HF-SCF       INT
 CPU TIMES  *         1.57      0.68      0.80
 REAL TIME  *         5.90 SEC
 DISK USED  *       242.04 MB
 **********************************************************************************************************************************


 PROGRAM * CCSD (Closed-shell coupled cluster)     Authors: C. Hampel, H.-J. Werner, 1991, M. Deegan, P.J. Knowles, 1992


 Convergence thresholds:  THRVAR = 1.00D-08  THRDEN = 1.00D-06

 CCSD(T)     terms to be evaluated (factor= 1.000)


 Number of core orbitals:           6 (   6 )
 Number of closed-shell orbitals:   7 (   7 )
 Number of external orbitals:      93 (  93 )

 Molecular orbitals read from record     2100.2  Type=RHF/CANONICAL  

 Number of N-1 electron functions:               7
 Number of N-2 electron functions:              28
 Number of singly external CSFs:               651
 Number of doubly external CSFs:            212226
 Total number of CSFs:                      212878

 Length of J-op  integral file:               0.00 MB
 Length of K-op  integral file:               0.83 MB
 Length of 3-ext integral record:             0.00 MB

 Memory could be reduced to 8.34 Mwords without degradation in triples

 Integral transformation finished. Total CPU:   0.21 sec, npass=  1  Memory used:   5.58 MW

 Reference energy:                   -499.14780629

 MP2 singlet pair energy:              -0.24623062
 MP2 triplet pair energy:              -0.12619413
 MP2 correlation energy:               -0.37242475
 MP2 total energy:                   -499.52023103

 SCS-MP2 correlation energy:           -0.37399753   (PS=  1.200000  PT=  0.333333)
 SCS-MP2 total energy:               -499.52180382

 ITER.      SQ.NORM     CORR.ENERGY   TOTAL ENERGY   ENERGY CHANGE        DEN1      VAR(S)    VAR(P)  DIIS     TIME  TIME/IT
   1      1.13950236    -0.40124091  -499.54904720    -0.02881617    -0.01924016  0.90D-03  0.19D-02  1  1     2.19     0.39
   2      1.14885131    -0.40292853  -499.55073482    -0.00168762    -0.00968553  0.27D-04  0.16D-03  2  2     2.41     0.32
   3      1.15099394    -0.40295677  -499.55076306    -0.00002824    -0.00133059  0.69D-05  0.10D-04  3  3     2.64     0.31
   4      1.15160411    -0.40296417  -499.55077045    -0.00000739    -0.00024159  0.43D-06  0.70D-06  4  4     2.98     0.34
   5      1.15172010    -0.40296692  -499.55077321    -0.00000276    -0.00003583  0.79D-07  0.51D-07  5  5     3.26     0.34
   6      1.15173931    -0.40296506  -499.55077134     0.00000186    -0.00000622  0.82D-08  0.36D-08  6  6     3.49     0.33
   7      1.15174115    -0.40296486  -499.55077115     0.00000020    -0.00000018  0.84D-09  0.44D-09  6  2     3.79     0.34
   8      1.15174183    -0.40296493  -499.55077122    -0.00000007    -0.00000020  0.11D-09  0.33D-10  6  1     4.08     0.35

 Norm of t1 vector:      0.04082312      S-energy:    -0.00000014      T1 diagnostic:  0.00771484
                                                                       D1 diagnostic:  0.02036268
                                                                       D2 diagnostic:  0.15311651 (internal)


 Total CPU time for triples:      1.90 sec


 RESULTS
 =======

  Reference energy                   -499.147806285432
  CCSD singlet pair energy             -0.283590843449
  CCSD triplet pair energy             -0.119373944922
  CCSD correlation energy              -0.402964930860

  Triples (T) contribution             -0.015149779163
  Total correlation energy             -0.418114710023

  CCSD total energy                  -499.550771216292
  CCSD[T] energy                     -499.566204646614
  CCSD-T energy                      -499.565801138580
 !CCSD(T) total energy               -499.565920995455

 Timing summary (sec):

 STEP                 CPU(USER)    SYS     CPU(TOT)    WALL
 Transformation          0.21      0.03      0.24      0.37
 CCSD iterations         3.88      0.18      4.06      2.99
 Triples                 1.90      0.11      2.01      2.15

 Program statistics:

 Available memory in ccsd:               805306159
 Min. memory needed in ccsd:                708057
 Max. memory used in ccsd:                  872228
 Max. memory used in cckext:                726078 ( 8 integral passes)



 **********************************************************************************************************************************
 DATASETS  * FILE   NREC   LENGTH (MB)   RECORD NAMES
              1      20      107.28       500      610      700      900      950      970     1000      129      960     1100   
                                          VAR    BASINP    GEOM    SYMINP    ZMAT    AOBASIS   BASIS     P2S    ABASIS      S 
                                         1400     1410     1200     1210     1080     1600     1650     1300     1700     1380   
                                           T        V       H0       H01     AOSYM     SMH    MOLCAS    ERIS     OPER     JKOP   

              2       4        0.63       700     1000      520     2100   
                                         GEOM     BASIS   MCVARS     RHF  

 PROGRAMS   *        TOTAL   CCSD(T)    HF-SCF       INT
 CPU TIMES  *         5.90      4.33      0.68      0.80
 REAL TIME  *        11.64 SEC
 DISK USED  *       242.04 MB
 **********************************************************************************************************************************

 Dump information in style XML to xml output                                                                      

 Orbitals will not be exported.

 **********************************************************************************************************************************

 CCSD(T)/cc-pVTZ energy=   -499.565920995455

         CCSD(T)          HF-SCF
   -499.56592100   -499.14780629
 **********************************************************************************************************************************
 Molpro calculation terminated
