
 Working directory              : /tmp/peterk/molpro.ggZ3NEzeP4/
 Global scratch directory       : /tmp/peterk/molpro.ggZ3NEzeP4/
 Wavefunction directory         : /home/peterk/wfu/
 Main file repository           : /tmp/peterk/molpro.ggZ3NEzeP4/

 id        : peterk

 Nodes     nprocs
 marat        1
 GA implementation: MPI file
 GA implementation (serial work in mppx): MPI file

 Using customized tuning parameters: mindgm=1; mindgv=20; mindgc=4; mindgr=1; noblas=0; minvec=7
 default implementation of scratch files=df  


 Variables initialized (1032), CPU time= 0.01 sec
 
 core,small
 angstrom
 
 geometry={
 C;O,C,1.20430342;H1,C,1.10077162,O,121.78046616;H2,C,1.10077162,O,121.78046616,H1,180
 }
 basis=cc-pCVTZ
 
 
 
 hf; ccsd(t)
 
 
 
 {put,xml;noorbitals,nobasis}
 Commands initialized (841), CPU time= 0.01 sec, 708 directives.
 Default parameters read. Elapsed time= 0.05 sec

 Checking input...
 Passed
1


                                         ***  PROGRAM SYSTEM MOLPRO  ***
                                       Copyright, TTI GmbH Stuttgart, 2015
                                    Version 2023.1 linked Sat Jun 10 08:01:27 2023


 **********************************************************************************************************************************
 LABEL *                                                                                                                                                                 
  (16 PROC) 64 bit serial version                                                        DATE: 12-Jun-23          TIME: 10:33:37  
 **********************************************************************************************************************************

 SHA1:             8376d659ba1296ca7ee514c57770fe2c96af278c
 **********************************************************************************************************************************

 Memory per process:      1074 MW
 Total memory per node:   1074 MW

 GA preallocation disabled
 GA check disabled

 Variable memory set to 1073.7 MW

 ZUNIT=ANG

 SETTING BASIS          =    CC-PCVTZ


 Recomputing integrals since basis changed


 Using spherical harmonics

 Library entry C      S cc-pCVTZ             selected for orbital group  1
 Library entry C      P cc-pCVTZ             selected for orbital group  1
 Library entry C      D cc-pCVTZ             selected for orbital group  1
 Library entry C      F cc-pCVTZ             selected for orbital group  1
 Library entry O      S cc-pCVTZ             selected for orbital group  2
 Library entry O      P cc-pCVTZ             selected for orbital group  2
 Library entry O      D cc-pCVTZ             selected for orbital group  2
 Library entry O      F cc-pCVTZ             selected for orbital group  2
 Library entry H      S cc-pVTZ              selected for orbital group  3
 Library entry H      P cc-pVTZ              selected for orbital group  3
 Library entry H      D cc-pVTZ              selected for orbital group  3


 PROGRAM * SEWARD (Integral evaluation for generally contracted gaussian basis sets)     Author: Roland Lindh, 1990

 Geometry written to block  1 of record 700

 Orientation using atomic masses  
 Molecule type: Asymmetric top,     Order of principal axis = 2
 Symmetry elements: X,Y
 Rotational constants:      34.2927288     38.9589211    286.3164739 GHz  (calculated with average atomic masses)

 Point group  C2v 



 ATOMIC COORDINATES

 NR  ATOM    CHARGE       X              Y              Z

   1  C       6.00    0.000000000    0.000000000   -1.139102130
   2  O       8.00    0.000000000    0.000000000    1.136701504
   3  H1      1.00    0.000000000    1.768283747   -2.234650061
   4  H2      1.00    0.000000000   -1.768283747   -2.234650061

 Bond lengths in Bohr (Angstrom)

 1-2  2.275803635  1-3  2.080156888  1-4  2.080156888
     ( 1.204303420)     ( 1.100771620)     ( 1.100771620)

 Bond angles

  2-1-3  121.78046616   2-1-4  121.78046616   3-1-4  116.43906768

 NUCLEAR CHARGE:                   16
 NUMBER OF PRIMITIVE AOS:         156
 NUMBER OF SYMMETRY AOS:          142
 NUMBER OF CONTRACTIONS:          114   (   48A1  +   24B1  +   30B2  +   12A2  )
 NUMBER OF INNER CORE ORBITALS:     0   (    0A1  +    0B1  +    0B2  +    0A2  )
 NUMBER OF OUTER CORE ORBITALS:     2   (    2A1  +    0B1  +    0B2  +    0A2  )
 NUMBER OF VALENCE ORBITALS:       10   (    5A1  +    2B1  +    3B2  +    0A2  )


 NUCLEAR REPULSION ENERGY   31.34585015


 Eigenvalues of metric

         1 0.650E-03 0.208E-02 0.334E-02 0.541E-02 0.114E-01 0.123E-01 0.138E-01 0.161E-01
         2 0.198E-01 0.254E-01 0.766E-01 0.116E+00 0.165E+00 0.287E+00 0.370E+00 0.408E+00
         3 0.196E-02 0.893E-02 0.189E-01 0.193E-01 0.305E-01 0.560E-01 0.844E-01 0.106E+00
         4 0.860E-01 0.263E+00 0.419E+00 0.467E+00 0.711E+00 0.974E+00 0.995E+00 0.100E+01


 Contracted 2-electron integrals neglected if value below      1.0D-11
 AO integral compression algorithm  1   Integral accuracy      1.0D-11

     26.739 MB (compressed) written to integral file ( 47.0%)


 NUMBER OF SORTED TWO-ELECTRON INTEGRALS:    5664426.     BUFFER LENGTH:  32768
 NUMBER OF SEGMENTS:   1  SEGMENT LENGTH:    5664426      RECORD LENGTH: 524288

 Memory used in sort:       6.22 MW

 SORT1 READ     7176001. AND WROTE     4908241. INTEGRALS IN     15 RECORDS. CPU TIME:     0.10 SEC, REAL TIME:     0.12 SEC
 SORT2 READ     4908241. AND WROTE     5664426. INTEGRALS IN    102 RECORDS. CPU TIME:     0.09 SEC, REAL TIME:     0.12 SEC

 FILE SIZES:   FILE 1:    57.1 MBYTE,  FILE 4:    63.0 MBYTE,   TOTAL:    120.0 MBYTE

 OPERATOR DM      FOR CENTER  0  COORDINATES:    0.000000    0.000000    0.000000


 **********************************************************************************************************************************
 DATASETS  * FILE   NREC   LENGTH (MB)   RECORD NAMES
              1      19       49.22       500      610      700      900      950      970     1000      129      960     1100   
                                          VAR    BASINP    GEOM    SYMINP    ZMAT    AOBASIS   BASIS     P2S    ABASIS      S 
                                         1400     1410     1200     1210     1080     1600     1650     1300     1700   
                                           T        V       H0       H01     AOSYM     SMH    MOLCAS    ERIS     OPER   

 PROGRAMS   *        TOTAL       INT
 CPU TIMES  *         1.23      1.10
 REAL TIME  *         1.94 SEC
 DISK USED  *       114.85 MB
 **********************************************************************************************************************************


 Program * Restricted Hartree-Fock

 Orbital guess generated from atomic densities. Full valence occupancy:    7   2   3   0

 Initial occupancy:   5   1   2   0

 NELEC=   16   SYM=1   MS2= 0   THRE=1.0D-08   THRD=3.2D-06   THRG=3.2D-06  HFMA2=F  DIIS_START=2   DIIS_MAX=10   DIIS_INCORE=F

 Level shifts:    0.00 (CLOSED)    0.00 (OPEN)    0.30 (GAP_MIN)

 ITER           ETOT              DE          GRAD        DDIFF     DIIS  NEXP   TIME(IT)  TIME(TOT)  DIAG
   1     -113.86015722    -113.86015722     0.00D+00     0.12D+00     0     0       0.02      0.03    start
   2     -113.88403414      -0.02387692     0.14D-01     0.19D-01     1     0       0.02      0.05    diag
   3     -113.91185319      -0.02781905     0.12D-01     0.84D-02     2     0       0.02      0.07    diag
   4     -113.91228547      -0.00043228     0.96D-03     0.12D-02     3     0       0.01      0.08    diag
   5     -113.91234346      -0.00005800     0.33D-03     0.42D-03     4     0       0.02      0.10    diag
   6     -113.91235729      -0.00001383     0.12D-03     0.24D-03     5     0       0.02      0.12    diag
   7     -113.91235942      -0.00000213     0.54D-04     0.12D-03     6     0       0.02      0.14    diag
   8     -113.91235949      -0.00000007     0.10D-04     0.23D-04     7     0       0.02      0.16    fixocc
   9     -113.91235949      -0.00000000     0.13D-05     0.25D-05     8     0       0.02      0.18    diag
  10     -113.91235949      -0.00000000     0.27D-06     0.38D-06     0     0       0.01      0.19    diag/orth

 Final occupancy:   5   1   2   0

 !RHF STATE 1.1 Energy               -113.912359490241
  RHF One-electron energy            -217.502354394099
  RHF Two-electron energy              72.244144755478
  RHF Kinetic energy                  113.770393086291
  RHF Nuclear energy                   31.345850148379
  RHF Virial quotient                  -1.001247832587

 !RHF STATE 1.1 Dipole moment           0.00000000     0.00000000    -1.09579276
 Dipole moment /Debye                   0.00000000     0.00000000    -2.78522738

 Orbital energies:

           1.1          2.1          3.1          4.1          5.1          6.1          7.1
    -20.573217   -11.338443    -1.404870    -0.869236    -0.650720     0.147590     0.266237

           1.2          2.2          3.2
     -0.535378     0.119529     0.442500

           1.3          2.3          3.3          4.3
     -0.693698    -0.441474     0.206111     0.458612

           1.4          2.4
      0.705447     1.179675


 HOMO      2.3    -0.441474 =     -12.0131eV
 LUMO      2.2     0.119529 =       3.2526eV
 LUMO-HOMO         0.561003 =      15.2657eV

 Orbitals saved in record  2100.2


 **********************************************************************************************************************************
 DATASETS  * FILE   NREC   LENGTH (MB)   RECORD NAMES
              1      19       49.22       500      610      700      900      950      970     1000      129      960     1100   
                                          VAR    BASINP    GEOM    SYMINP    ZMAT    AOBASIS   BASIS     P2S    ABASIS      S 
                                         1400     1410     1200     1210     1080     1600     1650     1300     1700   
                                           T        V       H0       H01     AOSYM     SMH    MOLCAS    ERIS     OPER   

              2       4        0.47       700     1000      520     2100   
                                         GEOM     BASIS   MCVARS     RHF  

 PROGRAMS   *        TOTAL    HF-SCF       INT
 CPU TIMES  *         1.42      0.19      1.10
 REAL TIME  *         2.15 SEC
 DISK USED  *       114.85 MB
 **********************************************************************************************************************************


 PROGRAM * CCSD (Closed-shell coupled cluster)     Authors: C. Hampel, H.-J. Werner, 1991, M. Deegan, P.J. Knowles, 1992


 CORETYPE=SMALL

 Convergence thresholds:  THRVAR = 1.00D-08  THRDEN = 1.00D-06

 CCSD(T)     terms to be evaluated (factor= 1.000)


 Number of closed-shell orbitals:   8 (   5   1   2   0 )
 Number of external orbitals:     106 (  43  23  28  12 )

 Molecular orbitals read from record     2100.2  Type=RHF/CANONICAL  

 Number of N-1 electron functions:               8
 Number of N-2 electron functions:              36
 Number of singly external CSFs:               294
 Number of doubly external CSFs:             97504
 Total number of CSFs:                       97799

 Length of J-op  integral file:               0.00 MB
 Length of K-op  integral file:               0.33 MB
 Length of 3-ext integral record:             0.00 MB

 Memory could be reduced to 3.58 Mwords without degradation in triples

 Integral transformation finished. Total CPU:   0.07 sec, npass=  1  Memory used:   0.78 MW

 Reference energy:                   -113.91235949

 MP2 singlet pair energy:              -0.33990056
 MP2 triplet pair energy:              -0.15963346
 MP2 correlation energy:               -0.49953402
 MP2 total energy:                   -114.41189351

 SCS-MP2 correlation energy:           -0.50720815   (PS=  1.200000  PT=  0.333333)
 SCS-MP2 total energy:               -114.41956764

 ITER.      SQ.NORM     CORR.ENERGY   TOTAL ENERGY   ENERGY CHANGE        DEN1      VAR(S)    VAR(P)  DIIS     TIME  TIME/IT
   1      1.11229720    -0.51170013  -114.42405962    -0.01216611     0.00169351  0.30D-02  0.24D-02  1  1     1.95     0.10
   2      1.12193127    -0.51199515  -114.42435464    -0.00029503    -0.01121440  0.53D-04  0.41D-03  2  2     2.04     0.10
   3      1.12609207    -0.51225277  -114.42461226    -0.00025761    -0.00183845  0.66D-04  0.36D-04  3  3     2.15     0.11
   4      1.12854586    -0.51215327  -114.42451276     0.00009949    -0.00107598  0.46D-05  0.50D-05  4  4     2.25     0.11
   5      1.12926458    -0.51215924  -114.42451873    -0.00000597    -0.00015438  0.13D-05  0.56D-06  5  5     2.35     0.11
   6      1.12952238    -0.51214647  -114.42450596     0.00001277    -0.00001988  0.11D-06  0.40D-07  6  6     2.45     0.11
   7      1.12955545    -0.51214548  -114.42450497     0.00000099    -0.00000155  0.12D-07  0.52D-08  6  1     2.54     0.11
   8      1.12956089    -0.51214484  -114.42450433     0.00000064     0.00000039  0.13D-08  0.60D-09  6  2     2.63     0.11

 Norm of t1 vector:      0.07617001      S-energy:    -0.00000041      T1 diagnostic:  0.01346508
                                                                       D1 diagnostic:  0.04562892
                                                                       D2 diagnostic:  0.17993006 (internal)

 Doubles amplitudes (print threshold =  0.500E-01):

         I         J         SYM. A    SYM. B    A         B      T(IJ, AB)

         6         6         2         2         1         1     -0.10834172


 Total CPU time for triples:      0.89 sec


 RESULTS
 =======

  Reference energy                   -113.912359490242

  Correlated core orbitals:             1.1       2.1
  Orbital energies:                   -20.5732  -11.3384

  CCSD core-core energy                -0.075575015272
  CCSD core-valence energy             -0.028392990579
  CCSD valence correlation energy      -0.408176835324

  CCSD singlet pair energy             -0.370196336384
  CCSD triplet pair energy             -0.141948097441
  CCSD correlation energy              -0.512144841175

  Triples (T) contribution             -0.017679163719
  Total correlation energy             -0.529824004894

  CCSD total energy                  -114.424504331417
  CCSD[T] energy                     -114.443256587359
  CCSD-T energy                      -114.441739489055
 !CCSD(T) total energy               -114.442183495136

 Timing summary (sec):

 STEP                 CPU(USER)    SYS     CPU(TOT)    WALL
 Transformation          0.07      0.02      0.09      0.09
 CCSD iterations         2.57      0.09      2.66      0.89
 Triples                 0.89      0.04      0.93      0.92

 Program statistics:

 Available memory in ccsd:              1073741563
 Min. memory needed in ccsd:                306795
 Max. memory used in ccsd:                  387837
 Max. memory used in cckext:                384362 ( 8 integral passes)



 **********************************************************************************************************************************
 DATASETS  * FILE   NREC   LENGTH (MB)   RECORD NAMES
              1      20       60.31       500      610      700      900      950      970     1000      129      960     1100   
                                          VAR    BASINP    GEOM    SYMINP    ZMAT    AOBASIS   BASIS     P2S    ABASIS      S 
                                         1400     1410     1200     1210     1080     1600     1650     1300     1700     1380   
                                           T        V       H0       H01     AOSYM     SMH    MOLCAS    ERIS     OPER     JKOP   

              2       4        0.47       700     1000      520     2100   
                                         GEOM     BASIS   MCVARS     RHF  

 PROGRAMS   *        TOTAL   CCSD(T)    HF-SCF       INT
 CPU TIMES  *         3.20      1.78      0.19      1.10
 REAL TIME  *         4.08 SEC
 DISK USED  *       114.85 MB
 **********************************************************************************************************************************

 Dump information in style XML to xml output                                                                      

 Orbitals will not be exported.

 **********************************************************************************************************************************

 CCSD(T)/cc-pCVTZ energy=   -114.442183495136

         CCSD(T)          HF-SCF
   -114.44218350   -113.91235949
 **********************************************************************************************************************************
 Molpro calculation terminated
