
 Working directory              : /var/folders/2v/xbgp75_9785319ghcgb4zr4r0000gp/T//molpro.2UQ9tLmWA2/
 Global scratch directory       : /var/folders/2v/xbgp75_9785319ghcgb4zr4r0000gp/T//molpro.2UQ9tLmWA2/
 Wavefunction directory         : /Users/sacpjk/wfu/
 Main file repository           : /var/folders/2v/xbgp75_9785319ghcgb4zr4r0000gp/T//molpro.2UQ9tLmWA2/

 id        : peterk

 Nodes                        nprocs
 Cardiff-University-G34YLXT77Y    1
 GA implementation: MPI file
 GA implementation (serial work in mppx): MPI file

 Using customized tuning parameters: mindgm=1; mindgv=20; mindgc=4; mindgr=1; noblas=0; minvec=7
 default implementation of scratch files=df  


 Variables initialized (1032), CPU time= 0.01 sec
 
 symmetry,nosym
 
 
 geometry={
 6
  o          0.267447400499    1.036193915363    0.243832776514
  h          1.211679700327    1.012397578101    0.039697146295
  c         -0.248483078221   -0.251811456479   -0.021506995726
  h         -1.306362694160   -0.236789065856    0.227189318595
  h         -0.153027911222   -0.533194532485   -1.072957150430
  h          0.228746582831   -1.026796438644    0.583744904647
 }
 basis=aug-cc-pVDZ
 
 
 
 hf; hf; papt; mp2
 
 
 
 {put,xml;noorbitals,nobasis}
 Commands initialized (841), CPU time= 0.00 sec, 704 directives.
 Default parameters read. Elapsed time= 0.08 sec

 Checking input...
 Passed
1


                                         ***  PROGRAM SYSTEM MOLPRO  ***
                                       Copyright, TTI GmbH Stuttgart, 2015
                                    Version 2023.1 linked Tue Jun  6 09:54:11 2023


 **********************************************************************************************************************************
 LABEL *                                                                                                                                                                 
  64 bit serial version                                                                  DATE: 08-Jun-23          TIME: 21:54:24  
 **********************************************************************************************************************************

 SHA1:             8ebb0dd001088a5c915591db1a321413035db0b1
 **********************************************************************************************************************************

 Memory per process:       805 MW
 Total memory per node:   1074 MW
 Total GA space:           268 MW

 GA preallocation disabled
 GA check enabled

 Variable memory set to 805.3 MW

 ZSYMEL=NOSYM


 Geometry recognized as XYZ

 SETTING BASIS          =    AUG-CC-PVDZ


 Recomputing integrals since basis changed


 Using spherical harmonics

 Library entry O      S aug-cc-pVDZ          selected for orbital group  1
 Library entry O      P aug-cc-pVDZ          selected for orbital group  1
 Library entry O      D aug-cc-pVDZ          selected for orbital group  1
 Library entry H      S aug-cc-pVDZ          selected for orbital group  2
 Library entry H      P aug-cc-pVDZ          selected for orbital group  2
 Library entry C      S aug-cc-pVDZ          selected for orbital group  3
 Library entry C      P aug-cc-pVDZ          selected for orbital group  3
 Library entry C      D aug-cc-pVDZ          selected for orbital group  3


 PROGRAM * SEWARD (Integral evaluation for generally contracted gaussian basis sets)     Author: Roland Lindh, 1990

 Geometry written to block  1 of record 700


 Point group  C1  



 ATOMIC COORDINATES

 NR  ATOM    CHARGE       X              Y              Z

   1  O       8.00    0.505402340    1.958122712    0.460777168
   2  H       1.00    2.289742784    1.913154152    0.075016734
   3  C       6.00   -0.469564964   -0.475854688   -0.040642332
   4  H       1.00   -2.468667711   -0.447466484    0.429325591
   5  H       1.00   -0.289180842   -1.007591638   -2.027595158
   6  H       1.00    0.432268393   -1.940364055    1.103117996

 Bond lengths in Bohr (Angstrom)

 1-2  1.826117221  1-3  2.669499717  3-4  2.053798318  3-5  2.064767335  3-6  2.065497223
     ( 0.966339618)     ( 1.412638415)     ( 1.086823266)     ( 1.092627820)     ( 1.093014060)

 Bond angles

  1-3-4  107.45243548   1-3-5  112.56023933   1-3-6  112.51984285   2-1-3  107.14181272

  4-3-5  107.98697641   4-3-6  107.94343214   5-3-6  108.18798931

 NUCLEAR CHARGE:                   18
 NUMBER OF PRIMITIVE AOS:         118
 NUMBER OF SYMMETRY AOS:          114
 NUMBER OF CONTRACTIONS:           82   (   82A   )
 NUMBER OF INNER CORE ORBITALS:     0   (    0A   )
 NUMBER OF OUTER CORE ORBITALS:     2   (    2A   )
 NUMBER OF VALENCE ORBITALS:       12   (   12A   )


 NUCLEAR REPULSION ENERGY   40.41731286

 Eigenvalues of metric

         1 0.646E-03 0.784E-03 0.809E-03 0.109E-02 0.243E-02 0.436E-02 0.495E-02 0.517E-02


 Contracted 2-electron integrals neglected if value below      1.0D-11
 AO integral compression algorithm  1   Integral accuracy      1.0D-11

     32.506 MB (compressed) written to integral file ( 56.2%)


 NUMBER OF SORTED TWO-ELECTRON INTEGRALS:    5791906.     BUFFER LENGTH:  32768
 NUMBER OF SEGMENTS:   1  SEGMENT LENGTH:    5791906      RECORD LENGTH: 524288

 Memory used in sort:       6.35 MW

 SORT1 READ     7210272. AND WROTE     5721689. INTEGRALS IN     17 RECORDS. CPU TIME:     0.04 SEC, REAL TIME:     0.06 SEC
 SORT2 READ     5721689. AND WROTE     5791906. INTEGRALS IN    124 RECORDS. CPU TIME:     0.08 SEC, REAL TIME:     0.09 SEC

 FILE SIZES:   FILE 1:    62.8 MBYTE,  FILE 4:    71.4 MBYTE,   TOTAL:    134.2 MBYTE

 OPERATOR DM      FOR CENTER  0  COORDINATES:    0.000000    0.000000    0.000000


 **********************************************************************************************************************************
 DATASETS  * FILE   NREC   LENGTH (MB)   RECORD NAMES
              1      19       54.30       500      610      700      900      950      970     1000      129      960     1100   
                                          VAR    BASINP    GEOM    SYMINP    ZMAT    AOBASIS   BASIS     P2S    ABASIS      S 
                                         1400     1410     1200     1210     1080     1600     1650     1300     1700   
                                           T        V       H0       H01     AOSYM     SMH    MOLCAS    ERIS     OPER   

 PROGRAMS   *        TOTAL       INT
 CPU TIMES  *         0.48      0.38
 REAL TIME  *         0.85 SEC
 DISK USED  *       128.40 MB
 **********************************************************************************************************************************


 Program * Restricted Hartree-Fock

 Orbital guess generated from atomic densities. Full valence occupancy:   14

 Initial occupancy:   9

 NELEC=   18   SYM=1   MS2= 0   THRE=1.0D-08   THRD=3.2D-06   THRG=3.2D-06  HFMA2=F  DIIS_START=2   DIIS_MAX=10   DIIS_INCORE=F

 Level shifts:    0.00 (CLOSED)    0.00 (OPEN)    0.30 (GAP_MIN)

 ITER           ETOT              DE          GRAD        DDIFF     DIIS  NEXP   TIME(IT)  TIME(TOT)  DIAG
   1     -115.02684216    -115.02684216     0.00D+00     0.97D-01     0     0       0.03      0.05    start
   2     -115.05414041      -0.02729826     0.71D-02     0.12D-01     1     0       0.02      0.07    diag
   3     -115.06067320      -0.00653279     0.37D-02     0.38D-02     2     0       0.03      0.10    diag
   4     -115.06120124      -0.00052804     0.79D-03     0.12D-02     3     0       0.02      0.12    diag
   5     -115.06122992      -0.00002868     0.15D-03     0.28D-03     4     0       0.02      0.14    diag
   6     -115.06123120      -0.00000127     0.27D-04     0.62D-04     5     0       0.03      0.17    diag
   7     -115.06123125      -0.00000005     0.54D-05     0.13D-04     6     0       0.02      0.19    diag
   8     -115.06123125      -0.00000000     0.13D-05     0.29D-05     7     0       0.03      0.22    fixocc
   9     -115.06123125      -0.00000000     0.29D-06     0.48D-06     0     0       0.02      0.24    diag

 Final occupancy:   9

 !RHF STATE 1.1 Energy               -115.061231252260
  RHF One-electron energy            -236.952276056898
  RHF Two-electron energy              81.473731943837
  RHF Kinetic energy                  114.891320896991
  RHF Nuclear energy                   40.417312860801
  RHF Virial quotient                  -1.001478878944

 !RHF STATE 1.1 Dipole moment           0.36697614    -0.56168249    -0.23856998
 Dipole moment /Debye                   0.93276032    -1.42765449    -0.60638439

 Orbital energies:

           1.1          2.1          3.1          4.1          5.1          6.1          7.1          8.1          9.1         10.1
    -20.570321   -11.278206    -1.363750    -0.926657    -0.693274    -0.620312    -0.595887    -0.504077    -0.449937     0.034413

          11.1
      0.051564


 HOMO      9.1    -0.449937 =     -12.2434eV
 LUMO     10.1     0.034413 =       0.9364eV
 LUMO-HOMO         0.484350 =      13.1798eV

 Orbitals saved in record  2100.2


 **********************************************************************************************************************************
 DATASETS  * FILE   NREC   LENGTH (MB)   RECORD NAMES
              1      19       54.30       500      610      700      900      950      970     1000      129      960     1100   
                                          VAR    BASINP    GEOM    SYMINP    ZMAT    AOBASIS   BASIS     P2S    ABASIS      S 
                                         1400     1410     1200     1210     1080     1600     1650     1300     1700   
                                           T        V       H0       H01     AOSYM     SMH    MOLCAS    ERIS     OPER   

              2       4        0.57       700     1000      520     2100   
                                         GEOM     BASIS   MCVARS     RHF  

 PROGRAMS   *        TOTAL    HF-SCF       INT
 CPU TIMES  *         0.72      0.24      0.38
 REAL TIME  *         1.26 SEC
 DISK USED  *       128.40 MB
 **********************************************************************************************************************************


 Program * Restricted Hartree-Fock

 Molecular orbitals read from record     2100.2  Type=RHF/CANONICAL  

 Initial occupancy:   9

 NELEC=   18   SYM=1   MS2= 0   THRE=1.0D-08   THRD=3.2D-06   THRG=3.2D-06  HFMA2=F  DIIS_START=2   DIIS_MAX=10   DIIS_INCORE=F

 Level shifts:    0.00 (CLOSED)    0.00 (OPEN)    0.30 (GAP_MIN)

 ITER           ETOT              DE          GRAD        DDIFF     DIIS  NEXP   TIME(IT)  TIME(TOT)  DIAG
   1     -115.06123125    -115.06123125     0.00D+00     0.99D-01     0     0       0.03      0.03    start
   2     -115.06123125      -0.00000000     0.12D-06     0.21D-06     1     0       0.02      0.05    diag

 Final occupancy:   9

 !RHF STATE 1.1 Energy               -115.061231252281
  RHF One-electron energy            -236.952268261349
  RHF Two-electron energy              81.473724148268
  RHF Kinetic energy                  114.891318287692
  RHF Nuclear energy                   40.417312860801
  RHF Virial quotient                  -1.001478901688

 !RHF STATE 1.1 Dipole moment           0.36697351    -0.56168462    -0.23856998
 Dipole moment /Debye                   0.93275363    -1.42765989    -0.60638440

 Orbital energies:

           1.1          2.1          3.1          4.1          5.1          6.1          7.1          8.1          9.1         10.1
    -20.570321   -11.278199    -1.363749    -0.926656    -0.693272    -0.620311    -0.595886    -0.504076    -0.449936     0.034413

          11.1
      0.051565


 HOMO      9.1    -0.449936 =     -12.2434eV
 LUMO     10.1     0.034413 =       0.9364eV
 LUMO-HOMO         0.484350 =      13.1798eV

 Orbitals saved in record  2101.2


 **********************************************************************************************************************************
 DATASETS  * FILE   NREC   LENGTH (MB)   RECORD NAMES
              1      19       54.30       500      610      700      900      950      970     1000      129      960     1100   
                                          VAR    BASINP    GEOM    SYMINP    ZMAT    AOBASIS   BASIS     P2S    ABASIS      S 
                                         1400     1410     1200     1210     1080     1600     1650     1300     1700   
                                           T        V       H0       H01     AOSYM     SMH    MOLCAS    ERIS     OPER   

              2       5        0.85       700     1000      520     2100     2101   
                                         GEOM     BASIS   MCVARS     RHF      RHF  

 PROGRAMS   *        TOTAL    HF-SCF    HF-SCF       INT
 CPU TIMES  *         0.78      0.06      0.24      0.38
 REAL TIME  *         1.40 SEC
 DISK USED  *       128.40 MB
 **********************************************************************************************************************************


 PROGRAM * PAPT (Closed-shell)     Authors: C. Hampel, H.-J. Werner, 1991, P.J. Knowles, 2021


 Convergence thresholds:  THRVAR = 1.00D-08  THRDEN = 1.00D-06

 Number of core orbitals:           2 (   2 )
 Number of closed-shell orbitals:   7 (   7 )
 Number of external orbitals:      73 (  73 )

 Molecular orbitals read from record     2101.2  Type=RHF/CANONICAL  

 Number of N-1 electron functions:               7
 Number of N-2 electron functions:              28
 Number of singly external CSFs:               511
 Number of doubly external CSFs:            130816
 Total number of CSFs:                      131328

 Length of J-op  integral file:               0.00 MB
 Length of K-op  integral file:               0.52 MB

 Integral transformation finished. Total CPU:   0.05 sec, npass=  1  Memory used:   0.49 MW

 Reference energy:                   -115.06123125

                        CORR.ENERGY   TOTAL ENERGY   ENERGY CHANGE
 MP2:                   -0.36009299  -115.42132424    -0.36009299

 SCS-MP2 correlation energy:           -0.35755491   (PS=  1.200000  PT=  0.333333)
 SCS-MP2 total energy:               -115.41878617
 Iteration:   1     0.2079D+00
 Iteration:   2     0.3345D+00
 Iteration:   3     0.7997D-01
 Iteration:   4     0.3540D-01
 Iteration:   5     0.5143D+00
 Iteration:   6     0.1473D-01
 Iteration:   7     0.1933D-01
 Iteration:   8     0.8430D-02
 Iteration:   9     0.2880D-02
 Iteration:  10     0.7952D-02
 Iteration:  11     0.1209D-02
 Iteration:  12     0.1372D-02
 Iteration:  13     0.8132D-03
 Iteration:  14     0.5410D-03
 Iteration:  15     0.5489D-03
 Iteration:  16     0.1124D-03
 Iteration:  17     0.2012D-03
 Iteration:  18     0.4457D-04
 PAPT operator written to  7000.1
 PAPT orbitals and eigenvalues written to  7000.2

 MP3(D):                -0.37802178  -115.43925303    -0.01792879



 RESULTS
 =======

  Reference energy                   -115.061231252281
  MP3 singlet pair energy              -0.257329796756
  MP3 triplet pair energy              -0.120691983326
  MP3 correlation energy               -0.378021780082

 !MP3 total energy                   -115.439253032362

 Timing summary (sec):

 STEP                 CPU(USER)    SYS     CPU(TOT)    WALL
 Transformation          0.05      0.01      0.06      0.09
 CCSD iterations         1.25      0.03      1.28      0.44

 Program statistics:

 Available memory in ccsd:               805306163
 Min. memory needed in ccsd:                438437
 Max. memory used in ccsd:                  541092
 Max. memory used in cckext:                448927 ( 1 integral passes)



 **********************************************************************************************************************************
 DATASETS  * FILE   NREC   LENGTH (MB)   RECORD NAMES
              1      21       56.59       500      610      700      900      950      970     1000      129      960     1100   
                                          VAR    BASINP    GEOM    SYMINP    ZMAT    AOBASIS   BASIS     P2S    ABASIS      S 
                                         1400     1410     1200     1210     1080     1600     1650     1300     1700     1380   
                                           T        V       H0       H01     AOSYM     SMH    MOLCAS    ERIS     OPER     JKOP   
                                         7000   
                                        PAPT AO    

              2       6        1.10       700     1000      520     2100     2101     7000   
                                         GEOM     BASIS   MCVARS     RHF      RHF     PAPT   

 PROGRAMS   *        TOTAL      PAPT    HF-SCF    HF-SCF       INT
 CPU TIMES  *         1.19      0.41      0.06      0.24      0.38
 REAL TIME  *         1.99 SEC
 DISK USED  *       128.40 MB
 **********************************************************************************************************************************


 PROGRAM * MP2 (Closed-shell)     Authors: C. Hampel, H.-J. Werner, 1991, M. Deegan, P.J. Knowles, 1992


 Convergence thresholds:  THRVAR = 1.00D-08  THRDEN = 1.00D-06

 Number of core orbitals:           2 (   2 )
 Number of closed-shell orbitals:   7 (   7 )
 Number of external orbitals:      73 (  73 )

 Molecular orbitals read from record     7000.2  Type=PAPT/CANONICAL (state 1.1)

 Number of N-1 electron functions:               7
 Number of N-2 electron functions:              28
 Number of singly external CSFs:               511
 Number of doubly external CSFs:            130816
 Total number of CSFs:                      131328

 Length of J-op  integral file:               0.00 MB
 Length of K-op  integral file:               0.52 MB

 Integral transformation finished. Total CPU:   0.05 sec, npass=  1  Memory used:   0.49 MW
 Orbital energies read from record       7000.2  Type=PAPT/CANONICAL (state 1.1)

 Memory needed for MP2:                      0.03 MW

 SCS-MP2 correlation energy:           -0.382005374999   (PS=  1.200000  PT=  0.333333)
 SCS-MP2 total energy:               -115.443236627280


  Reference energy                   -115.061231252281
  MP2 singlet pair energy              -0.249315742431
  MP2 triplet pair energy              -0.133113992274
  MP2 correlation energy               -0.382429734705

 !MP2 total energy                   -115.443660986986


 **********************************************************************************************************************************
 DATASETS  * FILE   NREC   LENGTH (MB)   RECORD NAMES
              1      21       56.59       500      610      700      900      950      970     1000      129      960     1100   
                                          VAR    BASINP    GEOM    SYMINP    ZMAT    AOBASIS   BASIS     P2S    ABASIS      S 
                                         1400     1410     1200     1210     1080     1600     1650     1300     1700     1380   
                                           T        V       H0       H01     AOSYM     SMH    MOLCAS    ERIS     OPER     JKOP   
                                         7000   
                                        PAPT AO    

              2       6        1.10       700     1000      520     2100     2101     7000   
                                         GEOM     BASIS   MCVARS     RHF      RHF     PAPT   

 PROGRAMS   *        TOTAL       MP2      PAPT    HF-SCF    HF-SCF       INT
 CPU TIMES  *         1.32      0.13      0.41      0.06      0.24      0.38
 REAL TIME  *         2.28 SEC
 DISK USED  *       128.40 MB
 **********************************************************************************************************************************

 Dump information in style XML to xml output                                                                      

 Orbitals will not be exported.

 **********************************************************************************************************************************

 MP2/aug-cc-pVDZ energy=   -115.443660986986

             MP2            PAPT          HF-SCF          HF-SCF
   -115.44366099   -115.43925303   -115.06123125   -115.06123125
 **********************************************************************************************************************************
 Molpro calculation terminated
