
 Working directory              : /tmp/peterk/molpro.UWrjgVUzFb/
 Global scratch directory       : /tmp/peterk/molpro.UWrjgVUzFb/
 Wavefunction directory         : /home/peterk/wfu/
 Main file repository           : /tmp/peterk/molpro.UWrjgVUzFb/

 id        : peterk

 Nodes     nprocs
 marat        1
 GA implementation: MPI file
 GA implementation (serial work in mppx): MPI file

 Using customized tuning parameters: mindgm=1; mindgv=20; mindgc=4; mindgr=1; noblas=0; minvec=7
 default implementation of scratch files=df  


 Variables initialized (1032), CPU time= 0.00 sec
 
 symmetry,nosym
 
 
 geometry={
           11
     O         -2.08938271      0.82426315     -0.79451875
     S         -1.20395695     -0.20237954      0.03793684
     O         -0.96936483      0.41469892      1.31835902
     O         -1.72815681     -1.52556412     -0.09889423
     O          0.16734080     -0.06823650     -0.84156961
     S          1.65770905     -0.26432717     -0.05362682
     O          1.66402544      1.02817621      0.85675061
     O          1.55993090     -1.45589929      0.73334280
     O          2.60689562     -0.06331648     -1.09423768
     H         -2.53817447      0.33875104     -1.51496149
     H          0.87313394      0.97383379      1.45141931
 }
 basis=cc-pVTZ
 
 
 
 hf; ccsd(t)
 
 
 
 {put,xml;noorbitals,nobasis}
 Commands initialized (841), CPU time= 0.00 sec, 708 directives.
 Default parameters read. Elapsed time= 0.05 sec

 Checking input...
 Passed
1


                                         ***  PROGRAM SYSTEM MOLPRO  ***
                                       Copyright, TTI GmbH Stuttgart, 2015
                                    Version 2023.1 linked Sat Jun 10 08:01:27 2023


 **********************************************************************************************************************************
 LABEL *                                                                                                                                                                 
  (16 PROC) 64 bit serial version                                                        DATE: 13-Jun-23          TIME: 15:23:34  
 **********************************************************************************************************************************

 SHA1:             8376d659ba1296ca7ee514c57770fe2c96af278c
 **********************************************************************************************************************************

 Memory per process:      1074 MW
 Total memory per node:   1074 MW

 GA preallocation disabled
 GA check disabled

 Variable memory set to 1073.7 MW

 ZSYMEL=NOSYM


 Geometry recognized as XYZ

 SETTING BASIS          =    CC-PVTZ


 Recomputing integrals since basis changed


 Using spherical harmonics

 Library entry O      S cc-pVTZ              selected for orbital group  1
 Library entry O      P cc-pVTZ              selected for orbital group  1
 Library entry O      D cc-pVTZ              selected for orbital group  1
 Library entry O      F cc-pVTZ              selected for orbital group  1
 Library entry S      S cc-pVTZ              selected for orbital group  2
 Library entry S      P cc-pVTZ              selected for orbital group  2
 Library entry S      D cc-pVTZ              selected for orbital group  2
 Library entry S      F cc-pVTZ              selected for orbital group  2
 Library entry H      S cc-pVTZ              selected for orbital group  6
 Library entry H      P cc-pVTZ              selected for orbital group  6
 Library entry H      D cc-pVTZ              selected for orbital group  6


 PROGRAM * SEWARD (Integral evaluation for generally contracted gaussian basis sets)     Author: Roland Lindh, 1990

 Geometry written to block  1 of record 700


 Point group  C1  



 ATOMIC COORDINATES

 NR  ATOM    CHARGE       X              Y              Z

   1  O       8.00   -3.948361091    1.557631608   -1.501422838
   2  S      16.00   -2.275148901   -0.382441904    0.071690238
   3  O       8.00   -1.831834044    0.783667383    2.491337482
   4  O       8.00   -3.265743071   -2.882898372   -0.186883010
   5  O       8.00    0.316228281   -0.128948297   -1.590336078
   6  S      16.00    3.132616099   -0.499505959   -0.101340003
   7  O       8.00    3.144552346    1.942971445    1.619024010
   8  O       8.00    2.947842174   -2.751250923    1.385817047
   9  O       8.00    4.926318757   -0.119650806   -2.067809530
  10  H       1.00   -4.796454605    0.640146690   -2.862862305
  11  H       1.00    1.649984017    1.840279154    2.742784988

 Bond lengths in Bohr (Angstrom)

  1- 2  3.006361425   1-10  1.847852430   2- 3  2.722321017   2- 4  2.701928845   2- 5  3.088984653
       ( 1.590897954)       ( 0.977841395)       ( 1.440590243)       ( 1.429799170)       ( 1.634620283)

 2-6  5.411798754  5-6  3.207251569  6-7  2.987555970  6-8  2.704835093  6-9  2.688617036
     ( 2.863800571)     ( 1.697204440)     ( 1.580946536)     ( 1.431337090)     ( 1.422754864)

  7-11  1.872730342
       ( 0.991006219)

 Bond angles

  1-2-3  106.21792901   1-2-4  110.06463597   1-2-5   97.60846257   1-2-6  123.59861532

  2- 1-10  108.69613644   2- 5- 6  118.51549643   2- 6- 5   30.10218618   2- 6- 7   88.16028231

  2-6-8   86.11047776   2-6-9  133.39141447   3-2-4  122.76351744   3-2-5  107.84626811

  3-2-6   82.81697364   4-2-5  109.39132850   4-2-6  110.07643720   5-2-6   31.38231739

  5- 6- 7  100.15963215   5- 6- 8  106.94494652   5- 6- 9  103.29456123   6- 7-11  107.30896796

  7-6-8  111.36251475   7-6-9  107.63810673   8-6-9  124.42507130

 NUCLEAR CHARGE:                   90
 NUMBER OF PRIMITIVE AOS:         491
 NUMBER OF SYMMETRY AOS:          444
 NUMBER OF CONTRACTIONS:          306   (  306A   )
 NUMBER OF INNER CORE ORBITALS:     2   (    2A   )
 NUMBER OF OUTER CORE ORBITALS:    15   (   15A   )
 NUMBER OF VALENCE ORBITALS:       38   (   38A   )


 NUCLEAR REPULSION ENERGY  801.25554653


 Eigenvalues of metric

         1 0.141E-02 0.174E-02 0.198E-02 0.216E-02 0.238E-02 0.241E-02 0.242E-02 0.258E-02


 Contracted 2-electron integrals neglected if value below      1.0D-11
 AO integral compression algorithm  1   Integral accuracy      1.0D-11

     2900.886 MB (compressed) written to integral file ( 32.7%)


 NUMBER OF SORTED TWO-ELECTRON INTEGRALS: 1103160906.     BUFFER LENGTH:  32768
 NUMBER OF SEGMENTS:  35  SEGMENT LENGTH:   31998710      RECORD LENGTH: 524288

 Memory used in sort:      32.56 MW

 SORT1 READ  1107999407. AND WROTE   794401535. INTEGRALS IN   2292 RECORDS. CPU TIME:    41.48 SEC, REAL TIME:   504.30 SEC
 SORT2 READ   794401535. AND WROTE  1103160906. INTEGRALS IN  11066 RECORDS. CPU TIME:    11.18 SEC, REAL TIME:   469.91 SEC

 FILE SIZES:   FILE 1:  2934.5 MBYTE,  FILE 4:  9613.4 MBYTE,   TOTAL:  12547.9 MBYTE

 OPERATOR DM      FOR CENTER  0  COORDINATES:    0.000000    0.000000    0.000000


 **********************************************************************************************************************************
 DATASETS  * FILE   NREC   LENGTH (MB)   RECORD NAMES
              1      19     2492.98       500      610      700      900      950      970     1000      129      960     1100   
                                          VAR    BASINP    GEOM    SYMINP    ZMAT    AOBASIS   BASIS     P2S    ABASIS      S 
                                         1400     1410     1200     1210     1080     1600     1650     1300     1700   
                                           T        V       H0       H01     AOSYM     SMH    MOLCAS    ERIS     OPER   

 PROGRAMS   *        TOTAL       INT
 CPU TIMES  *        94.52     94.41
 REAL TIME  *      1052.51 SEC
 DISK USED  *        11.69 GB
 **********************************************************************************************************************************


 Program * Restricted Hartree-Fock

 Orbital guess generated from atomic densities. Full valence occupancy:   55

 Initial occupancy:  45

 NELEC=   90   SYM=1   MS2= 0   THRE=1.0D-08   THRD=3.2D-06   THRG=3.2D-06  HFMA2=F  DIIS_START=2   DIIS_MAX=10   DIIS_INCORE=F

 Level shifts:    0.00 (CLOSED)    0.00 (OPEN)    0.30 (GAP_MIN)

 ITER           ETOT              DE          GRAD        DDIFF     DIIS  NEXP   TIME(IT)  TIME(TOT)  DIAG
   1    -1319.99887790   -1319.99887790     0.00D+00     0.57D-01     0     0       6.36     12.75    start
   2    -1320.19227752      -0.19339962     0.67D-02     0.10D-01     1     0       6.36     19.11    diag
   3    -1320.39536898      -0.20309145     0.51D-02     0.42D-02     2     0       6.32     25.43    diag
   4    -1320.39796038      -0.00259140     0.54D-03     0.66D-03     3     0       6.19     31.62    diag
   5    -1320.39843242      -0.00047204     0.22D-03     0.26D-03     4     0       6.33     37.95    diag
   6    -1320.39846780      -0.00003538     0.52D-04     0.67D-04     5     0       6.35     44.30    diag
   7    -1320.39847207      -0.00000427     0.14D-04     0.26D-04     6     0       6.35     50.65    diag
   8    -1320.39847245      -0.00000038     0.48D-05     0.75D-05     7     0       6.35     57.00    fixocc
   9    -1320.39847251      -0.00000006     0.19D-05     0.29D-05     8     0       6.27     63.27    diag
  10    -1320.39847252      -0.00000001     0.58D-06     0.98D-06     9     0       6.35     69.62    diag/orth
  11    -1320.39847252      -0.00000000     0.16D-06     0.24D-06     0     0       6.21     75.83    diag

 Final occupancy:  45

 !RHF STATE 1.1 Energy              -1320.398472521069
  RHF One-electron energy           -3415.045906017977
  RHF Two-electron energy            1293.391886965203
  RHF Kinetic energy                 1318.705473389052
  RHF Nuclear energy                  801.255546531705
  RHF Virial quotient                  -1.001283834159

 !RHF STATE 1.1 Dipole moment          -1.19799903     0.77346041    -0.43350874
 Dipole moment /Debye                  -3.04500982     1.96594027    -1.10186932

 Orbital energies:

           1.1          2.1          3.1          4.1          5.1          6.1          7.1          8.1          9.1         10.1
    -92.317463   -92.304990   -20.696468   -20.690599   -20.675086   -20.626383   -20.620738   -20.613827   -20.610390    -9.276127

          11.1         12.1         13.1         14.1         15.1         16.1         17.1         18.1         19.1         20.1
     -9.263881    -6.962311    -6.961646    -6.960486    -6.950374    -6.948989    -6.947930    -1.607044    -1.564318    -1.457515

          21.1         22.1         23.1         24.1         25.1         26.1         27.1         28.1         29.1         30.1
     -1.448297    -1.431597    -1.424164    -1.414723    -0.993255    -0.918079    -0.848976    -0.809175    -0.780571    -0.769698

          31.1         32.1         33.1         34.1         35.1         36.1         37.1         38.1         39.1         40.1
     -0.742472    -0.713347    -0.704004    -0.681948    -0.648103    -0.639668    -0.609786    -0.599987    -0.584981    -0.574662

          41.1         42.1         43.1         44.1         45.1         46.1         47.1
     -0.563071    -0.557658    -0.546888    -0.538934    -0.530495     0.100639     0.154460


 HOMO     45.1    -0.530495 =     -14.4355eV
 LUMO     46.1     0.100639 =       2.7385eV
 LUMO-HOMO         0.631134 =      17.1740eV

 Orbitals saved in record  2100.2


 **********************************************************************************************************************************
 DATASETS  * FILE   NREC   LENGTH (MB)   RECORD NAMES
              1      19     2492.98       500      610      700      900      950      970     1000      129      960     1100   
                                          VAR    BASINP    GEOM    SYMINP    ZMAT    AOBASIS   BASIS     P2S    ABASIS      S 
                                         1400     1410     1200     1210     1080     1600     1650     1300     1700   
                                           T        V       H0       H01     AOSYM     SMH    MOLCAS    ERIS     OPER   

              2       4        2.03       700     1000      520     2100   
                                         GEOM     BASIS   MCVARS     RHF  

 PROGRAMS   *        TOTAL    HF-SCF       INT
 CPU TIMES  *       170.36     75.84     94.41
 REAL TIME  *      1157.54 SEC
 DISK USED  *        11.69 GB
 **********************************************************************************************************************************


 PROGRAM * CCSD (Closed-shell coupled cluster)     Authors: C. Hampel, H.-J. Werner, 1991, M. Deegan, P.J. Knowles, 1992


 Convergence thresholds:  THRVAR = 1.00D-08  THRDEN = 1.00D-06

 CCSD(T)     terms to be evaluated (factor= 1.000)


 Number of core orbitals:          17 (  17 )
 Number of closed-shell orbitals:  28 (  28 )
 Number of external orbitals:     261 ( 261 )

 Molecular orbitals read from record     2100.2  Type=RHF/CANONICAL  

 Number of N-1 electron functions:              28
 Number of N-2 electron functions:             406
 Number of singly external CSFs:              7308
 Number of doubly external CSFs:          26707086
 Total number of CSFs:                    26714395

 Length of J-op  integral file:               0.00 MB
 Length of K-op  integral file:               6.49 MB
 Length of 3-ext integral record:             0.00 MB

 Memory could be reduced to 604.93 Mwords without degradation in triples

 Integral transformation finished. Total CPU:  82.28 sec, npass=  1  Memory used: 479.35 MW

 Reference energy:                  -1320.39847252

 MP2 singlet pair energy:              -1.21210048
 MP2 triplet pair energy:              -0.82989122
 MP2 correlation energy:               -2.04199170
 MP2 total energy:                  -1322.44046422

 SCS-MP2 correlation energy:           -1.97089734   (PS=  1.200000  PT=  0.333333)
 SCS-MP2 total energy:              -1322.36936986

 ITER.      SQ.NORM     CORR.ENERGY   TOTAL ENERGY   ENERGY CHANGE        DEN1      VAR(S)    VAR(P)  DIIS     TIME  TIME/IT
   1      1.48457078    -2.02780358 -1322.42627611     0.01418812     0.07757414  0.18D-01  0.12D-01  1  1   590.29   335.66
   2      1.51936573    -2.02336365 -1322.42183617     0.00443993    -0.04812664  0.29D-03  0.14D-02  2  2   931.79   339.40
   3      1.53429525    -2.02398443 -1322.42245695    -0.00062077    -0.00694065  0.37D-03  0.66D-04  3  3  1273.94   341.40
   4      1.54104609    -2.02341702 -1322.42188954     0.00056741    -0.00285266  0.31D-04  0.12D-04  4  4  1614.12   342.82
   5      1.54404841    -2.02332209 -1322.42179461     0.00009493    -0.00084605  0.43D-05  0.11D-05  5  5  1955.43   344.29
   6      1.54464983    -2.02327593 -1322.42174845     0.00004616    -0.00006222  0.50D-06  0.20D-06  6  6  2296.95   344.44
   7      1.54482604    -2.02326108 -1322.42173361     0.00001484    -0.00000617  0.66D-07  0.32D-07  6  1  2639.50   344.62
   8      1.54486675    -2.02326109 -1322.42173361    -0.00000000    -0.00001516  0.80D-08  0.40D-08  6  2  2979.06   344.27
   9      1.54486385    -2.02326198 -1322.42173450    -0.00000089     0.00000817  0.15D-08  0.62D-09  6  3  3319.02   344.05

 Norm of t1 vector:      0.17499418      S-energy:    -0.00000194      T1 diagnostic:  0.01653540
                                                                       D1 diagnostic:  0.05459688
                                                                       D2 diagnostic:  0.15183363 (external, symmetry=1)

   CPU time for triples:   1942.10 sec for i =  1 - 17 / 28 (~  23.6 % done)
   CPU time for triples:   2179.10 sec for i = 18 - 22 / 28 (~  49.7 % done)
   CPU time for triples:   2486.30 sec for i = 23 - 26 / 28 (~  80.6 % done)
   CPU time for triples:   1563.44 sec for i = 27 - 28 / 28 (  100.0 % done)

 Total CPU time for triples:   8170.94 sec


 RESULTS
 =======

  Reference energy                  -1320.398472521070
  CCSD singlet pair energy             -1.298279021876
  CCSD triplet pair energy             -0.724981021371
  CCSD correlation energy              -2.023261981595

  Triples (T) contribution             -0.092094584818
  Total correlation energy             -2.115356566413

  CCSD total energy                 -1322.421734502665
  CCSD[T] energy                    -1322.519619374398
  CCSD-T energy                     -1322.511449059768
 !CCSD(T) total energy              -1322.513829087483

 Timing summary (sec):

 STEP                 CPU(USER)    SYS     CPU(TOT)    WALL
 Transformation         84.21      4.95     89.16     89.20
 CCSD iterations      3238.39     19.96   3258.35   3100.30
 Triples              8170.94    131.54   8302.48   8316.58

 Program statistics:

 Available memory in ccsd:              1073738643
 Min. memory needed in ccsd:              62260081
 Max. memory used in ccsd:                87302707
 Max. memory used in cckext:              77431986 ( 9 integral passes)



 **********************************************************************************************************************************
 DATASETS  * FILE   NREC   LENGTH (MB)   RECORD NAMES
              1      20     4836.29       500      610      700      900      950      970     1000      129      960     1100   
                                          VAR    BASINP    GEOM    SYMINP    ZMAT    AOBASIS   BASIS     P2S    ABASIS      S 
                                         1400     1410     1200     1210     1080     1600     1650     1300     1700     1380   
                                           T        V       H0       H01     AOSYM     SMH    MOLCAS    ERIS     OPER     JKOP   

              2       4        2.03       700     1000      520     2100   
                                         GEOM     BASIS   MCVARS     RHF  

 PROGRAMS   *        TOTAL   CCSD(T)    HF-SCF       INT
 CPU TIMES  *     11493.26  11322.90     75.84     94.41
 REAL TIME  *     12664.68 SEC
 DISK USED  *        11.69 GB
 **********************************************************************************************************************************

 Dump information in style XML to xml output                                                                      

 Orbitals will not be exported.

 **********************************************************************************************************************************

 CCSD(T)/cc-pVTZ energy=  -1322.513829087483

         CCSD(T)          HF-SCF
  -1322.51382909  -1320.39847252
 **********************************************************************************************************************************
 Molpro calculation terminated
