
 Working directory              : /var/folders/2v/xbgp75_9785319ghcgb4zr4r0000gp/T//molpro.2jfxxpi7kw/
 Global scratch directory       : /var/folders/2v/xbgp75_9785319ghcgb4zr4r0000gp/T//molpro.2jfxxpi7kw/
 Wavefunction directory         : /Users/sacpjk/wfu/
 Main file repository           : /var/folders/2v/xbgp75_9785319ghcgb4zr4r0000gp/T//molpro.2jfxxpi7kw/

 id        : peterk

 Nodes                        nprocs
 Cardiff-University-G34YLXT77Y    1
 GA implementation: MPI file
 GA implementation (serial work in mppx): MPI file

 Using customized tuning parameters: mindgm=1; mindgv=20; mindgc=4; mindgr=1; noblas=0; minvec=7
 default implementation of scratch files=df  


 Variables initialized (1032), CPU time= 0.00 sec
 
 symmetry,nosym
 
 
 geometry={
           17
     SI         0.95111717     -2.34248323      0.00000000
     SI         2.89848985     -1.03325876      0.00000000
     SI        -0.99433708     -1.00453120      0.00000000
     SI        -0.50864801      1.29196677      0.00000000
     SI        -2.47062147      2.57854369      0.00000000
     H          0.94975038     -3.21957328     -1.20217863
     H          0.94975038     -3.21957328      1.20217863
     H         -1.81620882     -1.31657238      1.20081987
     H         -1.81620882     -1.31657238     -1.20081987
     H          0.30852143      1.61775107     -1.20050887
     H          0.30852143      1.61775107      1.20050887
     H         -2.17074349      4.03381275      0.00000000
     H         -3.27850228      2.26099322     -1.20543585
     H         -3.27850228      2.26099322      1.20543585
     H          4.11885639     -1.88075049      0.00000000
     H          2.92438262     -0.16424840     -1.20428156
     H          2.92438262     -0.16424840      1.20428156
 }
 basis=cc-pVTZ
 
 
 
 hf; hf; papt; mp3
 
 
 
 {put,xml;noorbitals,nobasis}
 Commands initialized (841), CPU time= 0.00 sec, 704 directives.
 Default parameters read. Elapsed time= 0.65 sec

 Checking input...
 Passed
1


                                         ***  PROGRAM SYSTEM MOLPRO  ***
                                       Copyright, TTI GmbH Stuttgart, 2015
                                    Version 2023.1 linked Tue Jun  6 09:54:11 2023


 **********************************************************************************************************************************
 LABEL *                                                                                                                                                                 
  64 bit serial version                                                                  DATE: 13-Jun-23          TIME: 06:52:08  
 **********************************************************************************************************************************

 SHA1:             8ebb0dd001088a5c915591db1a321413035db0b1
 **********************************************************************************************************************************

 Memory per process:       393 MW
 Total memory per node:    524 MW
 Total GA space:           131 MW

 GA preallocation disabled
 GA check enabled

 Variable memory set to 393.2 MW

 ZSYMEL=NOSYM


 Geometry recognized as XYZ

 SETTING BASIS          =    CC-PVTZ


 Recomputing integrals since basis changed


 Using spherical harmonics

 Library entry SI     S cc-pVTZ              selected for orbital group  1
 Library entry SI     P cc-pVTZ              selected for orbital group  1
 Library entry SI     D cc-pVTZ              selected for orbital group  1
 Library entry SI     F cc-pVTZ              selected for orbital group  1
 Library entry H      S cc-pVTZ              selected for orbital group  2
 Library entry H      P cc-pVTZ              selected for orbital group  2
 Library entry H      D cc-pVTZ              selected for orbital group  2


 PROGRAM * SEWARD (Integral evaluation for generally contracted gaussian basis sets)     Author: Roland Lindh, 1990

 Geometry written to block  1 of record 700


 Point group  C1  



 ATOMIC COORDINATES

 NR  ATOM    CHARGE       X              Y              Z

   1  SI     14.00    1.797350964   -4.426651756    0.000000000
   2  SI     14.00    5.477351992   -1.952576072    0.000000000
   3  SI     14.00   -1.879024757   -1.898288852    0.000000000
   4  SI     14.00   -0.961205433    2.441463357    0.000000000
   5  SI     14.00   -4.668797936    4.872741374    0.000000000
   6  H       1.00    1.794768105   -6.084111737   -2.271788364
   7  H       1.00    1.794768105   -6.084111737    2.271788364
   8  H       1.00   -3.432137255   -2.487961221    2.269220679
   9  H       1.00   -3.432137255   -2.487961221   -2.269220679
  10  H       1.00    0.583021006    3.057106460   -2.268632974
  11  H       1.00    0.583021006    3.057106460    2.268632974
  12  H       1.00   -4.102110683    7.622801336    0.000000000
  13  H       1.00   -6.195471408    4.272657955   -2.277943617
  14  H       1.00   -6.195471408    4.272657955    2.277943617
  15  H       1.00    7.783510524   -3.554103335    0.000000000
  16  H       1.00    5.526282235   -0.310384492   -2.275762325
  17  H       1.00    5.526282235   -0.310384492    2.275762325

 Bond lengths in Bohr (Angstrom)

  1- 2  4.434349789   1- 3  4.461878239   1- 6  2.812152668   1- 7  2.812152668   2-15  2.807713794
       ( 2.346556854)       ( 2.361124282)       ( 1.488127106)       ( 1.488127106)       ( 1.485778154)

  2-16  2.806827660   2-17  2.806827660   3- 4  4.435745884   3- 8  2.812336116   3- 9  2.812336116
       ( 1.485309233)       ( 1.485309233)       ( 2.347295635)       ( 1.488224182)       ( 1.488224182)

  4- 5  4.433661575   4-10  2.812533964   4-11  2.812533964   5-12  2.807839780   5-13  2.807108677
       ( 2.346192667)       ( 1.488328879)       ( 1.488328879)       ( 1.485844824)       ( 1.485457940)

  5-14  2.807108677
       ( 1.485457940)

 Bond angles

  1- 2-15  111.30863625   1- 2-16  109.93158359   1- 2-17  109.93158359   1- 3- 4  112.57598178

  1-3-8  109.64640063   1-3-9  109.64640063   2-1-3  111.56937561   2-1-6  109.24475078

  2-1-7  109.24475078   3-1-6  109.46478162   3-1-7  109.46478162   3-4-5  111.31353681

  3- 4-10  109.13301168   3- 4-11  109.13301168   4- 3- 8  108.62690914   4- 3- 9  108.62690914

  4- 5-12  111.61152508   4- 5-13  109.72886965   4- 5-14  109.72886965   5- 4-10  109.82227336

  5- 4-11  109.82227336   6- 1- 7  107.77216476   8- 3- 9  107.58462000  10- 4-11  107.53308939

 12- 5-13  108.61075935  12- 5-14  108.61075935  13- 5-14  108.48373924  15- 2-16  108.62707412

 15- 2-17  108.62707412  16- 2-17  108.34739023

 NUCLEAR CHARGE:                   82
 NUMBER OF PRIMITIVE AOS:         524
 NUMBER OF SYMMETRY AOS:          487
 NUMBER OF CONTRACTIONS:          338   (  338A   )
 NUMBER OF INNER CORE ORBITALS:     5   (    5A   )
 NUMBER OF OUTER CORE ORBITALS:    20   (   20A   )
 NUMBER OF VALENCE ORBITALS:       32   (   32A   )


 NUCLEAR REPULSION ENERGY  469.02428364


 Eigenvalues of metric

         1 0.660E-03 0.101E-02 0.112E-02 0.117E-02 0.141E-02 0.161E-02 0.193E-02 0.195E-02


 Contracted 2-electron integrals neglected if value below      1.0D-11
 AO integral compression algorithm  1   Integral accuracy      1.0D-11

     3129.737 MB (compressed) written to integral file ( 26.9%)


 NUMBER OF SORTED TWO-ELECTRON INTEGRALS: 1641157986.     BUFFER LENGTH:  32768
 NUMBER OF SEGMENTS:  52  SEGMENT LENGTH:   31998710      RECORD LENGTH: 524288

 Memory used in sort:      32.56 MW

 SORT1 READ  1454085408. AND WROTE   882985380. INTEGRALS IN   2553 RECORDS. CPU TIME:    10.31 SEC, REAL TIME:    13.16 SEC
 SORT2 READ   882985380. AND WROTE  1641157986. INTEGRALS IN  11939 RECORDS. CPU TIME:     8.21 SEC, REAL TIME:    10.59 SEC

 FILE SIZES:   FILE 1:  3164.2 MBYTE,  FILE 4: 10708.1 MBYTE,   TOTAL:  13872.4 MBYTE

 OPERATOR DM      FOR CENTER  0  COORDINATES:    0.000000    0.000000    0.000000


 **********************************************************************************************************************************
 DATASETS  * FILE   NREC   LENGTH (MB)   RECORD NAMES
              1      19     2694.49       500      610      700      900      950      970     1000      129      960     1100   
                                          VAR    BASINP    GEOM    SYMINP    ZMAT    AOBASIS   BASIS     P2S    ABASIS      S 
                                         1400     1410     1200     1210     1080     1600     1650     1300     1700   
                                           T        V       H0       H01     AOSYM     SMH    MOLCAS    ERIS     OPER   

 PROGRAMS   *        TOTAL       INT
 CPU TIMES  *        49.59     49.50
 REAL TIME  *        59.97 SEC
 DISK USED  *        12.92 GB
 **********************************************************************************************************************************


 Program * Restricted Hartree-Fock

 Orbital guess generated from atomic densities. Full valence occupancy:   57

 Initial occupancy:  41

 NELEC=   82   SYM=1   MS2= 0   THRE=1.0D-08   THRD=3.2D-06   THRG=3.2D-06  HFMA2=F  DIIS_START=2   DIIS_MAX=10   DIIS_INCORE=F

 Level shifts:    0.00 (CLOSED)    0.00 (OPEN)    0.30 (GAP_MIN)

 ITER           ETOT              DE          GRAD        DDIFF     DIIS  NEXP   TIME(IT)  TIME(TOT)  DIAG
   1    -1451.63259533   -1451.63259533     0.00D+00     0.51D-01     0     0       7.41     14.49    start
   2    -1451.69381060      -0.06121527     0.13D-02     0.24D-02     1     0       7.64     22.13    diag
   3    -1451.70240061      -0.00859001     0.44D-03     0.85D-03     2     0       7.55     29.68    diag
   4    -1451.70265474      -0.00025413     0.85D-04     0.19D-03     3     0       7.53     37.21    diag
   5    -1451.70267492      -0.00002018     0.24D-04     0.67D-04     4     0       7.48     44.69    diag
   6    -1451.70267597      -0.00000105     0.48D-05     0.21D-04     5     0       7.69     52.38    diag
   7    -1451.70267601      -0.00000004     0.11D-05     0.39D-05     6     0       7.92     60.30    diag
   8    -1451.70267601      -0.00000000     0.26D-06     0.94D-06     7     0       8.13     68.43    fixocc
   9    -1451.70267601      -0.00000000     0.71D-07     0.17D-06     0     0       8.11     76.54    diag

 Final occupancy:  41

 !RHF STATE 1.1 Energy              -1451.702676012540
  RHF One-electron energy           -2948.372001194643
  RHF Two-electron energy            1027.645041541702
  RHF Kinetic energy                 1451.798788598665
  RHF Nuclear energy                  469.024283640402
  RHF Virial quotient                  -0.999933797585

 !RHF STATE 1.1 Dipole moment           0.00715036    -0.02757553    -0.00000000
 Dipole moment /Debye                   0.01817439    -0.07009000    -0.00000000

 Orbital energies:

           1.1          2.1          3.1          4.1          5.1          6.1          7.1          8.1          9.1         10.1
    -68.775712   -68.774957   -68.774644   -68.773878   -68.772779    -6.125327    -6.124696    -6.124666    -6.123958    -6.123174

          11.1         12.1         13.1         14.1         15.1         16.1         17.1         18.1         19.1         20.1
     -4.231252    -4.231209    -4.231181    -4.230678    -4.230566    -4.230560    -4.230511    -4.230464    -4.230447    -4.229760

          21.1         22.1         23.1         24.1         25.1         26.1         27.1         28.1         29.1         30.1
     -4.229637    -4.229538    -4.228950    -4.228874    -4.228834    -0.781626    -0.751442    -0.711502    -0.672270    -0.635159

          31.1         32.1         33.1         34.1         35.1         36.1         37.1         38.1         39.1         40.1
     -0.515224    -0.498128    -0.491924    -0.489108    -0.485042    -0.475661    -0.462193    -0.443076    -0.423381    -0.390375

          41.1         42.1         43.1
     -0.368581     0.096022     0.104823


 HOMO     41.1    -0.368581 =     -10.0296eV
 LUMO     42.1     0.096022 =       2.6129eV
 LUMO-HOMO         0.464604 =      12.6425eV

 Orbitals saved in record  2100.2


 **********************************************************************************************************************************
 DATASETS  * FILE   NREC   LENGTH (MB)   RECORD NAMES
              1      19     2694.49       500      610      700      900      950      970     1000      129      960     1100   
                                          VAR    BASINP    GEOM    SYMINP    ZMAT    AOBASIS   BASIS     P2S    ABASIS      S 
                                         1400     1410     1200     1210     1080     1600     1650     1300     1700   
                                           T        V       H0       H01     AOSYM     SMH    MOLCAS    ERIS     OPER   

              2       4        2.44       700     1000      520     2100   
                                         GEOM     BASIS   MCVARS     RHF  

 PROGRAMS   *        TOTAL    HF-SCF       INT
 CPU TIMES  *       126.14     76.54     49.50
 REAL TIME  *       144.73 SEC
 DISK USED  *        12.92 GB
 **********************************************************************************************************************************


 Program * Restricted Hartree-Fock

 Molecular orbitals read from record     2100.2  Type=RHF/CANONICAL  

 Initial occupancy:  41

 NELEC=   82   SYM=1   MS2= 0   THRE=1.0D-08   THRD=3.2D-06   THRG=3.2D-06  HFMA2=F  DIIS_START=2   DIIS_MAX=10   DIIS_INCORE=F

 Level shifts:    0.00 (CLOSED)    0.00 (OPEN)    0.30 (GAP_MIN)

 ITER           ETOT              DE          GRAD        DDIFF     DIIS  NEXP   TIME(IT)  TIME(TOT)  DIAG
   1    -1451.70267601   -1451.70267601     0.00D+00     0.52D-01     0     0       8.03      8.04    start
   2    -1451.70267601      -0.00000000     0.32D-07     0.68D-07     1     0       8.05     16.09    diag

 Final occupancy:  41

 !RHF STATE 1.1 Energy              -1451.702676012583
  RHF One-electron energy           -2948.372011372245
  RHF Two-electron energy            1027.645051719260
  RHF Kinetic energy                 1451.798791656776
  RHF Nuclear energy                  469.024283640402
  RHF Virial quotient                  -0.999933795479

 !RHF STATE 1.1 Dipole moment           0.00714970    -0.02757535     0.00000000
 Dipole moment /Debye                   0.01817274    -0.07008954     0.00000000

 Orbital energies:

           1.1          2.1          3.1          4.1          5.1          6.1          7.1          8.1          9.1         10.1
    -68.775711   -68.774957   -68.774645   -68.773880   -68.772778    -6.125326    -6.124696    -6.124667    -6.123960    -6.123174

          11.1         12.1         13.1         14.1         15.1         16.1         17.1         18.1         19.1         20.1
     -4.231251    -4.231208    -4.231181    -4.230678    -4.230566    -4.230560    -4.230512    -4.230465    -4.230448    -4.229761

          21.1         22.1         23.1         24.1         25.1         26.1         27.1         28.1         29.1         30.1
     -4.229639    -4.229539    -4.228950    -4.228874    -4.228834    -0.781626    -0.751442    -0.711502    -0.672270    -0.635160

          31.1         32.1         33.1         34.1         35.1         36.1         37.1         38.1         39.1         40.1
     -0.515225    -0.498128    -0.491925    -0.489108    -0.485042    -0.475661    -0.462194    -0.443077    -0.423381    -0.390376

          41.1         42.1         43.1
     -0.368582     0.096022     0.104823


 HOMO     41.1    -0.368582 =     -10.0296eV
 LUMO     42.1     0.096022 =       2.6129eV
 LUMO-HOMO         0.464604 =      12.6425eV

 Orbitals saved in record  2101.2


 **********************************************************************************************************************************
 DATASETS  * FILE   NREC   LENGTH (MB)   RECORD NAMES
              1      19     2694.49       500      610      700      900      950      970     1000      129      960     1100   
                                          VAR    BASINP    GEOM    SYMINP    ZMAT    AOBASIS   BASIS     P2S    ABASIS      S 
                                         1400     1410     1200     1210     1080     1600     1650     1300     1700   
                                           T        V       H0       H01     AOSYM     SMH    MOLCAS    ERIS     OPER   

              2       5        5.60       700     1000      520     2100     2101   
                                         GEOM     BASIS   MCVARS     RHF      RHF  

 PROGRAMS   *        TOTAL    HF-SCF    HF-SCF       INT
 CPU TIMES  *       142.24     16.09     76.54     49.50
 REAL TIME  *       163.02 SEC
 DISK USED  *        12.92 GB
 **********************************************************************************************************************************


 PROGRAM * PAPT (Closed-shell)     Authors: C. Hampel, H.-J. Werner, 1991, P.J. Knowles, 2021


 Convergence thresholds:  THRVAR = 1.00D-08  THRDEN = 1.00D-06

 Number of core orbitals:          25 (  25 )
 Number of closed-shell orbitals:  16 (  16 )
 Number of external orbitals:     297 ( 297 )

 Molecular orbitals read from record     2101.2  Type=RHF/CANONICAL  

 Number of N-1 electron functions:              16
 Number of N-2 electron functions:             136
 Number of singly external CSFs:              4752
 Number of doubly external CSFs:          11293128
 Total number of CSFs:                    11297881

 Length of J-op  integral file:               0.00 MB
 Length of K-op  integral file:               7.91 MB

 Integral transformation finished. Total CPU:  20.64 sec, npass=  1  Memory used:  27.90 MW

 Reference energy:                  -1451.70267601

                        CORR.ENERGY   TOTAL ENERGY   ENERGY CHANGE
 MP2:                   -0.63616403 -1452.33884004    -0.63616403

 SCS-MP2 correlation energy:           -0.67933716   (PS=  1.200000  PT=  0.333333)
 SCS-MP2 total energy:              -1452.38201317
 Iteration:   1     0.2248D+00
 Iteration:   2     0.2698D+00
 Iteration:   3     0.8048D-01
 Iteration:   4     0.5991D-01
 Iteration:   5     0.7260D-01
 Iteration:   6     0.2925D-01
 Iteration:   7     0.9751D-01
 Iteration:   8     0.1262D-01
 Iteration:   9     0.9661D-02
 Iteration:  10     0.7752D-02
 Iteration:  11     0.1878D-02
 Iteration:  12     0.2570D-02
 Iteration:  13     0.1193D-02
 Iteration:  14     0.6382D-03
 Iteration:  15     0.1708D-02
 Iteration:  16     0.3643D-03
 Iteration:  17     0.1471D-02
 Iteration:  18     0.2984D-03
 Iteration:  19     0.4959D-03
 Iteration:  20     0.1495D-03
 Iteration:  21     0.1117D-03
 Iteration:  22     0.1946D-03
 Iteration:  23     0.3353D-04
 PAPT operator written to  7000.1
 PAPT orbitals and eigenvalues written to  7000.2

 MP3(D):                -0.73149717 -1452.43417319    -0.09533315



 RESULTS
 =======

  Reference energy                  -1451.702676012574
  MP3 singlet pair energy              -0.574380083967
  MP3 triplet pair energy              -0.157117090373
  MP3 correlation energy               -0.731497174340

 !MP3 total energy                  -1452.434173186914

 Timing summary (sec):

 STEP                 CPU(USER)    SYS     CPU(TOT)    WALL
 Transformation         21.71      1.40     23.11     58.75
 CCSD iterations       241.14      4.06    245.20    110.78

 Program statistics:

 Available memory in ccsd:               393214935
 Min. memory needed in ccsd:              27758494
 Max. memory used in ccsd:                37931766
 Max. memory used in cckext:              32146366 ( 1 integral passes)



 **********************************************************************************************************************************
 DATASETS  * FILE   NREC   LENGTH (MB)   RECORD NAMES
              1      21     2874.66       500      610      700      900      950      970     1000      129      960     1100   
                                          VAR    BASINP    GEOM    SYMINP    ZMAT    AOBASIS   BASIS     P2S    ABASIS      S 
                                         1400     1410     1200     1210     1080     1600     1650     1300     1700     1380   
                                           T        V       H0       H01     AOSYM     SMH    MOLCAS    ERIS     OPER     JKOP   
                                         7000   
                                        PAPT AO    

              2       6        8.33       700     1000      520     2100     2101     7000   
                                         GEOM     BASIS   MCVARS     RHF      RHF     PAPT   

 PROGRAMS   *        TOTAL      PAPT    HF-SCF    HF-SCF       INT
 CPU TIMES  *       262.75    120.51     16.09     76.54     49.50
 REAL TIME  *       332.81 SEC
 DISK USED  *        12.92 GB
 **********************************************************************************************************************************


 PROGRAM * MP3 (Closed-shell)     Authors: C. Hampel, H.-J. Werner, 1991, M. Deegan, P.J. Knowles, 1992


 Convergence thresholds:  THRVAR = 1.00D-08  THRDEN = 1.00D-06

 Number of core orbitals:          25 (  25 )
 Number of closed-shell orbitals:  16 (  16 )
 Number of external orbitals:     297 ( 297 )

 Molecular orbitals read from record     7000.2  Type=PAPT/CANONICAL (state 1.1)

 Number of N-1 electron functions:              16
 Number of N-2 electron functions:             136
 Number of singly external CSFs:              4752
 Number of doubly external CSFs:          11293128
 Total number of CSFs:                    11297881

 Length of J-op  integral file:               0.00 MB
 Length of K-op  integral file:               7.91 MB

 Integral transformation finished. Total CPU:  15.18 sec, npass=  1  Memory used:  27.90 MW
 Orbital energies read from record       7000.2  Type=PAPT/CANONICAL (state 1.1)

 Reference energy:                  -1451.70267601

                        CORR.ENERGY   TOTAL ENERGY   ENERGY CHANGE
 MP2:                   -0.75679030 -1452.45946632    -0.75679030

 SCS-MP2 correlation energy:           -0.80959218   (PS=  1.200000  PT=  0.333333)
 SCS-MP2 total energy:              -1452.51226819

 MP3(D):                -0.75752270 -1452.46019871    -0.00073240



 RESULTS
 =======

  Reference energy                  -1451.702676012581
  MP3 singlet pair energy              -0.600893369895
  MP3 triplet pair energy              -0.156629331385
  MP3 correlation energy               -0.757522701280

 !MP3 total energy                  -1452.460198713861

 Timing summary (sec):

 STEP                 CPU(USER)    SYS     CPU(TOT)    WALL
 Transformation         22.86      2.11     24.97     26.27
 CCSD iterations       318.33      3.01    321.34     60.60

 Program statistics:

 Available memory in ccsd:               393214935
 Min. memory needed in ccsd:              27758494
 Max. memory used in ccsd:                37931766
 Max. memory used in cckext:              32146366 ( 1 integral passes)



 **********************************************************************************************************************************
 DATASETS  * FILE   NREC   LENGTH (MB)   RECORD NAMES
              1      21     2874.66       500      610      700      900      950      970     1000      129      960     1100   
                                          VAR    BASINP    GEOM    SYMINP    ZMAT    AOBASIS   BASIS     P2S    ABASIS      S 
                                         1400     1410     1200     1210     1080     1600     1650     1300     1700     1380   
                                           T        V       H0       H01     AOSYM     SMH    MOLCAS    ERIS     OPER     JKOP   
                                         7000   
                                        PAPT AO    

              2       6        8.33       700     1000      520     2100     2101     7000   
                                         GEOM     BASIS   MCVARS     RHF      RHF     PAPT   

 PROGRAMS   *        TOTAL       MP3      PAPT    HF-SCF    HF-SCF       INT
 CPU TIMES  *       341.09     78.34    120.51     16.09     76.54     49.50
 REAL TIME  *       419.89 SEC
 DISK USED  *        12.92 GB
 **********************************************************************************************************************************

 Dump information in style XML to xml output                                                                      

 Orbitals will not be exported.

 **********************************************************************************************************************************

 MP3/cc-pVTZ energy=  -1452.460198713861

             MP3            PAPT          HF-SCF          HF-SCF
  -1452.46019871  -1452.43417319  -1451.70267601  -1451.70267601
 **********************************************************************************************************************************
 Molpro calculation terminated
