
 Working directory              : /var/folders/2v/xbgp75_9785319ghcgb4zr4r0000gp/T//molpro.yTKpZKaqnc/
 Global scratch directory       : /var/folders/2v/xbgp75_9785319ghcgb4zr4r0000gp/T//molpro.yTKpZKaqnc/
 Wavefunction directory         : /Users/sacpjk/wfu/
 Main file repository           : /var/folders/2v/xbgp75_9785319ghcgb4zr4r0000gp/T//molpro.yTKpZKaqnc/

 id        : peterk

 Nodes                        nprocs
 Cardiff-University-G34YLXT77Y    1
 GA implementation: MPI file
 GA implementation (serial work in mppx): MPI file

 Using customized tuning parameters: mindgm=1; mindgv=20; mindgc=4; mindgr=1; noblas=0; minvec=7
 default implementation of scratch files=df  


 Variables initialized (1032), CPU time= 0.00 sec
 
 symmetry,nosym
 
 
 geometry={
            3
     H          0.14656781     -0.24726460      0.00000000
     F          0.00000000      1.21154849      0.00000000
     H         -0.14656781     -0.96428389      0.00000000
 }
 basis=cc-pVDZ
 
 
 spin=1
 uhf
 
 
 
 {put,xml;noorbitals,nobasis}
 Commands initialized (841), CPU time= 0.01 sec, 704 directives.
 Default parameters read. Elapsed time= 0.28 sec

 Checking input...
 Passed
1


                                         ***  PROGRAM SYSTEM MOLPRO  ***
                                       Copyright, TTI GmbH Stuttgart, 2015
                                    Version 2023.1 linked Tue Jun  6 09:54:11 2023


 **********************************************************************************************************************************
 LABEL *                                                                                                                                                                 
  64 bit serial version                                                                  DATE: 09-Jun-23          TIME: 09:28:10  
 **********************************************************************************************************************************

 SHA1:             8ebb0dd001088a5c915591db1a321413035db0b1
 **********************************************************************************************************************************

 Memory per process:       805 MW
 Total memory per node:   1074 MW
 Total GA space:           268 MW

 GA preallocation disabled
 GA check enabled

 Variable memory set to 805.3 MW

 ZSYMEL=NOSYM


 Geometry recognized as XYZ

 SETTING BASIS          =    CC-PVDZ
 SETTING SPIN           =         1.00000000                                  


 Recomputing integrals since basis changed


 Using spherical harmonics

 Library entry H      S cc-pVDZ              selected for orbital group  1
 Library entry H      P cc-pVDZ              selected for orbital group  1
 Library entry F      S cc-pVDZ              selected for orbital group  2
 Library entry F      P cc-pVDZ              selected for orbital group  2
 Library entry F      D cc-pVDZ              selected for orbital group  2


 PROGRAM * SEWARD (Integral evaluation for generally contracted gaussian basis sets)     Author: Roland Lindh, 1990

 Geometry written to block  1 of record 700


 Point group  C1  



 ATOMIC COORDINATES

 NR  ATOM    CHARGE       X              Y              Z

   1  H       1.00    0.276973020   -0.467262374    0.000000000
   2  F       9.00    0.000000000    2.289494833    0.000000000
   3  H       1.00   -0.276973020   -1.822232458    0.000000000

 Bond lengths in Bohr (Angstrom)

 1-3  1.463830640
     ( 0.774625815)

 NUCLEAR CHARGE:                   11
 NUMBER OF PRIMITIVE AOS:          41
 NUMBER OF SYMMETRY AOS:           40
 NUMBER OF CONTRACTIONS:           24   (   24A   )
 NUMBER OF INNER CORE ORBITALS:     0   (    0A   )
 NUMBER OF OUTER CORE ORBITALS:     1   (    1A   )
 NUMBER OF VALENCE ORBITALS:        6   (    6A   )


 NUCLEAR REPULSION ENERGY    6.11540254

 EXTRA SYMMETRY OF AOS IN SYMMETRY 1:   1 1 1 1 2 1 1 1 1 1   2 1 1 2 1 1 2 1 2 1   1 1 1 2

 Eigenvalues of metric

         1 0.157E-01 0.361E-01 0.853E-01 0.104E+00 0.169E+00 0.199E+00 0.200E+00 0.493E+00


 Contracted 2-electron integrals neglected if value below      1.0D-11
 AO integral compression algorithm  1   Integral accuracy      1.0D-11

     0.262 MB (compressed) written to integral file ( 68.0%)


 NUMBER OF SORTED TWO-ELECTRON INTEGRALS:      45150.     BUFFER LENGTH:  32768
 NUMBER OF SEGMENTS:   1  SEGMENT LENGTH:      45150      RECORD LENGTH: 524288

 Memory used in sort:       0.60 MW

 SORT1 READ       62044. AND WROTE       22011. INTEGRALS IN      1 RECORDS. CPU TIME:     0.00 SEC, REAL TIME:     0.00 SEC
 SORT2 READ       22011. AND WROTE       45150. INTEGRALS IN      1 RECORDS. CPU TIME:     0.00 SEC, REAL TIME:     0.00 SEC

 FILE SIZES:   FILE 1:    30.3 MBYTE,  FILE 4:     4.3 MBYTE,   TOTAL:     34.5 MBYTE

 OPERATOR DM      FOR CENTER  0  COORDINATES:    0.000000    0.000000    0.000000


 **********************************************************************************************************************************
 DATASETS  * FILE   NREC   LENGTH (MB)   RECORD NAMES
              1      19       28.76       500      610      700      900      950      970     1000      129      960     1100   
                                          VAR    BASINP    GEOM    SYMINP    ZMAT    AOBASIS   BASIS     P2S    ABASIS      S 
                                         1400     1410     1200     1210     1080     1600     1650     1300     1700   
                                           T        V       H0       H01     AOSYM     SMH    MOLCAS    ERIS     OPER   

 PROGRAMS   *        TOTAL       INT
 CPU TIMES  *         0.17      0.09
 REAL TIME  *         0.83 SEC
 DISK USED  *        33.30 MB
 **********************************************************************************************************************************


 Program * Unrestricted Hartree-Fock

 Orbital guess generated from atomic densities. Full valence occupancy:    7

 Initial alpha occupancy:   6
 Initial beta  occupancy:   5

 Elapsed time for starting guess:      0.00 sec

 NELEC=   11   SYM=1   MS2=1   THRE=1.0D-08   THRD=3.2D-06   THRG=3.2D-06  HFMA2=F  DIIS_START=2   DIIS_MAX=10   DIIS_INCORE=F

 Initial level shifts:    0.20 (ALPHA)    0.20 (BETA)

 ITER         ETOT            DE          GRAD         DDIFF    DIIS  NEXP   TIME(IT)  TIME(TOT)  DIAG
   1   -100.35039163  -100.35039163     0.00D+00     0.00D+00     0     0       0.00      0.00    start
   2   -100.42353262    -0.07314099     0.26D-01     0.25D+00     1     0       0.00      0.00    diag
   3   -100.44868091    -0.02514829     0.16D-01     0.41D-01     2     0       0.00      0.00    diag
   4   -100.46981421    -0.02113330     0.88D-02     0.15D-01     3     0       0.00      0.00    diag
   5   -100.47979206    -0.00997785     0.53D-02     0.11D-01     4     0       0.00      0.00    diag
   6   -100.48203328    -0.00224122     0.27D-02     0.76D-02     5     0       0.00      0.00    diag
   7   -100.48270184    -0.00066856     0.14D-02     0.28D-02     6     0       0.00      0.00    diag
   8   -100.48283674    -0.00013490     0.60D-03     0.22D-02     7     0       0.00      0.00    diag
   9   -100.48287306    -0.00003632     0.29D-03     0.62D-03     8     0       0.00      0.00    diag
  10   -100.48288236    -0.00000930     0.18D-03     0.59D-03     9     0       0.00      0.00    diag/ort
  11   -100.48288769    -0.00000533     0.12D-03     0.20D-03     9     0       0.00      0.00    diag
  12   -100.48289532    -0.00000764     0.12D-03     0.13D-03     8     0       0.00      0.00    diag
  13   -100.48291333    -0.00001801     0.11D-03     0.20D-03     8     0       0.00      0.00    diag
  14   -100.48291635    -0.00000302     0.92D-04     0.53D-03     8     0       0.01      0.01    diag
  15   -100.48294333    -0.00002698     0.83D-04     0.92D-04     9     0       0.00      0.01    diag
  16   -100.48294717    -0.00000384     0.14D-03     0.14D-02     9     0       0.00      0.01    diag
  17   -100.48294786    -0.00000070     0.53D-04     0.41D-03     9     0       0.00      0.01    diag
  18   -100.48294796    -0.00000010     0.23D-04     0.19D-03     9     0       0.00      0.01    diag
  19   -100.48294798    -0.00000002     0.89D-05     0.63D-04     9     0       0.00      0.01    diag
  20   -100.48294798    -0.00000000     0.40D-05     0.32D-04     9     0       0.00      0.01    diag/ort
  21   -100.48294798    -0.00000000     0.11D-05     0.76D-05     9     0       0.00      0.01    diag
  22   -100.48294798    -0.00000000     0.34D-06     0.16D-05     9     0       0.00      0.01    diag

 Final alpha occupancy:   6
 Final beta  occupancy:   5

 !UHF STATE 1.1 Energy               -100.482947979964
  UHF One-electron energy            -152.513570570107
  UHF Two-electron energy              45.915220052300
  UHF Kinetic energy                  100.527214198801
  UHF Nuclear energy                    6.115402537843
  UHF Virial quotient                  -0.999559659350

 !UHF STATE 1.1 Dipole moment           0.01226339    -0.08830564    -0.00000000
 Dipole moment /Debye                   0.03117043    -0.22445054    -0.00000000

 EXPECTATION VALUE OF S**2:             0.76361675

 Orbital energies for positive spin:

           1.1          2.1          3.1          4.1          5.1          6.1          7.1          8.1
    -26.396681    -1.663632    -0.852589    -0.715979    -0.715598    -0.574173     0.246907     0.494823

 Orbital energies for negative spin:

           1.1          2.1          3.1          4.1          5.1          6.1          7.1
    -26.349879    -1.485557    -0.669489    -0.668061    -0.591491     0.049290     0.282307


 HOMO      6.1    -0.574173 =     -15.6240eV
 LUMO     -6.1     0.049290 =       1.3412eV
 LUMO-HOMO         0.623463 =      16.9653eV

 Orbitals saved in record  2200.2

 Occupation number threshold for pseudo-canonical orbitals: 1.9990 (occupied), 0.0010 (virtual)

 Number of pseudo-canonical occupied orbitals per symmetry:    4
 Number of active natural orbitals per symmetry:               3

 Natural orbitals saved to record    2200.2 (Orbital set 3)

 Orbital spaces for UNO-CAS (Min. occupation: 0.020  Max. occupation: 1.980):

 Closed:        5
 Active:        1


 **********************************************************************************************************************************
 DATASETS  * FILE   NREC   LENGTH (MB)   RECORD NAMES
              1      19       28.76       500      610      700      900      950      970     1000      129      960     1100   
                                          VAR    BASINP    GEOM    SYMINP    ZMAT    AOBASIS   BASIS     P2S    ABASIS      S 
                                         1400     1410     1200     1210     1080     1600     1650     1300     1700   
                                           T        V       H0       H01     AOSYM     SMH    MOLCAS    ERIS     OPER   

              2       4        0.44       700     1000      520     2200   
                                         GEOM     BASIS   MCVARS     UHF  

              4       3        0.16      2900     3000     3100   

 PROGRAMS   *        TOTAL   UHF-SCF       INT
 CPU TIMES  *         0.19      0.02      0.09
 REAL TIME  *         1.09 SEC
 DISK USED  *        33.30 MB
 **********************************************************************************************************************************

 Dump information in style XML to xml output                                                                      

 Orbitals will not be exported.

 **********************************************************************************************************************************

 UHF/cc-pVDZ energy=   -100.482947979964

         UHF-SCF
   -100.48294798
 **********************************************************************************************************************************
 Molpro calculation terminated
