
 Working directory              : /var/folders/2v/xbgp75_9785319ghcgb4zr4r0000gp/T//molpro.2aiJzj6dQF/
 Global scratch directory       : /var/folders/2v/xbgp75_9785319ghcgb4zr4r0000gp/T//molpro.2aiJzj6dQF/
 Wavefunction directory         : /Users/sacpjk/wfu/
 Main file repository           : /var/folders/2v/xbgp75_9785319ghcgb4zr4r0000gp/T//molpro.2aiJzj6dQF/

 id        : peterk

 Nodes                        nprocs
 Cardiff-University-G34YLXT77Y    1
 GA implementation: MPI file
 GA implementation (serial work in mppx): MPI file

 Using customized tuning parameters: mindgm=1; mindgv=20; mindgc=4; mindgr=1; noblas=0; minvec=7
 default implementation of scratch files=df  


 Variables initialized (1032), CPU time= 0.00 sec
 
 symmetry,nosym
 
 
 geometry={
            6
     C         -0.59511855      0.05553194      0.07183342
     H         -0.94614299     -0.87691224     -0.34996000
     H         -0.79484063      0.94824655     -0.50588526
     H         -0.66963729      0.15353610      1.14674270
     H          0.78547631     -0.07316127     -0.09468485
     CL         2.22026316     -0.20724108     -0.26804601
 }
 basis=cc-pVDZ
 
 
 spin=1
 uhf
 
 
 
 {put,xml;noorbitals,nobasis}
 Commands initialized (841), CPU time= 0.00 sec, 704 directives.
 Default parameters read. Elapsed time= 0.20 sec

 Checking input...
 Passed
1


                                         ***  PROGRAM SYSTEM MOLPRO  ***
                                       Copyright, TTI GmbH Stuttgart, 2015
                                    Version 2023.1 linked Tue Jun  6 09:54:11 2023


 **********************************************************************************************************************************
 LABEL *                                                                                                                                                                 
  64 bit serial version                                                                  DATE: 09-Jun-23          TIME: 09:26:43  
 **********************************************************************************************************************************

 SHA1:             8ebb0dd001088a5c915591db1a321413035db0b1
 **********************************************************************************************************************************

 Memory per process:       805 MW
 Total memory per node:   1074 MW
 Total GA space:           268 MW

 GA preallocation disabled
 GA check enabled

 Variable memory set to 805.3 MW

 ZSYMEL=NOSYM


 Geometry recognized as XYZ

 SETTING BASIS          =    CC-PVDZ
 SETTING SPIN           =         1.00000000                                  


 Recomputing integrals since basis changed


 Using spherical harmonics

 Library entry C      S cc-pVDZ              selected for orbital group  1
 Library entry C      P cc-pVDZ              selected for orbital group  1
 Library entry C      D cc-pVDZ              selected for orbital group  1
 Library entry H      S cc-pVDZ              selected for orbital group  2
 Library entry H      P cc-pVDZ              selected for orbital group  2
 Library entry CL     S cc-pVDZ              selected for orbital group  3
 Library entry CL     P cc-pVDZ              selected for orbital group  3
 Library entry CL     D cc-pVDZ              selected for orbital group  3


 PROGRAM * SEWARD (Integral evaluation for generally contracted gaussian basis sets)     Author: Roland Lindh, 1990

 Geometry written to block  1 of record 700


 Point group  C1  



 ATOMIC COORDINATES

 NR  ATOM    CHARGE       X              Y              Z

   1  C       6.00   -1.124611071    0.104940158    0.135745490
   2  H       1.00   -1.787951126   -1.657123969   -0.661328555
   3  H       1.00   -1.502031103    1.791926278   -0.955984592
   4  H       1.00   -1.265431081    0.290141179    2.167029638
   5  H       1.00    1.484335103   -0.138254763   -0.178928435
   6  CL     17.00    4.195689297   -0.391628883   -0.506533548

 Bond lengths in Bohr (Angstrom)

 1-2  2.044557910  1-3  2.044564165  1-4  2.044564742  1-5  2.639083854  5-6  2.742802421
     ( 1.081933452)     ( 1.081936762)     ( 1.081937068)     ( 1.396543033)     ( 1.451428535)

 Bond angles

  1-5-6  179.98227024   2-1-3  116.29833009   2-1-4  116.29798893   2-1-5  101.23500024

  3-1-4  116.29829629   3-1-5  101.23627519   4-1-5  101.23873942

 NUCLEAR CHARGE:                   27
 NUMBER OF PRIMITIVE AOS:          97
 NUMBER OF SYMMETRY AOS:           95
 NUMBER OF CONTRACTIONS:           52   (   52A   )
 NUMBER OF INNER CORE ORBITALS:     1   (    1A   )
 NUMBER OF OUTER CORE ORBITALS:     5   (    5A   )
 NUMBER OF VALENCE ORBITALS:       12   (   12A   )


 NUCLEAR REPULSION ENERGY   46.25147774

 Eigenvalues of metric

         1 0.671E-02 0.153E-01 0.362E-01 0.362E-01 0.405E-01 0.503E-01 0.531E-01 0.531E-01


 Contracted 2-electron integrals neglected if value below      1.0D-11
 AO integral compression algorithm  1   Integral accuracy      1.0D-11

     5.243 MB (compressed) written to integral file ( 52.1%)


 NUMBER OF SORTED TWO-ELECTRON INTEGRALS:     950131.     BUFFER LENGTH:  32768
 NUMBER OF SEGMENTS:   1  SEGMENT LENGTH:     950131      RECORD LENGTH: 524288

 Memory used in sort:       1.51 MW

 SORT1 READ     1219620. AND WROTE      929632. INTEGRALS IN      3 RECORDS. CPU TIME:     0.01 SEC, REAL TIME:     0.02 SEC
 SORT2 READ      929632. AND WROTE      950131. INTEGRALS IN     20 RECORDS. CPU TIME:     0.02 SEC, REAL TIME:     0.03 SEC

 FILE SIZES:   FILE 1:    35.4 MBYTE,  FILE 4:    12.6 MBYTE,   TOTAL:     48.1 MBYTE

 OPERATOR DM      FOR CENTER  0  COORDINATES:    0.000000    0.000000    0.000000


 **********************************************************************************************************************************
 DATASETS  * FILE   NREC   LENGTH (MB)   RECORD NAMES
              1      19       32.58       500      610      700      900      950      970     1000      129      960     1100   
                                          VAR    BASINP    GEOM    SYMINP    ZMAT    AOBASIS   BASIS     P2S    ABASIS      S 
                                         1400     1410     1200     1210     1080     1600     1650     1300     1700   
                                           T        V       H0       H01     AOSYM     SMH    MOLCAS    ERIS     OPER   

 PROGRAMS   *        TOTAL       INT
 CPU TIMES  *         0.26      0.18
 REAL TIME  *         0.94 SEC
 DISK USED  *        46.25 MB
 **********************************************************************************************************************************


 Program * Unrestricted Hartree-Fock

 Orbital guess generated from atomic densities. Full valence occupancy:   18

 Initial alpha occupancy:  14
 Initial beta  occupancy:  13

 Elapsed time for starting guess:      0.00 sec

 NELEC=   27   SYM=1   MS2=1   THRE=1.0D-08   THRD=3.2D-06   THRG=3.2D-06  HFMA2=F  DIIS_START=2   DIIS_MAX=10   DIIS_INCORE=F

 Initial level shifts:    0.20 (ALPHA)    0.20 (BETA)

 ITER         ETOT            DE          GRAD         DDIFF    DIIS  NEXP   TIME(IT)  TIME(TOT)  DIAG
   1   -499.60282746  -499.60282746     0.00D+00     0.00D+00     0     0       0.01      0.01    start
   2   -499.62980936    -0.02698191     0.63D-02     0.19D+00     1     0       0.00      0.01    diag
   3   -499.63424738    -0.00443801     0.24D-02     0.13D-01     2     0       0.01      0.02    diag
   4   -499.63541013    -0.00116276     0.10D-02     0.36D-02     3     0       0.00      0.02    diag
   5   -499.63559414    -0.00018401     0.35D-03     0.19D-02     4     0       0.01      0.03    diag
   6   -499.63563088    -0.00003673     0.20D-03     0.54D-03     5     0       0.01      0.04    diag
   7   -499.63563692    -0.00000604     0.70D-04     0.25D-03     6     0       0.00      0.04    diag
   8   -499.63563734    -0.00000043     0.24D-04     0.16D-03     7     0       0.01      0.05    diag
   9   -499.63563742    -0.00000008     0.75D-05     0.35D-04     7     0       0.00      0.05    diag
  10   -499.63563745    -0.00000002     0.32D-05     0.15D-04     7     0       0.01      0.06    diag/ort
  11   -499.63563745    -0.00000001     0.16D-05     0.85D-05     7     0       0.01      0.07    diag
  12   -499.63563746    -0.00000000     0.86D-06     0.41D-05     7     0       0.00      0.07    diag

 Final alpha occupancy:  14
 Final beta  occupancy:  13

 !UHF STATE 1.1 Energy               -499.635637455914
  UHF One-electron energy            -780.636842655317
  UHF Two-electron energy             234.749727461100
  UHF Kinetic energy                  499.605995875691
  UHF Nuclear energy                   46.251477738302
  UHF Virial quotient                  -1.000059329913

 !UHF STATE 1.1 Dipole moment          -1.22661323     0.11450628     0.14809642
 Dipole moment /Debye                  -3.11773986     0.29104594     0.37642355

 EXPECTATION VALUE OF S**2:             0.78303522

 Orbital energies for positive spin:

           1.1          2.1          3.1          4.1          5.1          6.1          7.1          8.1          9.1         10.1
   -104.814594   -11.289960   -10.539352    -8.015453    -8.002087    -8.002087    -1.093024    -0.999826    -0.636056    -0.617150

          11.1         12.1         13.1         14.1         15.1         16.1
     -0.617150    -0.447061    -0.447061    -0.414333     0.172988     0.240294

 Orbital energies for negative spin:

           1.1          2.1          3.1          4.1          5.1          6.1          7.1          8.1          9.1         10.1
   -104.808978   -11.270322   -10.533506    -7.998898    -7.998898    -7.992248    -1.044341    -0.926929    -0.604409    -0.604408

          11.1         12.1         13.1         14.1         15.1
     -0.546273    -0.436518    -0.436518     0.023812     0.184045


 HOMO     14.1    -0.414333 =     -11.2746eV
 LUMO    -14.1     0.023812 =       0.6480eV
 LUMO-HOMO         0.438145 =      11.9225eV

 Orbitals saved in record  2200.2

 Occupation number threshold for pseudo-canonical orbitals: 1.9990 (occupied), 0.0010 (virtual)

 Number of pseudo-canonical occupied orbitals per symmetry:   11
 Number of active natural orbitals per symmetry:               5

 Natural orbitals saved to record    2200.2 (Orbital set 3)

 Orbital spaces for UNO-CAS (Min. occupation: 0.020  Max. occupation: 1.980):

 Closed:       13
 Active:        1


 **********************************************************************************************************************************
 DATASETS  * FILE   NREC   LENGTH (MB)   RECORD NAMES
              1      19       32.58       500      610      700      900      950      970     1000      129      960     1100   
                                          VAR    BASINP    GEOM    SYMINP    ZMAT    AOBASIS   BASIS     P2S    ABASIS      S 
                                         1400     1410     1200     1210     1080     1600     1650     1300     1700   
                                           T        V       H0       H01     AOSYM     SMH    MOLCAS    ERIS     OPER   

              2       4        0.57       700     1000      520     2200   
                                         GEOM     BASIS   MCVARS     UHF  

              4       3        0.53      2900     3000     3100   

 PROGRAMS   *        TOTAL   UHF-SCF       INT
 CPU TIMES  *         0.33      0.07      0.18
 REAL TIME  *         1.21 SEC
 DISK USED  *        46.25 MB
 **********************************************************************************************************************************

 Dump information in style XML to xml output                                                                      

 Orbitals will not be exported.

 **********************************************************************************************************************************

 UHF/cc-pVDZ energy=   -499.635637455914

         UHF-SCF
   -499.63563746
 **********************************************************************************************************************************
 Molpro calculation terminated
