
 Working directory              : /tmp/peterk/molpro.y3enpWoKgM/
 Global scratch directory       : /tmp/peterk/molpro.y3enpWoKgM/
 Wavefunction directory         : /home/peterk/wfu/
 Main file repository           : /tmp/peterk/molpro.y3enpWoKgM/

 id        : peterk

 Nodes     nprocs
 marat        1
 GA implementation: MPI file
 GA implementation (serial work in mppx): MPI file

 Using customized tuning parameters: mindgm=1; mindgv=20; mindgc=4; mindgr=1; noblas=0; minvec=7
 default implementation of scratch files=df  


 Variables initialized (1032), CPU time= 0.00 sec
 
 core,small
 angstrom
 
 geometry={
 C;H,C,1.10678917;H,C,1.10678917,H,102.02249921
 }
 basis=cc-pCV5Z
 
 
 
 hf; mp3
 
 
 
 {put,xml;noorbitals,nobasis}
 Commands initialized (841), CPU time= 0.01 sec, 708 directives.
 Default parameters read. Elapsed time= 0.06 sec

 Checking input...
 Passed
1


                                         ***  PROGRAM SYSTEM MOLPRO  ***
                                       Copyright, TTI GmbH Stuttgart, 2015
                                    Version 2023.1 linked Sat Jun 10 08:01:27 2023


 **********************************************************************************************************************************
 LABEL *                                                                                                                                                                 
  (16 PROC) 64 bit serial version                                                        DATE: 12-Jun-23          TIME: 11:22:41  
 **********************************************************************************************************************************

 SHA1:             8376d659ba1296ca7ee514c57770fe2c96af278c
 **********************************************************************************************************************************

 Memory per process:      1074 MW
 Total memory per node:   1074 MW

 GA preallocation disabled
 GA check disabled

 Variable memory set to 1073.7 MW

 ZUNIT=ANG

 SETTING BASIS          =    CC-PCV5Z


 Recomputing integrals since basis changed


 Using spherical harmonics

 Library entry C      S cc-pCV5Z             selected for orbital group  1
 Library entry C      P cc-pCV5Z             selected for orbital group  1
 Library entry C      D cc-pCV5Z             selected for orbital group  1
 Library entry C      F cc-pCV5Z             selected for orbital group  1
 Library entry C      G cc-pCV5Z             selected for orbital group  1
 Library entry C      H cc-pCV5Z             selected for orbital group  1
 Library entry H      S cc-pV5Z              selected for orbital group  2
 Library entry H      P cc-pV5Z              selected for orbital group  2
 Library entry H      D cc-pV5Z              selected for orbital group  2
 Library entry H      F cc-pV5Z              selected for orbital group  2
 Library entry H      G cc-pV5Z              selected for orbital group  2


 PROGRAM * SEWARD (Integral evaluation for generally contracted gaussian basis sets)     Author: Roland Lindh, 1990

 Geometry written to block  1 of record 700

 Orientation using atomic masses  
 Molecule type: Asymmetric top,     Order of principal axis = 2
 Symmetry elements: X,Y
 Rotational constants:     217.0003324    603.7701822    338.7501129 GHz  (calculated with average atomic masses)

 Point group  C2v 



 ATOMIC COORDINATES

 NR  ATOM    CHARGE       X              Y              Z

   1  C       6.00    0.000000000    0.000000000   -0.189118426
   2  H       1.00    0.000000000    1.625681259    1.126803885
   3  H       1.00    0.000000000   -1.625681259    1.126803885

 Bond lengths in Bohr (Angstrom)

 1-2  2.091528409  1-3  2.091528409
     ( 1.106789170)     ( 1.106789170)

 Bond angles

  2-1-3  102.02249921

 NUCLEAR CHARGE:                    8
 NUMBER OF PRIMITIVE AOS:         358
 NUMBER OF SYMMETRY AOS:          278
 NUMBER OF CONTRACTIONS:          255   (   90A1  +   55B1  +   70B2  +   40A2  )
 NUMBER OF INNER CORE ORBITALS:     0   (    0A1  +    0B1  +    0B2  +    0A2  )
 NUMBER OF OUTER CORE ORBITALS:     1   (    1A1  +    0B1  +    0B2  +    0A2  )
 NUMBER OF VALENCE ORBITALS:        6   (    3A1  +    1B1  +    2B2  +    0A2  )


 NUCLEAR REPULSION ENERGY    6.04499440


 Eigenvalues of metric

         1 0.246E-05 0.481E-04 0.204E-03 0.433E-03 0.462E-03 0.895E-03 0.923E-03 0.169E-02
         2 0.439E-03 0.108E-02 0.988E-02 0.318E-01 0.340E-01 0.415E-01 0.465E-01 0.562E-01
         3 0.329E-04 0.194E-03 0.298E-03 0.496E-03 0.156E-02 0.398E-02 0.785E-02 0.103E-01
         4 0.154E-02 0.143E-01 0.407E-01 0.487E-01 0.524E-01 0.668E-01 0.921E-01 0.133E+00


 Contracted 2-electron integrals neglected if value below      1.0D-12
 AO integral compression algorithm  1   Integral accuracy      1.0D-12

     767.820 MB (compressed) written to integral file ( 56.4%)


 NUMBER OF SORTED TWO-ELECTRON INTEGRALS:  135481620.     BUFFER LENGTH:  32768
 NUMBER OF SEGMENTS:   9  SEGMENT LENGTH:   15999900      RECORD LENGTH: 524288

 Memory used in sort:      16.56 MW

 SORT1 READ   170118861. AND WROTE   123498487. INTEGRALS IN    357 RECORDS. CPU TIME:     2.38 SEC, REAL TIME:     3.41 SEC
 SORT2 READ   123498487. AND WROTE   135481620. INTEGRALS IN   2929 RECORDS. CPU TIME:     1.69 SEC, REAL TIME:     2.21 SEC

 FILE SIZES:   FILE 1:   799.3 MBYTE,  FILE 4:  1497.4 MBYTE,   TOTAL:   2296.7 MBYTE

 OPERATOR DM      FOR CENTER  0  COORDINATES:    0.000000    0.000000    0.000000


 **********************************************************************************************************************************
 DATASETS  * FILE   NREC   LENGTH (MB)   RECORD NAMES
              1      19      609.48       500      610      700      900      950      970     1000      129      960     1100   
                                          VAR    BASINP    GEOM    SYMINP    ZMAT    AOBASIS   BASIS     P2S    ABASIS      S 
                                         1400     1410     1200     1210     1080     1600     1650     1300     1700   
                                           T        V       H0       H01     AOSYM     SMH    MOLCAS    ERIS     OPER   

 PROGRAMS   *        TOTAL       INT
 CPU TIMES  *        15.52     15.41
 REAL TIME  *        18.63 SEC
 DISK USED  *         2.14 GB
 **********************************************************************************************************************************


 Program * Restricted Hartree-Fock

 Orbital guess generated from atomic densities. Full valence occupancy:    4   1   2   0

 Initial occupancy:   3   0   1   0

 NELEC=    8   SYM=1   MS2= 0   THRE=1.0D-08   THRD=3.2D-06   THRG=3.2D-06  HFMA2=F  DIIS_START=2   DIIS_MAX=10   DIIS_INCORE=F

 Level shifts:    0.00 (CLOSED)    0.00 (OPEN)    0.30 (GAP_MIN)

 ITER           ETOT              DE          GRAD        DDIFF     DIIS  NEXP   TIME(IT)  TIME(TOT)  DIAG
   1      -38.88446611     -38.88446611     0.00D+00     0.41D-01     0     0       0.39      0.75    start
   2      -38.89541500      -0.01094889     0.52D-02     0.31D-02     1     0       0.41      1.16    diag
   3      -38.89583861      -0.00042361     0.10D-02     0.75D-03     2     0       0.39      1.55    diag
   4      -38.89588692      -0.00004831     0.28D-03     0.23D-03     3     0       0.38      1.93    diag
   5      -38.89589116      -0.00000424     0.69D-04     0.11D-03     4     0       0.39      2.32    diag
   6      -38.89589148      -0.00000031     0.18D-04     0.41D-04     5     0       0.42      2.74    diag
   7      -38.89589148      -0.00000001     0.22D-05     0.61D-05     6     0       0.39      3.13    diag
   8      -38.89589148      -0.00000000     0.44D-06     0.74D-06     7     0       0.39      3.52    fixocc
   9      -38.89589148      -0.00000000     0.86D-07     0.17D-06     0     0       0.39      3.91    diag

 Final occupancy:   3   0   1   0

 !RHF STATE 1.1 Energy                -38.895891483721
  RHF One-electron energy             -63.585589155320
  RHF Two-electron energy              18.644703272799
  RHF Kinetic energy                   38.867156426922
  RHF Nuclear energy                    6.044994398800
  RHF Virial quotient                  -1.000739314615

 !RHF STATE 1.1 Dipole moment           0.00000000     0.00000000     0.75075465
 Dipole moment /Debye                   0.00000000     0.00000000     1.90822799

 Orbital energies:

           1.1          2.1          3.1          4.1          5.1
    -11.292084    -0.893482    -0.396594     0.097591     0.217594

           1.2          2.2
      0.034855     0.260111

           1.3          2.3          3.3
     -0.565931     0.143007     0.221608

           1.4          2.4
      0.484671     0.724872


 HOMO      3.1    -0.396594 =     -10.7919eV
 LUMO      1.2     0.034855 =       0.9484eV
 LUMO-HOMO         0.431449 =      11.7403eV

 Orbitals saved in record  2100.2


 **********************************************************************************************************************************
 DATASETS  * FILE   NREC   LENGTH (MB)   RECORD NAMES
              1      19      609.48       500      610      700      900      950      970     1000      129      960     1100   
                                          VAR    BASINP    GEOM    SYMINP    ZMAT    AOBASIS   BASIS     P2S    ABASIS      S 
                                         1400     1410     1200     1210     1080     1600     1650     1300     1700   
                                           T        V       H0       H01     AOSYM     SMH    MOLCAS    ERIS     OPER   

              2       4        0.70       700     1000      520     2100   
                                         GEOM     BASIS   MCVARS     RHF  

 PROGRAMS   *        TOTAL    HF-SCF       INT
 CPU TIMES  *        19.43      3.91     15.41
 REAL TIME  *        23.00 SEC
 DISK USED  *         2.14 GB
 **********************************************************************************************************************************


 PROGRAM * MP3 (Closed-shell)     Authors: C. Hampel, H.-J. Werner, 1991, M. Deegan, P.J. Knowles, 1992


 CORETYPE=SMALL

 Convergence thresholds:  THRVAR = 1.00D-08  THRDEN = 1.00D-06

 Number of closed-shell orbitals:   4 (   3   0   1   0 )
 Number of external orbitals:     251 (  87  55  69  40 )

 Molecular orbitals read from record     2100.2  Type=RHF/CANONICAL  

 Number of N-1 electron functions:               4
 Number of N-2 electron functions:              10
 Number of singly external CSFs:               330
 Number of doubly external CSFs:            134495
 Total number of CSFs:                      134826

 Length of J-op  integral file:               0.00 MB
 Length of K-op  integral file:               1.27 MB

 Integral transformation finished. Total CPU:   0.66 sec, npass=  1  Memory used:   0.38 MW

 Reference energy:                    -38.89589148

                        CORR.ENERGY   TOTAL ENERGY   ENERGY CHANGE
 MP2:                   -0.20468690   -39.10057838    -0.20468690

 SCS-MP2 correlation energy:           -0.22299120   (PS=  1.200000  PT=  0.333333)
 SCS-MP2 total energy:                -39.11888268

 MP3(D):                -0.22301907   -39.11891055    -0.01833217



 RESULTS
 =======

  Reference energy                    -38.895891483721

  Correlated core orbitals:             1.1
  Orbital energies:                   -11.2921

  MP3 core-core energy                 -0.041685737578
  MP3 core-valence energy              -0.012929432455
  MP3 valence correlation energy       -0.168403897431

  MP3 singlet pair energy              -0.182408592992
  MP3 triplet pair energy              -0.040610474472
  MP3 correlation energy               -0.223019067464

 !MP3 total energy                    -39.118910551185

 Timing summary (sec):

 STEP                 CPU(USER)    SYS     CPU(TOT)    WALL
 Transformation          0.66      0.08      0.74      0.75
 CCSD iterations        20.60      0.12     20.72      0.96

 Program statistics:

 Available memory in ccsd:              1073741757
 Min. memory needed in ccsd:                619798
 Max. memory used in ccsd:                  718156
 Max. memory used in cckext:               1161666 ( 1 integral passes)



 **********************************************************************************************************************************
 DATASETS  * FILE   NREC   LENGTH (MB)   RECORD NAMES
              1      20      611.77       500      610      700      900      950      970     1000      129      960     1100   
                                          VAR    BASINP    GEOM    SYMINP    ZMAT    AOBASIS   BASIS     P2S    ABASIS      S 
                                         1400     1410     1200     1210     1080     1600     1650     1300     1700     1380   
                                           T        V       H0       H01     AOSYM     SMH    MOLCAS    ERIS     OPER     JKOP   

              2       4        0.70       700     1000      520     2100   
                                         GEOM     BASIS   MCVARS     RHF  

 PROGRAMS   *        TOTAL       MP3    HF-SCF       INT
 CPU TIMES  *        20.96      1.53      3.91     15.41
 REAL TIME  *        24.74 SEC
 DISK USED  *         2.14 GB
 **********************************************************************************************************************************

 Dump information in style XML to xml output                                                                      

 Orbitals will not be exported.

 **********************************************************************************************************************************

 MP3/cc-pCV5Z energy=    -39.118910551185

             MP3          HF-SCF
    -39.11891055    -38.89589148
 **********************************************************************************************************************************
 Molpro calculation terminated
