
 Working directory              : /var/folders/2v/xbgp75_9785319ghcgb4zr4r0000gp/T//molpro.JaSY51TUc7/
 Global scratch directory       : /var/folders/2v/xbgp75_9785319ghcgb4zr4r0000gp/T//molpro.JaSY51TUc7/
 Wavefunction directory         : /Users/sacpjk/wfu/
 Main file repository           : /var/folders/2v/xbgp75_9785319ghcgb4zr4r0000gp/T//molpro.JaSY51TUc7/

 id        : peterk

 Nodes                        nprocs
 Cardiff-University-G34YLXT77Y    1
 GA implementation: MPI file
 GA implementation (serial work in mppx): MPI file

 Using customized tuning parameters: mindgm=1; mindgv=20; mindgc=4; mindgr=1; noblas=0; minvec=7
 default implementation of scratch files=df  


 Variables initialized (1032), CPU time= 0.00 sec
 
 symmetry,nosym
 
 
 geometry={
            3
     H          0.00000000      0.00000000     -0.25661586
     CL         0.00000000      0.00000000      1.28726458
     H          0.00000000      0.00000000     -1.03064872
 }
 basis=cc-pVDZ
 
 
 spin=1
 uhf
 
 
 
 {put,xml;noorbitals,nobasis}
 Commands initialized (841), CPU time= 0.00 sec, 704 directives.
 Default parameters read. Elapsed time= 0.26 sec

 Checking input...
 Passed
1


                                         ***  PROGRAM SYSTEM MOLPRO  ***
                                       Copyright, TTI GmbH Stuttgart, 2015
                                    Version 2023.1 linked Tue Jun  6 09:54:11 2023


 **********************************************************************************************************************************
 LABEL *                                                                                                                                                                 
  64 bit serial version                                                                  DATE: 09-Jun-23          TIME: 09:26:44  
 **********************************************************************************************************************************

 SHA1:             8ebb0dd001088a5c915591db1a321413035db0b1
 **********************************************************************************************************************************

 Memory per process:       805 MW
 Total memory per node:   1074 MW
 Total GA space:           268 MW

 GA preallocation disabled
 GA check enabled

 Variable memory set to 805.3 MW

 ZSYMEL=NOSYM


 Geometry recognized as XYZ

 SETTING BASIS          =    CC-PVDZ
 SETTING SPIN           =         1.00000000                                  


 Recomputing integrals since basis changed


 Using spherical harmonics

 Library entry H      S cc-pVDZ              selected for orbital group  1
 Library entry H      P cc-pVDZ              selected for orbital group  1
 Library entry CL     S cc-pVDZ              selected for orbital group  2
 Library entry CL     P cc-pVDZ              selected for orbital group  2
 Library entry CL     D cc-pVDZ              selected for orbital group  2


 PROGRAM * SEWARD (Integral evaluation for generally contracted gaussian basis sets)     Author: Roland Lindh, 1990

 Geometry written to block  1 of record 700


 Point group  C1  



 ATOMIC COORDINATES

 NR  ATOM    CHARGE       X              Y              Z

   1  H       1.00    0.000000000    0.000000000   -0.484933695
   2  CL     17.00    0.000000000    0.000000000    2.432577506
   3  H       1.00    0.000000000    0.000000000   -1.947643811

 Bond lengths in Bohr (Angstrom)

 1-2  2.917511201  1-3  1.462710117
     ( 1.543880440)     ( 0.774032860)

 Bond angles

  2-1-3  179.99999879

 NUCLEAR CHARGE:                   19
 NUMBER OF PRIMITIVE AOS:          56
 NUMBER OF SYMMETRY AOS:           55
 NUMBER OF CONTRACTIONS:           28   (   28A   )
 NUMBER OF INNER CORE ORBITALS:     1   (    1A   )
 NUMBER OF OUTER CORE ORBITALS:     4   (    4A   )
 NUMBER OF VALENCE ORBITALS:        6   (    6A   )


 NUCLEAR REPULSION ENERGY   10.39162912

 EXTRA SYMMETRY OF AOS IN SYMMETRY 1:   1 1 2 3 1 1 1 1 1 2   3 1 2 3 1 2 3 1 1 4   2 5 3 1 1 2 3 1

 Eigenvalues of metric

         1 0.106E-01 0.194E-01 0.613E-01 0.103E+00 0.115E+00 0.123E+00 0.123E+00 0.346E+00


 Contracted 2-electron integrals neglected if value below      1.0D-11
 AO integral compression algorithm  1   Integral accuracy      1.0D-11

     0.262 MB (compressed) written to integral file ( 40.4%)


 NUMBER OF SORTED TWO-ELECTRON INTEGRALS:      82621.     BUFFER LENGTH:  32768
 NUMBER OF SEGMENTS:   1  SEGMENT LENGTH:      82621      RECORD LENGTH: 524288

 Memory used in sort:       0.64 MW

 SORT1 READ      116832. AND WROTE       20617. INTEGRALS IN      1 RECORDS. CPU TIME:     0.00 SEC, REAL TIME:     0.00 SEC
 SORT2 READ       20617. AND WROTE       82621. INTEGRALS IN      1 RECORDS. CPU TIME:     0.01 SEC, REAL TIME:     0.01 SEC

 FILE SIZES:   FILE 1:    30.3 MBYTE,  FILE 4:     4.3 MBYTE,   TOTAL:     34.6 MBYTE

 OPERATOR DM      FOR CENTER  0  COORDINATES:    0.000000    0.000000    0.000000


 **********************************************************************************************************************************
 DATASETS  * FILE   NREC   LENGTH (MB)   RECORD NAMES
              1      19       28.78       500      610      700      900      950      970     1000      129      960     1100   
                                          VAR    BASINP    GEOM    SYMINP    ZMAT    AOBASIS   BASIS     P2S    ABASIS      S 
                                         1400     1410     1200     1210     1080     1600     1650     1300     1700   
                                           T        V       H0       H01     AOSYM     SMH    MOLCAS    ERIS     OPER   

 PROGRAMS   *        TOTAL       INT
 CPU TIMES  *         0.18      0.10
 REAL TIME  *         0.80 SEC
 DISK USED  *        33.31 MB
 **********************************************************************************************************************************


 Program * Unrestricted Hartree-Fock

 Orbital guess generated from atomic densities. Full valence occupancy:   11

 Initial alpha occupancy:  10
 Initial beta  occupancy:   9

 Elapsed time for starting guess:      0.00 sec

 NELEC=   19   SYM=1   MS2=1   THRE=1.0D-08   THRD=3.2D-06   THRG=3.2D-06  HFMA2=F  DIIS_START=2   DIIS_MAX=10   DIIS_INCORE=F

 Initial level shifts:    0.20 (ALPHA)    0.20 (BETA)

 ITER         ETOT            DE          GRAD         DDIFF    DIIS  NEXP   TIME(IT)  TIME(TOT)  DIAG
   1   -460.53456047  -460.53456047     0.00D+00     0.00D+00     0     0       0.00      0.00    start
   2   -460.55941186    -0.02485139     0.91D-02     0.29D+00     1     0       0.00      0.00    diag
   3   -460.56412523    -0.00471337     0.37D-02     0.20D-01     2     0       0.00      0.00    diag
   4   -460.56609037    -0.00196514     0.22D-02     0.66D-02     3     0       0.00      0.00    diag
   5   -460.56662051    -0.00053014     0.97D-03     0.33D-02     4     0       0.00      0.00    diag
   6   -460.56679933    -0.00017883     0.49D-03     0.16D-02     5     0       0.00      0.00    diag
   7   -460.56684661    -0.00004728     0.25D-03     0.11D-02     6     0       0.01      0.01    diag
   8   -460.56685596    -0.00000934     0.11D-03     0.66D-03     7     0       0.00      0.01    diag
   9   -460.56685753    -0.00000157     0.46D-04     0.28D-03     8     0       0.00      0.01    diag
  10   -460.56685769    -0.00000016     0.16D-04     0.13D-03     8     0       0.00      0.01    diag/ort
  11   -460.56685770    -0.00000001     0.48D-05     0.47D-04     8     0       0.00      0.01    diag
  12   -460.56685770    -0.00000000     0.14D-05     0.14D-04     7     0       0.00      0.01    diag
  13   -460.56685770    -0.00000000     0.36D-06     0.43D-05     7     0       0.00      0.01    diag

 Final alpha occupancy:  10
 Final beta  occupancy:   9

 !UHF STATE 1.1 Energy               -460.566857702214
  UHF One-electron energy            -656.863656096348
  UHF Two-electron energy             185.905169273119
  UHF Kinetic energy                  460.701100554356
  UHF Nuclear energy                   10.391629121015
  UHF Virial quotient                  -0.999708611827

 !UHF STATE 1.1 Dipole moment           0.00000000    -0.00000000    -0.40774680
 Dipole moment /Debye                   0.00000000    -0.00000000    -1.03638899

 EXPECTATION VALUE OF S**2:             0.77640884

 Orbital energies for positive spin:

           1.1          2.1          3.1          4.1          5.1          6.1          7.1          8.1          9.1         10.1
   -104.860948   -10.585841    -8.068580    -8.046543    -8.046543    -1.131446    -0.728414    -0.485842    -0.485842    -0.479079

          11.1         12.1
      0.244668     0.481328

 Orbital energies for negative spin:

           1.1          2.1          3.1          4.1          5.1          6.1          7.1          8.1          9.1         10.1
   -104.851463   -10.576143    -8.041330    -8.041330    -8.028228    -1.042380    -0.618478    -0.467430    -0.467430    -0.019223

          11.1
      0.273729


 HOMO     -9.1    -0.467430 =     -12.7194eV
 LUMO    -10.1    -0.019223 =      -0.5231eV
 LUMO-HOMO         0.448206 =      12.1963eV

 Orbitals saved in record  2200.2

 Occupation number threshold for pseudo-canonical orbitals: 1.9990 (occupied), 0.0010 (virtual)

 Number of pseudo-canonical occupied orbitals per symmetry:    7
 Number of active natural orbitals per symmetry:               5

 Natural orbitals saved to record    2200.2 (Orbital set 3)

 Orbital spaces for UNO-CAS (Min. occupation: 0.020  Max. occupation: 1.980):

 Closed:        9
 Active:        1


 **********************************************************************************************************************************
 DATASETS  * FILE   NREC   LENGTH (MB)   RECORD NAMES
              1      19       28.78       500      610      700      900      950      970     1000      129      960     1100   
                                          VAR    BASINP    GEOM    SYMINP    ZMAT    AOBASIS   BASIS     P2S    ABASIS      S 
                                         1400     1410     1200     1210     1080     1600     1650     1300     1700   
                                           T        V       H0       H01     AOSYM     SMH    MOLCAS    ERIS     OPER   

              2       4        0.45       700     1000      520     2200   
                                         GEOM     BASIS   MCVARS     UHF  

              4       3        0.20      2900     3000     3100   

 PROGRAMS   *        TOTAL   UHF-SCF       INT
 CPU TIMES  *         0.19      0.00      0.10
 REAL TIME  *         0.95 SEC
 DISK USED  *        33.31 MB
 **********************************************************************************************************************************

 Dump information in style XML to xml output                                                                      

 Orbitals will not be exported.

 **********************************************************************************************************************************

 UHF/cc-pVDZ energy=   -460.566857702214

         UHF-SCF
   -460.56685770
 **********************************************************************************************************************************
 Molpro calculation terminated
