
 Working directory              : /var/folders/2v/xbgp75_9785319ghcgb4zr4r0000gp/T//molpro.p4fr2KfL0n/
 Global scratch directory       : /var/folders/2v/xbgp75_9785319ghcgb4zr4r0000gp/T//molpro.p4fr2KfL0n/
 Wavefunction directory         : /Users/sacpjk/wfu/
 Main file repository           : /var/folders/2v/xbgp75_9785319ghcgb4zr4r0000gp/T//molpro.p4fr2KfL0n/

 id        : peterk

 Nodes                        nprocs
 Cardiff-University-G34YLXT77Y    1
 GA implementation: MPI file
 GA implementation (serial work in mppx): MPI file

 Using customized tuning parameters: mindgm=1; mindgv=20; mindgc=4; mindgr=1; noblas=0; minvec=7
 default implementation of scratch files=df  


 Variables initialized (1032), CPU time= 0.00 sec
 
 symmetry,nosym
 
 
 geometry={
            5
     C          0.00000000      0.00000000      0.06556637
     F          0.00000000      0.00000000     -1.31562859
     H          0.51491633     -0.89186125      0.41668741
     H          0.51491633      0.89186125      0.41668741
     H         -1.02983267      0.00000000      0.41668741
 }
 basis=cc-pVTZ
 
 
 
 hf; ccsd(t)
 
 
 
 {put,xml;noorbitals,nobasis}
 Commands initialized (841), CPU time= 0.01 sec, 704 directives.
 Default parameters read. Elapsed time= 1.02 sec

 Checking input...
 Passed
1


                                         ***  PROGRAM SYSTEM MOLPRO  ***
                                       Copyright, TTI GmbH Stuttgart, 2015
                                    Version 2023.1 linked Tue Jun  6 09:54:11 2023


 **********************************************************************************************************************************
 LABEL *                                                                                                                                                                 
  64 bit serial version                                                                  DATE: 09-Jun-23          TIME: 15:39:55  
 **********************************************************************************************************************************

 SHA1:             8ebb0dd001088a5c915591db1a321413035db0b1
 **********************************************************************************************************************************

 Memory per process:       805 MW
 Total memory per node:   1074 MW
 Total GA space:           268 MW

 GA preallocation disabled
 GA check enabled

 Variable memory set to 805.3 MW

 ZSYMEL=NOSYM


 Geometry recognized as XYZ

 SETTING BASIS          =    CC-PVTZ


 Recomputing integrals since basis changed


 Using spherical harmonics

 Library entry C      S cc-pVTZ              selected for orbital group  1
 Library entry C      P cc-pVTZ              selected for orbital group  1
 Library entry C      D cc-pVTZ              selected for orbital group  1
 Library entry C      F cc-pVTZ              selected for orbital group  1
 Library entry F      S cc-pVTZ              selected for orbital group  2
 Library entry F      P cc-pVTZ              selected for orbital group  2
 Library entry F      D cc-pVTZ              selected for orbital group  2
 Library entry F      F cc-pVTZ              selected for orbital group  2
 Library entry H      S cc-pVTZ              selected for orbital group  3
 Library entry H      P cc-pVTZ              selected for orbital group  3
 Library entry H      D cc-pVTZ              selected for orbital group  3


 PROGRAM * SEWARD (Integral evaluation for generally contracted gaussian basis sets)     Author: Roland Lindh, 1990

 Geometry written to block  1 of record 700


 Point group  C1  



 ATOMIC COORDINATES

 NR  ATOM    CHARGE       X              Y              Z

   1  C       6.00    0.000000000    0.000000000    0.123902482
   2  F       9.00    0.000000000    0.000000000   -2.486177717
   3  H       1.00    0.973050841   -1.685373504    0.787425084
   4  H       1.00    0.973050841    1.685373504    0.787425084
   5  H       1.00   -1.946101700    0.000000000    0.787425084

 Bond lengths in Bohr (Angstrom)

 1-2  2.610080199  1-3  2.056106522  1-4  2.056106522  1-5  2.056106532
     ( 1.381194960)     ( 1.088044715)     ( 1.088044715)     ( 1.088044720)

 Bond angles

  2-1-3  108.82678959   2-1-4  108.82678959   2-1-5  108.82678949   3-1-4  110.10789247

  3-1-5  110.10789219   4-1-5  110.10789219

 NUCLEAR CHARGE:                   18
 NUMBER OF PRIMITIVE AOS:         145
 NUMBER OF SYMMETRY AOS:          132
 NUMBER OF CONTRACTIONS:          102   (  102A   )
 NUMBER OF INNER CORE ORBITALS:     0   (    0A   )
 NUMBER OF OUTER CORE ORBITALS:     2   (    2A   )
 NUMBER OF VALENCE ORBITALS:       11   (   11A   )


 NUCLEAR REPULSION ENERGY   37.42306171


 Eigenvalues of metric

         1 0.135E-02 0.193E-02 0.193E-02 0.396E-02 0.518E-02 0.107E-01 0.107E-01 0.121E-01


 Contracted 2-electron integrals neglected if value below      1.0D-11
 AO integral compression algorithm  1   Integral accuracy      1.0D-11

     56.361 MB (compressed) written to integral file ( 43.0%)


 NUMBER OF SORTED TWO-ELECTRON INTEGRALS:   13799631.     BUFFER LENGTH:  32768
 NUMBER OF SEGMENTS:   1  SEGMENT LENGTH:   13799631      RECORD LENGTH: 524288

 Memory used in sort:      14.36 MW

 SORT1 READ    16309490. AND WROTE    11131089. INTEGRALS IN     32 RECORDS. CPU TIME:     0.07 SEC, REAL TIME:     0.10 SEC
 SORT2 READ    11131089. AND WROTE    13799631. INTEGRALS IN    215 RECORDS. CPU TIME:     0.12 SEC, REAL TIME:     0.13 SEC

 FILE SIZES:   FILE 1:    86.8 MBYTE,  FILE 4:   134.3 MBYTE,   TOTAL:    221.1 MBYTE

 OPERATOR DM      FOR CENTER  0  COORDINATES:    0.000000    0.000000    0.000000


 **********************************************************************************************************************************
 DATASETS  * FILE   NREC   LENGTH (MB)   RECORD NAMES
              1      19       75.79       500      610      700      900      950      970     1000      129      960     1100   
                                          VAR    BASINP    GEOM    SYMINP    ZMAT    AOBASIS   BASIS     P2S    ABASIS      S 
                                         1400     1410     1200     1210     1080     1600     1650     1300     1700   
                                           T        V       H0       H01     AOSYM     SMH    MOLCAS    ERIS     OPER   

 PROGRAMS   *        TOTAL       INT
 CPU TIMES  *         0.67      0.58
 REAL TIME  *         3.25 SEC
 DISK USED  *       211.25 MB
 **********************************************************************************************************************************


 Program * Restricted Hartree-Fock

 Orbital guess generated from atomic densities. Full valence occupancy:   13

 Initial occupancy:   9

 NELEC=   18   SYM=1   MS2= 0   THRE=1.0D-08   THRD=3.2D-06   THRG=3.2D-06  HFMA2=F  DIIS_START=2   DIIS_MAX=10   DIIS_INCORE=F

 Level shifts:    0.00 (CLOSED)    0.00 (OPEN)    0.30 (GAP_MIN)

 ITER           ETOT              DE          GRAD        DDIFF     DIIS  NEXP   TIME(IT)  TIME(TOT)  DIAG
   1     -139.06908709    -139.06908709     0.00D+00     0.81D-01     0     0       0.06      0.11    start
   2     -139.08933574      -0.02024866     0.59D-02     0.67D-02     1     0       0.05      0.16    diag
   3     -139.09416605      -0.00483031     0.32D-02     0.24D-02     2     0       0.06      0.22    diag
   4     -139.09450724      -0.00034119     0.60D-03     0.63D-03     3     0       0.05      0.27    diag
   5     -139.09452713      -0.00001988     0.12D-03     0.18D-03     4     0       0.06      0.33    diag
   6     -139.09452808      -0.00000095     0.27D-04     0.44D-04     5     0       0.05      0.38    diag
   7     -139.09452813      -0.00000005     0.63D-05     0.11D-04     6     0       0.06      0.44    diag
   8     -139.09452814      -0.00000000     0.15D-05     0.26D-05     7     0       0.06      0.50    fixocc
   9     -139.09452814      -0.00000000     0.34D-06     0.45D-06     0     0       0.05      0.55    diag

 Final occupancy:   9

 !RHF STATE 1.1 Energy               -139.094528135392
  RHF One-electron energy            -266.582350568356
  RHF Two-electron energy              90.064760719925
  RHF Kinetic energy                  138.985724097821
  RHF Nuclear energy                   37.423061713039
  RHF Virial quotient                  -1.000782843262

 !RHF STATE 1.1 Dipole moment           0.00000000    -0.00000000     0.80030828
 Dipole moment /Debye                   0.00000001    -0.00000000     2.03418075

 Orbital energies:

           1.1          2.1          3.1          4.1          5.1          6.1          7.1          8.1          9.1         10.1
    -26.271483   -11.303393    -1.583400    -0.953494    -0.693113    -0.693113    -0.671403    -0.528504    -0.528504     0.143738

          11.1
      0.214480


 HOMO      9.1    -0.528504 =     -14.3813eV
 LUMO     10.1     0.143738 =       3.9113eV
 LUMO-HOMO         0.672241 =      18.2926eV

 Orbitals saved in record  2100.2


 **********************************************************************************************************************************
 DATASETS  * FILE   NREC   LENGTH (MB)   RECORD NAMES
              1      19       75.79       500      610      700      900      950      970     1000      129      960     1100   
                                          VAR    BASINP    GEOM    SYMINP    ZMAT    AOBASIS   BASIS     P2S    ABASIS      S 
                                         1400     1410     1200     1210     1080     1600     1650     1300     1700   
                                           T        V       H0       H01     AOSYM     SMH    MOLCAS    ERIS     OPER   

              2       4        0.62       700     1000      520     2100   
                                         GEOM     BASIS   MCVARS     RHF  

 PROGRAMS   *        TOTAL    HF-SCF       INT
 CPU TIMES  *         1.22      0.55      0.58
 REAL TIME  *         4.44 SEC
 DISK USED  *       211.25 MB
 **********************************************************************************************************************************


 PROGRAM * CCSD (Closed-shell coupled cluster)     Authors: C. Hampel, H.-J. Werner, 1991, M. Deegan, P.J. Knowles, 1992


 Convergence thresholds:  THRVAR = 1.00D-08  THRDEN = 1.00D-06

 CCSD(T)     terms to be evaluated (factor= 1.000)


 Number of core orbitals:           2 (   2 )
 Number of closed-shell orbitals:   7 (   7 )
 Number of external orbitals:      93 (  93 )

 Molecular orbitals read from record     2100.2  Type=RHF/CANONICAL  

 Number of N-1 electron functions:               7
 Number of N-2 electron functions:              28
 Number of singly external CSFs:               651
 Number of doubly external CSFs:            212226
 Total number of CSFs:                      212878

 Length of J-op  integral file:               0.00 MB
 Length of K-op  integral file:               0.78 MB
 Length of 3-ext integral record:             0.00 MB

 Memory could be reduced to 8.34 Mwords without degradation in triples

 Integral transformation finished. Total CPU:   0.18 sec, npass=  1  Memory used:   5.00 MW

 Reference energy:                   -139.09452814

 MP2 singlet pair energy:              -0.28152284
 MP2 triplet pair energy:              -0.15250869
 MP2 correlation energy:               -0.43403153
 MP2 total energy:                   -139.52855966

 SCS-MP2 correlation energy:           -0.43272170   (PS=  1.200000  PT=  0.333333)
 SCS-MP2 total energy:               -139.52724984

 ITER.      SQ.NORM     CORR.ENERGY   TOTAL ENERGY   ENERGY CHANGE        DEN1      VAR(S)    VAR(P)  DIIS     TIME  TIME/IT
   1      1.10386054    -0.44951689  -139.54404502    -0.01548536    -0.00503082  0.16D-02  0.16D-02  1  1     1.70     0.30
   2      1.11094437    -0.45014076  -139.54466889    -0.00062387    -0.00917012  0.16D-04  0.22D-03  2  2     1.90     0.28
   3      1.11326108    -0.45025122  -139.54477936    -0.00011046    -0.00154270  0.15D-04  0.10D-04  3  3     2.10     0.27
   4      1.11388813    -0.45020269  -139.54473082     0.00004853    -0.00036898  0.33D-06  0.10D-05  4  4     2.31     0.28
   5      1.11402547    -0.45020510  -139.54473324    -0.00000241    -0.00005277  0.79D-07  0.62D-07  5  5     2.52     0.29
   6      1.11404884    -0.45020332  -139.54473145     0.00000179    -0.00000481  0.78D-08  0.48D-08  6  6     2.73     0.28
   7      1.11405310    -0.45020252  -139.54473066     0.00000080    -0.00000101  0.84D-09  0.58D-09  6  2     2.94     0.28
   8      1.11405369    -0.45020253  -139.54473066    -0.00000001     0.00000011  0.12D-09  0.41D-10  6  1     3.15     0.28

 Norm of t1 vector:      0.04832183      S-energy:    -0.00000007      T1 diagnostic:  0.00913197
                                                                       D1 diagnostic:  0.02138649
                                                                       D2 diagnostic:  0.13414100 (internal)


 Total CPU time for triples:      1.66 sec


 RESULTS
 =======

  Reference energy                   -139.094528135392
  CCSD singlet pair energy             -0.311072159993
  CCSD triplet pair energy             -0.139130294491
  CCSD correlation energy              -0.450202528780

  Triples (T) contribution             -0.013177300768
  Total correlation energy             -0.463379829548

  CCSD total energy                  -139.544730664172
  CCSD[T] energy                     -139.558541233688
  CCSD-T energy                      -139.557581379306
 !CCSD(T) total energy               -139.557907964940

 Timing summary (sec):

 STEP                 CPU(USER)    SYS     CPU(TOT)    WALL
 Transformation          0.18      0.02      0.20      0.36
 CCSD iterations         2.98      0.17      3.15      2.55
 Triples                 1.66      0.12      1.78      1.96

 Program statistics:

 Available memory in ccsd:               805306163
 Min. memory needed in ccsd:                697237
 Max. memory used in ccsd:                  867232
 Max. memory used in cckext:                673421 ( 8 integral passes)



 **********************************************************************************************************************************
 DATASETS  * FILE   NREC   LENGTH (MB)   RECORD NAMES
              1      20      101.00       500      610      700      900      950      970     1000      129      960     1100   
                                          VAR    BASINP    GEOM    SYMINP    ZMAT    AOBASIS   BASIS     P2S    ABASIS      S 
                                         1400     1410     1200     1210     1080     1600     1650     1300     1700     1380   
                                           T        V       H0       H01     AOSYM     SMH    MOLCAS    ERIS     OPER     JKOP   

              2       4        0.62       700     1000      520     2100   
                                         GEOM     BASIS   MCVARS     RHF  

 PROGRAMS   *        TOTAL   CCSD(T)    HF-SCF       INT
 CPU TIMES  *         4.75      3.52      0.55      0.58
 REAL TIME  *         9.46 SEC
 DISK USED  *       211.25 MB
 **********************************************************************************************************************************

 Dump information in style XML to xml output                                                                      

 Orbitals will not be exported.

 **********************************************************************************************************************************

 CCSD(T)/cc-pVTZ energy=   -139.557907964940

         CCSD(T)          HF-SCF
   -139.55790796   -139.09452814
 **********************************************************************************************************************************
 Molpro calculation terminated
