
 Working directory              : /var/folders/2v/xbgp75_9785319ghcgb4zr4r0000gp/T//molpro.dnv2sSfkY2/
 Global scratch directory       : /var/folders/2v/xbgp75_9785319ghcgb4zr4r0000gp/T//molpro.dnv2sSfkY2/
 Wavefunction directory         : /Users/sacpjk/wfu/
 Main file repository           : /var/folders/2v/xbgp75_9785319ghcgb4zr4r0000gp/T//molpro.dnv2sSfkY2/

 id        : peterk

 Nodes                        nprocs
 Cardiff-University-G34YLXT77Y    1
 GA implementation: MPI file
 GA implementation (serial work in mppx): MPI file

 Using customized tuning parameters: mindgm=1; mindgv=20; mindgc=4; mindgr=1; noblas=0; minvec=7
 default implementation of scratch files=df  


 Variables initialized (1032), CPU time= 0.01 sec
 
 core,small
 angstrom
 
 geometry={
 H;C,H,1.06553056;N,C,1.15383982,H,180
 }
 basis=cc-pCVDZ
 
 
 
 hf; hf; papt; mp4
 
 
 
 {put,xml;noorbitals,nobasis}
 Commands initialized (841), CPU time= 0.00 sec, 704 directives.
 Default parameters read. Elapsed time= 1.01 sec

 Checking input...
 Passed
1


                                         ***  PROGRAM SYSTEM MOLPRO  ***
                                       Copyright, TTI GmbH Stuttgart, 2015
                                    Version 2023.1 linked Tue Jun  6 09:54:11 2023


 **********************************************************************************************************************************
 LABEL *                                                                                                                                                                 
  64 bit serial version                                                                  DATE: 12-Jun-23          TIME: 09:40:18  
 **********************************************************************************************************************************

 SHA1:             8ebb0dd001088a5c915591db1a321413035db0b1
 **********************************************************************************************************************************

 Memory per process:       393 MW
 Total memory per node:    524 MW
 Total GA space:           131 MW

 GA preallocation disabled
 GA check enabled

 Variable memory set to 393.2 MW

 ZUNIT=ANG

 SETTING BASIS          =    CC-PCVDZ


 Recomputing integrals since basis changed


 Using spherical harmonics

 Library entry H      S cc-pVDZ              selected for orbital group  1
 Library entry H      P cc-pVDZ              selected for orbital group  1
 Library entry C      S cc-pCVDZ             selected for orbital group  2
 Library entry C      P cc-pCVDZ             selected for orbital group  2
 Library entry C      D cc-pCVDZ             selected for orbital group  2
 Library entry N      S cc-pCVDZ             selected for orbital group  3
 Library entry N      P cc-pCVDZ             selected for orbital group  3
 Library entry N      D cc-pCVDZ             selected for orbital group  3


 PROGRAM * SEWARD (Integral evaluation for generally contracted gaussian basis sets)     Author: Roland Lindh, 1990

 Geometry written to block  1 of record 700

 Orientation using atomic masses  
 Molecule type: Linear
 Symmetry elements: X,Y
 Rotational constants:      44.4511927     44.4511927      0.0000000 GHz  (calculated with average atomic masses)

 Point group  C2v 



 ATOMIC COORDINATES

 NR  ATOM    CHARGE       X              Y              Z

   1  H       1.00    0.000000000    0.000000000   -3.068530878
   2  C       6.00    0.000000000    0.000000000   -1.054969942
   3  N       7.00    0.000000000    0.000000000    1.125471309

 Bond lengths in Bohr (Angstrom)

 1-2  2.013560936  2-3  2.180441251
     ( 1.065530560)     ( 1.153839820)

 Bond angles

  1-2-3  179.99999879

 NUCLEAR CHARGE:                   14
 NUMBER OF PRIMITIVE AOS:          69
 NUMBER OF SYMMETRY AOS:           67
 NUMBER OF CONTRACTIONS:           41   (   21A1  +    9B1  +    9B2  +    2A2  )
 NUMBER OF INNER CORE ORBITALS:     0   (    0A1  +    0B1  +    0B2  +    0A2  )
 NUMBER OF OUTER CORE ORBITALS:     2   (    2A1  +    0B1  +    0B2  +    0A2  )
 NUMBER OF VALENCE ORBITALS:        9   (    5A1  +    2B1  +    2B2  +    0A2  )


 NUCLEAR REPULSION ENERGY   23.91100196

 EXTRA SYMMETRY OF AOS IN SYMMETRY 1:   1 1 1 1 1 1 1 1 1 1   1 2 1 1 1 1 1 1 1 1   2

 Eigenvalues of metric

         1 0.561E-02 0.170E-01 0.221E-01 0.432E-01 0.563E-01 0.729E-01 0.925E-01 0.117E+00
         2 0.118E+00 0.174E+00 0.235E+00 0.580E+00 0.989E+00 0.101E+01 0.121E+01 0.175E+01
         3 0.118E+00 0.174E+00 0.235E+00 0.580E+00 0.989E+00 0.101E+01 0.121E+01 0.175E+01
         4 0.804E+00 0.120E+01


 Contracted 2-electron integrals neglected if value below      1.0D-11
 AO integral compression algorithm  1   Integral accuracy      1.0D-11

     0.786 MB (compressed) written to integral file ( 69.2%)


 NUMBER OF SORTED TWO-ELECTRON INTEGRALS:     110412.     BUFFER LENGTH:  32768
 NUMBER OF SEGMENTS:   1  SEGMENT LENGTH:     110412      RECORD LENGTH: 524288

 Memory used in sort:       0.67 MW

 SORT1 READ      147013. AND WROTE       95558. INTEGRALS IN      1 RECORDS. CPU TIME:     0.00 SEC, REAL TIME:     0.00 SEC
 SORT2 READ       95558. AND WROTE      110412. INTEGRALS IN      3 RECORDS. CPU TIME:     0.00 SEC, REAL TIME:     0.01 SEC

 FILE SIZES:   FILE 1:    30.8 MBYTE,  FILE 4:     4.3 MBYTE,   TOTAL:     35.1 MBYTE

 OPERATOR DM      FOR CENTER  0  COORDINATES:    0.000000    0.000000    0.000000


 **********************************************************************************************************************************
 DATASETS  * FILE   NREC   LENGTH (MB)   RECORD NAMES
              1      19       29.10       500      610      700      900      950      970     1000      129      960     1100   
                                          VAR    BASINP    GEOM    SYMINP    ZMAT    AOBASIS   BASIS     P2S    ABASIS      S 
                                         1400     1410     1200     1210     1080     1600     1650     1300     1700   
                                           T        V       H0       H01     AOSYM     SMH    MOLCAS    ERIS     OPER   

 PROGRAMS   *        TOTAL       INT
 CPU TIMES  *         0.19      0.10
 REAL TIME  *         1.76 SEC
 DISK USED  *        33.79 MB
 **********************************************************************************************************************************


 Program * Restricted Hartree-Fock

 Orbital guess generated from atomic densities. Full valence occupancy:    7   2   2   0

 Initial occupancy:   5   1   1   0

 NELEC=   14   SYM=1   MS2= 0   THRE=1.0D-08   THRD=3.2D-06   THRG=3.2D-06  HFMA2=F  DIIS_START=2   DIIS_MAX=10   DIIS_INCORE=F

 Level shifts:    0.00 (CLOSED)    0.00 (OPEN)    0.30 (GAP_MIN)

 ITER           ETOT              DE          GRAD        DDIFF     DIIS  NEXP   TIME(IT)  TIME(TOT)  DIAG
   1      -92.86007520     -92.86007520     0.00D+00     0.26D+00     0     0       0.00      0.00    start
   2      -92.86915723      -0.00908204     0.15D-01     0.34D-01     1     0       0.00      0.00    diag
   3      -92.88398265      -0.01482541     0.14D-01     0.17D-01     2     0       0.00      0.00    diag
   4      -92.88419461      -0.00021197     0.11D-02     0.27D-02     3     0       0.00      0.00    diag
   5      -92.88420664      -0.00001203     0.25D-03     0.62D-03     4     0       0.00      0.00    diag
   6      -92.88420746      -0.00000082     0.69D-04     0.17D-03     5     0       0.00      0.00    diag
   7      -92.88420753      -0.00000007     0.24D-04     0.49D-04     6     0       0.00      0.00    diag
   8      -92.88420753      -0.00000000     0.44D-05     0.10D-04     7     0       0.00      0.00    fixocc
   9      -92.88420753      -0.00000000     0.46D-06     0.13D-05     8     0       0.00      0.00    diag
  10      -92.88420753      -0.00000000     0.35D-07     0.86D-07     0     0       0.00      0.00    diag/orth

 Final occupancy:   5   1   1   0

 !RHF STATE 1.1 Energy                -92.884207531696
  RHF One-electron energy            -172.571736360727
  RHF Two-electron energy              55.776526869341
  RHF Kinetic energy                   92.644154165437
  RHF Nuclear energy                   23.911001959690
  RHF Virial quotient                  -1.002591133444

 !RHF STATE 1.1 Dipole moment           0.00000000     0.00000000    -1.23771116
 Dipole moment /Debye                   0.00000000     0.00000000    -3.14594797

 Orbital energies:

           1.1          2.1          3.1          4.1          5.1          6.1          7.1
    -15.603713   -11.298808    -1.235924    -0.808368    -0.578063     0.180535     0.340745

           1.2          2.2          3.2
     -0.492232     0.188558     0.669675

           1.3          2.3          3.3
     -0.492232     0.188558     0.669675

           1.4          2.4
      1.330367     2.186949


 HOMO      1.3    -0.492232 =     -13.3943eV
 LUMO      6.1     0.180535 =       4.9126eV
 LUMO-HOMO         0.672768 =      18.3069eV

 Orbitals saved in record  2100.2


 **********************************************************************************************************************************
 DATASETS  * FILE   NREC   LENGTH (MB)   RECORD NAMES
              1      19       29.10       500      610      700      900      950      970     1000      129      960     1100   
                                          VAR    BASINP    GEOM    SYMINP    ZMAT    AOBASIS   BASIS     P2S    ABASIS      S 
                                         1400     1410     1200     1210     1080     1600     1650     1300     1700   
                                           T        V       H0       H01     AOSYM     SMH    MOLCAS    ERIS     OPER   

              2       4        0.40       700     1000      520     2100   
                                         GEOM     BASIS   MCVARS     RHF  

 PROGRAMS   *        TOTAL    HF-SCF       INT
 CPU TIMES  *         0.19      0.00      0.10
 REAL TIME  *         1.96 SEC
 DISK USED  *        33.79 MB
 **********************************************************************************************************************************


 Program * Restricted Hartree-Fock

 Molecular orbitals read from record     2100.2  Type=RHF/CANONICAL  

 Initial occupancy:   5   1   1   0

 NELEC=   14   SYM=1   MS2= 0   THRE=1.0D-08   THRD=3.2D-06   THRG=3.2D-06  HFMA2=F  DIIS_START=2   DIIS_MAX=10   DIIS_INCORE=F

 Level shifts:    0.00 (CLOSED)    0.00 (OPEN)    0.30 (GAP_MIN)

 ITER           ETOT              DE          GRAD        DDIFF     DIIS  NEXP   TIME(IT)  TIME(TOT)  DIAG
   1      -92.88420753     -92.88420753     0.00D+00     0.27D+00     0     0       0.00      0.00    start
   2      -92.88420753      -0.00000000     0.11D-07     0.28D-07     1     0       0.00      0.00    diag

 Final occupancy:   5   1   1   0

 !RHF STATE 1.1 Energy                -92.884207531697
  RHF One-electron energy            -172.571736266972
  RHF Two-electron energy              55.776526775586
  RHF Kinetic energy                   92.644154064144
  RHF Nuclear energy                   23.911001959690
  RHF Virial quotient                  -1.002591134540

 !RHF STATE 1.1 Dipole moment           0.00000000     0.00000000    -1.23771082
 Dipole moment /Debye                   0.00000000     0.00000000    -3.14594712

 Orbital energies:

           1.1          2.1          3.1          4.1          5.1          6.1          7.1
    -15.603713   -11.298808    -1.235924    -0.808368    -0.578063     0.180535     0.340745

           1.2          2.2          3.2
     -0.492232     0.188558     0.669675

           1.3          2.3          3.3
     -0.492232     0.188558     0.669675

           1.4          2.4
      1.330367     2.186949


 HOMO      1.3    -0.492232 =     -13.3943eV
 LUMO      6.1     0.180535 =       4.9126eV
 LUMO-HOMO         0.672768 =      18.3069eV

 Orbitals saved in record  2101.2


 **********************************************************************************************************************************
 DATASETS  * FILE   NREC   LENGTH (MB)   RECORD NAMES
              1      19       29.10       500      610      700      900      950      970     1000      129      960     1100   
                                          VAR    BASINP    GEOM    SYMINP    ZMAT    AOBASIS   BASIS     P2S    ABASIS      S 
                                         1400     1410     1200     1210     1080     1600     1650     1300     1700   
                                           T        V       H0       H01     AOSYM     SMH    MOLCAS    ERIS     OPER   

              2       5        0.51       700     1000      520     2100     2101   
                                         GEOM     BASIS   MCVARS     RHF      RHF  

 PROGRAMS   *        TOTAL    HF-SCF    HF-SCF       INT
 CPU TIMES  *         0.20      0.00      0.00      0.10
 REAL TIME  *         2.35 SEC
 DISK USED  *        33.79 MB
 **********************************************************************************************************************************


 PROGRAM * PAPT (Closed-shell)     Authors: C. Hampel, H.-J. Werner, 1991, P.J. Knowles, 2021


 CORETYPE=SMALL

 Convergence thresholds:  THRVAR = 1.00D-08  THRDEN = 1.00D-06

 Number of closed-shell orbitals:   7 (   5   1   1   0 )
 Number of external orbitals:      34 (  16   8   8   2 )

 Molecular orbitals read from record     2101.2  Type=RHF/CANONICAL  

 Number of N-1 electron functions:               7
 Number of N-2 electron functions:              28
 Number of singly external CSFs:                96
 Number of doubly external CSFs:              8429
 Total number of CSFs:                        8526

 Length of J-op  integral file:               0.00 MB
 Length of K-op  integral file:               0.10 MB

 Integral transformation finished. Total CPU:   0.00 sec, npass=  1  Memory used:   0.08 MW

 Reference energy:                    -92.88420753

                        CORR.ENERGY   TOTAL ENERGY   ENERGY CHANGE
 MP2:                   -0.35891029   -93.24311782    -0.35891029

 SCS-MP2 correlation energy:           -0.36254895   (PS=  1.200000  PT=  0.333333)
 SCS-MP2 total energy:                -93.24675648
 Iteration:   1     0.4129D+00
 Iteration:   2     0.7043D+01
 Iteration:   3     0.4030D+00
 Iteration:   4     0.1157D+00
 Iteration:   5     0.2116D+00
 Iteration:   6     0.4275D-01
 Iteration:   7     0.4513D+00
 Iteration:   8     0.1071D-01
 Iteration:   9     0.7953D-02
 Iteration:  10     0.8283D-02
 Iteration:  11     0.1924D-02
 Iteration:  12     0.1207D-01
 Iteration:  13     0.6741D-03
 Iteration:  14     0.4219D-03
 Iteration:  15     0.3824D-03
 Iteration:  16     0.8536D-04
 PAPT operator written to  7000.1
 PAPT orbitals and eigenvalues written to  7000.2

 MP3(D):                -0.36393186   -93.24813939    -0.00502156



 RESULTS
 =======

  Reference energy                    -92.884207531697

  Correlated core orbitals:             1.1       2.1
  Orbital energies:                   -15.6037  -11.2988

  MP3 core-core energy                 -0.062375438235
  MP3 core-valence energy              -0.012496871884
  MP3 valence correlation energy       -0.289059545317

  MP3 singlet pair energy              -0.260719053693
  MP3 triplet pair energy              -0.103212801743
  MP3 correlation energy               -0.363931855436

 !MP3 total energy                    -93.248139387132

 Timing summary (sec):

 STEP                 CPU(USER)    SYS     CPU(TOT)    WALL
 Transformation          0.01      0.01      0.02      0.23
 CCSD iterations         0.35      0.02      0.37      1.41

 Program statistics:

 Available memory in ccsd:               393215799
 Min. memory needed in ccsd:                 33418
 Max. memory used in ccsd:                   39319
 Max. memory used in cckext:                 70433 ( 1 integral passes)



 **********************************************************************************************************************************
 DATASETS  * FILE   NREC   LENGTH (MB)   RECORD NAMES
              1      21       29.29       500      610      700      900      950      970     1000      129      960     1100   
                                          VAR    BASINP    GEOM    SYMINP    ZMAT    AOBASIS   BASIS     P2S    ABASIS      S 
                                         1400     1410     1200     1210     1080     1600     1650     1300     1700     1380   
                                           T        V       H0       H01     AOSYM     SMH    MOLCAS    ERIS     OPER     JKOP   
                                         7000   
                                        PAPT AO    

              2       6        0.62       700     1000      520     2100     2101     7000   
                                         GEOM     BASIS   MCVARS     RHF      RHF     PAPT   

 PROGRAMS   *        TOTAL      PAPT    HF-SCF    HF-SCF       INT
 CPU TIMES  *         0.27      0.06      0.00      0.00      0.10
 REAL TIME  *         4.31 SEC
 DISK USED  *        33.79 MB
 **********************************************************************************************************************************


 PROGRAM * MP4 (Closed-shell)     Authors: C. Hampel, H.-J. Werner, 1991, M. Deegan, P.J. Knowles, 1992


 CORETYPE=SMALL

 Convergence thresholds:  THRVAR = 1.00D-08  THRDEN = 1.00D-06

 MP4(T)     terms to be evaluated (factor= 0.000)


 Number of closed-shell orbitals:   7 (   5   1   1   0 )
 Number of external orbitals:      34 (  16   8   8   2 )

 Molecular orbitals read from record     7000.2  Type=PAPT/CANONICAL (state 1.1)

 Number of N-1 electron functions:               7
 Number of N-2 electron functions:              28
 Number of singly external CSFs:                96
 Number of doubly external CSFs:              8429
 Total number of CSFs:                        8526

 Length of J-op  integral file:               0.00 MB
 Length of K-op  integral file:               0.10 MB

 Memory could be reduced to 0.18 Mwords without degradation in triples

 Integral transformation finished. Total CPU:   0.00 sec, npass=  1  Memory used:   0.11 MW
 Orbital energies read from record       7000.2  Type=PAPT/CANONICAL (state 1.1)

 Reference energy:                    -92.88420753

                        CORR.ENERGY   TOTAL ENERGY   ENERGY CHANGE
 MP2:                   -0.36820196   -93.25240949    -0.36820196

 SCS-MP2 correlation energy:           -0.37460817   (PS=  1.200000  PT=  0.333333)
 SCS-MP2 total energy:                -93.25881570

 MP3(D):                -0.36803513   -93.25224266     0.00016683
 MP4(DQ):               -0.36633281   -93.25054034     0.00170233
 MP4(SDQ):              -0.37020367   -93.25441120    -0.00387086

 Norm of t1 vector:      0.05257962      S-energy:    -0.00387086      T1 diagnostic:  0.00993661

 Largest off-diagonal element in interal  block of Fock matrix:  0.17D+00
 Largest off-diagonal element in external block of Fock matrix:  0.17D+00


 Total CPU time for triples:      0.02 sec


 RESULTS
 =======

  Reference energy                    -92.884207531697

  Correlated core orbitals:             1.1       2.1
  Orbital energies:                   -14.4803  -10.5041

  MP4(SDQ) core-core energy            -0.062838958686
  MP4(SDQ) core-valence energy         -0.012329111289
  MP4(SDQ) valence correlation ener    -0.295035595421

  MP4(SDQ) singlet pair energy         -0.261084580802
  MP4(SDQ) triplet pair energy         -0.105248224677
  MP4(SDQ) correlation energy          -0.370203665396

  Triples contribution                 -0.014049909814
  Total correlation energy             -0.384253575210

  MP4(SDQ) total energy               -93.254411197092
 !MP4(SDTQ) total energy              -93.268461106906

 Timing summary (sec):

 STEP                 CPU(USER)    SYS     CPU(TOT)    WALL
 CCSD iterations         0.40      0.01      0.41      0.14
 Triples                 0.02      0.00      0.02      0.02

 Program statistics:

 Available memory in ccsd:               393215799
 Min. memory needed in ccsd:                 33418
 Max. memory used in ccsd:                   39319
 Max. memory used in cckext:                 70433 ( 1 integral passes)



 **********************************************************************************************************************************
 DATASETS  * FILE   NREC   LENGTH (MB)   RECORD NAMES
              1      22       29.59       500      610      700      900      950      970     1000      129      960     1100   
                                          VAR    BASINP    GEOM    SYMINP    ZMAT    AOBASIS   BASIS     P2S    ABASIS      S 
                                         1400     1410     1200     1210     1080     1600     1650     1300     1700     1380   
                                           T        V       H0       H01     AOSYM     SMH    MOLCAS    ERIS     OPER     JKOP   
                                         7000     1380(1)
                                        PAPT AO   JKOP   

              2       6        0.62       700     1000      520     2100     2101     7000   
                                         GEOM     BASIS   MCVARS     RHF      RHF     PAPT   

 PROGRAMS   *        TOTAL       MP4      PAPT    HF-SCF    HF-SCF       INT
 CPU TIMES  *         0.33      0.06      0.06      0.00      0.00      0.10
 REAL TIME  *         4.57 SEC
 DISK USED  *        33.79 MB
 **********************************************************************************************************************************

 Dump information in style XML to xml output                                                                      

 Orbitals will not be exported.

 **********************************************************************************************************************************

 MP4/cc-pCVDZ energy=    -93.268461106906

             MP4            PAPT          HF-SCF          HF-SCF
    -93.26846111    -93.24813939    -92.88420753    -92.88420753
 **********************************************************************************************************************************
 Molpro calculation terminated
