
 Working directory              : /var/folders/2v/xbgp75_9785319ghcgb4zr4r0000gp/T//molpro.5H2lApi95C/
 Global scratch directory       : /var/folders/2v/xbgp75_9785319ghcgb4zr4r0000gp/T//molpro.5H2lApi95C/
 Wavefunction directory         : /Users/sacpjk/wfu/
 Main file repository           : /var/folders/2v/xbgp75_9785319ghcgb4zr4r0000gp/T//molpro.5H2lApi95C/

 id        : peterk

 Nodes                        nprocs
 Cardiff-University-G34YLXT77Y    1
 GA implementation: MPI file
 GA implementation (serial work in mppx): MPI file

 Using customized tuning parameters: mindgm=1; mindgv=20; mindgc=4; mindgr=1; noblas=0; minvec=7
 default implementation of scratch files=df  


 Variables initialized (1032), CPU time= 0.00 sec
 
 symmetry,nosym
 
 
 geometry={
            6
     C          0.66348224      0.00000000      0.00000000
     H          1.23462407     -0.92253583      0.00000000
     H          1.23462407      0.92253583      0.00000000
     C         -0.66348224      0.00000000      0.00000000
     H         -1.23462407     -0.92253583      0.00000000
     H         -1.23462407      0.92253583      0.00000000
 }
 basis=cc-pVDZ
 
 
 
 hf; hf; papt; mp2
 
 
 
 {put,xml;noorbitals,nobasis}
 Commands initialized (841), CPU time= 0.01 sec, 704 directives.
 Default parameters read. Elapsed time= 0.09 sec

 Checking input...
 Passed
1


                                         ***  PROGRAM SYSTEM MOLPRO  ***
                                       Copyright, TTI GmbH Stuttgart, 2015
                                    Version 2023.1 linked Tue Jun  6 09:54:11 2023


 **********************************************************************************************************************************
 LABEL *                                                                                                                                                                 
  64 bit serial version                                                                  DATE: 11-Jun-23          TIME: 09:03:18  
 **********************************************************************************************************************************

 SHA1:             8ebb0dd001088a5c915591db1a321413035db0b1
 **********************************************************************************************************************************

 Memory per process:       393 MW
 Total memory per node:    524 MW
 Total GA space:           131 MW

 GA preallocation disabled
 GA check enabled

 Variable memory set to 393.2 MW

 ZSYMEL=NOSYM


 Geometry recognized as XYZ

 SETTING BASIS          =    CC-PVDZ


 Recomputing integrals since basis changed


 Using spherical harmonics

 Library entry C      S cc-pVDZ              selected for orbital group  1
 Library entry C      P cc-pVDZ              selected for orbital group  1
 Library entry C      D cc-pVDZ              selected for orbital group  1
 Library entry H      S cc-pVDZ              selected for orbital group  2
 Library entry H      P cc-pVDZ              selected for orbital group  2


 PROGRAM * SEWARD (Integral evaluation for generally contracted gaussian basis sets)     Author: Roland Lindh, 1990

 Geometry written to block  1 of record 700


 Point group  C1  



 ATOMIC COORDINATES

 NR  ATOM    CHARGE       X              Y              Z

   1  C       6.00    1.253799722    0.000000000    0.000000000
   2  H       1.00    2.333101359   -1.743340059    0.000000000
   3  H       1.00    2.333101359    1.743340059    0.000000000
   4  C       6.00   -1.253799722    0.000000000    0.000000000
   5  H       1.00   -2.333101359   -1.743340059    0.000000000
   6  H       1.00   -2.333101359    1.743340059    0.000000000

 Bond lengths in Bohr (Angstrom)

 1-2  2.050396690  1-3  2.050396690  1-4  2.507599444  4-5  2.050396690  4-6  2.050396690
     ( 1.085023201)     ( 1.085023201)     ( 1.326964480)     ( 1.085023201)     ( 1.085023201)

 Bond angles

  1-4-5  121.76164516   1-4-6  121.76164516   2-1-3  116.47670967   2-1-4  121.76164516

  3-1-4  121.76164516   5-4-6  116.47670967

 NUCLEAR CHARGE:                   16
 NUMBER OF PRIMITIVE AOS:          82
 NUMBER OF SYMMETRY AOS:           80
 NUMBER OF CONTRACTIONS:           48   (   48A   )
 NUMBER OF INNER CORE ORBITALS:     0   (    0A   )
 NUMBER OF OUTER CORE ORBITALS:     2   (    2A   )
 NUMBER OF VALENCE ORBITALS:       12   (   12A   )


 NUCLEAR REPULSION ENERGY   33.42486081

 EXTRA SYMMETRY OF AOS IN SYMMETRY 1:   1 1 1 1 1 2 1 1 2 1   1 2 1 2 1 1 1 1 2 1   1 1 1 2 1 1 1 1 1 2   1 1 2 1 1 2 1 2 1 1
                                        1 1 2 1 1 1 1 2

 Eigenvalues of metric

         1 0.376E-02 0.159E-01 0.163E-01 0.264E-01 0.278E-01 0.399E-01 0.435E-01 0.475E-01


 Contracted 2-electron integrals neglected if value below      1.0D-11
 AO integral compression algorithm  1   Integral accuracy      1.0D-11

     2.359 MB (compressed) written to integral file ( 35.0%)


 NUMBER OF SORTED TWO-ELECTRON INTEGRALS:     692076.     BUFFER LENGTH:  32768
 NUMBER OF SEGMENTS:   1  SEGMENT LENGTH:     692076      RECORD LENGTH: 524288

 Memory used in sort:       1.25 MW

 SORT1 READ      842528. AND WROTE      344774. INTEGRALS IN      1 RECORDS. CPU TIME:     0.01 SEC, REAL TIME:     0.01 SEC
 SORT2 READ      344774. AND WROTE      692076. INTEGRALS IN      9 RECORDS. CPU TIME:     0.02 SEC, REAL TIME:     0.05 SEC

 FILE SIZES:   FILE 1:    32.5 MBYTE,  FILE 4:     4.3 MBYTE,   TOTAL:     36.8 MBYTE

 OPERATOR DM      FOR CENTER  0  COORDINATES:    0.000000    0.000000    0.000000


 **********************************************************************************************************************************
 DATASETS  * FILE   NREC   LENGTH (MB)   RECORD NAMES
              1      19       30.46       500      610      700      900      950      970     1000      129      960     1100   
                                          VAR    BASINP    GEOM    SYMINP    ZMAT    AOBASIS   BASIS     P2S    ABASIS      S 
                                         1400     1410     1200     1210     1080     1600     1650     1300     1700   
                                           T        V       H0       H01     AOSYM     SMH    MOLCAS    ERIS     OPER   

 PROGRAMS   *        TOTAL       INT
 CPU TIMES  *         0.28      0.17
 REAL TIME  *         0.73 SEC
 DISK USED  *        35.47 MB
 **********************************************************************************************************************************


 Program * Restricted Hartree-Fock

 Orbital guess generated from atomic densities. Full valence occupancy:   14

 Initial occupancy:   8

 NELEC=   16   SYM=1   MS2= 0   THRE=1.0D-08   THRD=3.2D-06   THRG=3.2D-06  HFMA2=F  DIIS_START=2   DIIS_MAX=10   DIIS_INCORE=F

 Level shifts:    0.00 (CLOSED)    0.00 (OPEN)    0.30 (GAP_MIN)

 ITER           ETOT              DE          GRAD        DDIFF     DIIS  NEXP   TIME(IT)  TIME(TOT)  DIAG
   1      -78.01805796     -78.01805796     0.00D+00     0.15D+00     0     0       0.01      0.01    start
   2      -78.03799828      -0.01994032     0.65D-02     0.14D-01     1     0       0.00      0.01    diag
   3      -78.03987838      -0.00188010     0.22D-02     0.43D-02     2     0       0.01      0.02    diag
   4      -78.04010537      -0.00022699     0.63D-03     0.15D-02     3     0       0.00      0.02    diag
   5      -78.04010763      -0.00000225     0.60D-04     0.17D-03     4     0       0.01      0.03    diag
   6      -78.04010768      -0.00000006     0.87D-05     0.28D-04     5     0       0.00      0.03    diag
   7      -78.04010768      -0.00000000     0.13D-05     0.36D-05     6     0       0.00      0.03    diag
   8      -78.04010768      -0.00000000     0.14D-06     0.46D-06     7     0       0.01      0.04    fixocc
   9      -78.04010768      -0.00000000     0.15D-07     0.31D-07     0     0       0.00      0.04    diag

 Final occupancy:   8

 !RHF STATE 1.1 Energy                -78.040107684526
  RHF One-electron energy            -170.147000964774
  RHF Two-electron energy              58.682032471583
  RHF Kinetic energy                   77.900799635588
  RHF Nuclear energy                   33.424860808665
  RHF Virial quotient                  -1.001788274955

 !RHF STATE 1.1 Dipole moment           0.00000000     0.00000000     0.00000000
 Dipole moment /Debye                   0.00000000     0.00000000     0.00000000

 Orbital energies:

           1.1          2.1          3.1          4.1          5.1          6.1          7.1          8.1          9.1         10.1
    -11.235560   -11.233852    -1.033056    -0.788981    -0.638318    -0.585035    -0.501042    -0.375623     0.169484     0.203775


 HOMO      8.1    -0.375623 =     -10.2212eV
 LUMO      9.1     0.169484 =       4.6119eV
 LUMO-HOMO         0.545107 =      14.8331eV

 Orbitals saved in record  2100.2


 **********************************************************************************************************************************
 DATASETS  * FILE   NREC   LENGTH (MB)   RECORD NAMES
              1      19       30.46       500      610      700      900      950      970     1000      129      960     1100   
                                          VAR    BASINP    GEOM    SYMINP    ZMAT    AOBASIS   BASIS     P2S    ABASIS      S 
                                         1400     1410     1200     1210     1080     1600     1650     1300     1700   
                                           T        V       H0       H01     AOSYM     SMH    MOLCAS    ERIS     OPER   

              2       4        0.50       700     1000      520     2100   
                                         GEOM     BASIS   MCVARS     RHF  

 PROGRAMS   *        TOTAL    HF-SCF       INT
 CPU TIMES  *         0.32      0.04      0.17
 REAL TIME  *         0.80 SEC
 DISK USED  *        35.47 MB
 **********************************************************************************************************************************


 Program * Restricted Hartree-Fock

 Molecular orbitals read from record     2100.2  Type=RHF/CANONICAL  

 Initial occupancy:   8

 NELEC=   16   SYM=1   MS2= 0   THRE=1.0D-08   THRD=3.2D-06   THRG=3.2D-06  HFMA2=F  DIIS_START=2   DIIS_MAX=10   DIIS_INCORE=F

 Level shifts:    0.00 (CLOSED)    0.00 (OPEN)    0.30 (GAP_MIN)

 ITER           ETOT              DE          GRAD        DDIFF     DIIS  NEXP   TIME(IT)  TIME(TOT)  DIAG
   1      -78.04010768     -78.04010768     0.00D+00     0.15D+00     0     0       0.01      0.01    start
   2      -78.04010768      -0.00000000     0.49D-08     0.10D-07     1     0       0.00      0.01    diag

 Final occupancy:   8

 !RHF STATE 1.1 Energy                -78.040107684526
  RHF One-electron energy            -170.147001041237
  RHF Two-electron energy              58.682032548046
  RHF Kinetic energy                   77.900799676792
  RHF Nuclear energy                   33.424860808665
  RHF Virial quotient                  -1.001788274425

 !RHF STATE 1.1 Dipole moment           0.00000000     0.00000000     0.00000000
 Dipole moment /Debye                   0.00000000     0.00000000     0.00000000

 Orbital energies:

           1.1          2.1          3.1          4.1          5.1          6.1          7.1          8.1          9.1         10.1
    -11.235560   -11.233852    -1.033056    -0.788981    -0.638318    -0.585035    -0.501042    -0.375623     0.169484     0.203775


 HOMO      8.1    -0.375623 =     -10.2212eV
 LUMO      9.1     0.169484 =       4.6119eV
 LUMO-HOMO         0.545107 =      14.8331eV

 Orbitals saved in record  2101.2


 **********************************************************************************************************************************
 DATASETS  * FILE   NREC   LENGTH (MB)   RECORD NAMES
              1      19       30.46       500      610      700      900      950      970     1000      129      960     1100   
                                          VAR    BASINP    GEOM    SYMINP    ZMAT    AOBASIS   BASIS     P2S    ABASIS      S 
                                         1400     1410     1200     1210     1080     1600     1650     1300     1700   
                                           T        V       H0       H01     AOSYM     SMH    MOLCAS    ERIS     OPER   

              2       5        0.66       700     1000      520     2100     2101   
                                         GEOM     BASIS   MCVARS     RHF      RHF  

 PROGRAMS   *        TOTAL    HF-SCF    HF-SCF       INT
 CPU TIMES  *         0.34      0.01      0.04      0.17
 REAL TIME  *         0.85 SEC
 DISK USED  *        35.47 MB
 **********************************************************************************************************************************


 PROGRAM * PAPT (Closed-shell)     Authors: C. Hampel, H.-J. Werner, 1991, P.J. Knowles, 2021


 Convergence thresholds:  THRVAR = 1.00D-08  THRDEN = 1.00D-06

 Number of core orbitals:           2 (   2 )
 Number of closed-shell orbitals:   6 (   6 )
 Number of external orbitals:      40 (  40 )

 Molecular orbitals read from record     2101.2  Type=RHF/CANONICAL  

 Number of N-1 electron functions:               6
 Number of N-2 electron functions:              21
 Number of singly external CSFs:               240
 Number of doubly external CSFs:             28920
 Total number of CSFs:                       29161

 Length of J-op  integral file:               0.00 MB
 Length of K-op  integral file:               0.22 MB

 Integral transformation finished. Total CPU:   0.01 sec, npass=  1  Memory used:   0.18 MW

 Reference energy:                    -78.04010768

                        CORR.ENERGY   TOTAL ENERGY   ENERGY CHANGE
 MP2:                   -0.27451667   -78.31462435    -0.27451667

 SCS-MP2 correlation energy:           -0.27719939   (PS=  1.200000  PT=  0.333333)
 SCS-MP2 total energy:                -78.31730708
 Iteration:   1     0.2666D+00
 Iteration:   2     0.8508D+00
 Iteration:   3     0.1060D+00
 Iteration:   4     0.1759D+00
 Iteration:   5     0.3831D-01
 Iteration:   6     0.2050D-01
 Iteration:   7     0.5103D-01
 Iteration:   8     0.4416D-02
 Iteration:   9     0.4198D-02
 Iteration:  10     0.1627D-02
 Iteration:  11     0.8247D-03
 Iteration:  12     0.1117D-02
 Iteration:  13     0.1168D-03
 Iteration:  14     0.4596D-04
 PAPT operator written to  7000.1
 PAPT orbitals and eigenvalues written to  7000.2

 MP3(D):                -0.29984204   -78.33994972    -0.02532537



 RESULTS
 =======

  Reference energy                    -78.040107684526
  MP3 singlet pair energy              -0.212298574257
  MP3 triplet pair energy              -0.087543466052
  MP3 correlation energy               -0.299842040309

 !MP3 total energy                    -78.339949724835

 Timing summary (sec):

 STEP                 CPU(USER)    SYS     CPU(TOT)    WALL
 Transformation          0.01      0.00      0.01      0.01
 CCSD iterations         0.54      0.01      0.55      0.10

 Program statistics:

 Available memory in ccsd:               393215848
 Min. memory needed in ccsd:                112753
 Max. memory used in ccsd:                  132769
 Max. memory used in cckext:                144410 ( 1 integral passes)



 **********************************************************************************************************************************
 DATASETS  * FILE   NREC   LENGTH (MB)   RECORD NAMES
              1      21       31.06       500      610      700      900      950      970     1000      129      960     1100   
                                          VAR    BASINP    GEOM    SYMINP    ZMAT    AOBASIS   BASIS     P2S    ABASIS      S 
                                         1400     1410     1200     1210     1080     1600     1650     1300     1700     1380   
                                           T        V       H0       H01     AOSYM     SMH    MOLCAS    ERIS     OPER     JKOP   
                                         7000   
                                        PAPT AO    

              2       6        0.81       700     1000      520     2100     2101     7000   
                                         GEOM     BASIS   MCVARS     RHF      RHF     PAPT   

 PROGRAMS   *        TOTAL      PAPT    HF-SCF    HF-SCF       INT
 CPU TIMES  *         0.45      0.10      0.01      0.04      0.17
 REAL TIME  *         1.00 SEC
 DISK USED  *        35.47 MB
 **********************************************************************************************************************************


 PROGRAM * MP2 (Closed-shell)     Authors: C. Hampel, H.-J. Werner, 1991, M. Deegan, P.J. Knowles, 1992


 Convergence thresholds:  THRVAR = 1.00D-08  THRDEN = 1.00D-06

 Number of core orbitals:           2 (   2 )
 Number of closed-shell orbitals:   6 (   6 )
 Number of external orbitals:      40 (  40 )

 Molecular orbitals read from record     7000.2  Type=PAPT/CANONICAL (state 1.1)

 Number of N-1 electron functions:               6
 Number of N-2 electron functions:              21
 Number of singly external CSFs:               240
 Number of doubly external CSFs:             28920
 Total number of CSFs:                       29161

 Length of J-op  integral file:               0.00 MB
 Length of K-op  integral file:               0.22 MB

 Integral transformation finished. Total CPU:   0.00 sec, npass=  1  Memory used:   0.18 MW
 Orbital energies read from record       7000.2  Type=PAPT/CANONICAL (state 1.1)

 Memory needed for MP2:                      0.01 MW

 SCS-MP2 correlation energy:           -0.310230540650   (PS=  1.200000  PT=  0.333333)
 SCS-MP2 total energy:                -78.350338225176


  Reference energy                    -78.040107684526
  MP2 singlet pair energy              -0.208454741329
  MP2 triplet pair energy              -0.096564939195
  MP2 correlation energy               -0.305019680524

 !MP2 total energy                    -78.345127365050


 **********************************************************************************************************************************
 DATASETS  * FILE   NREC   LENGTH (MB)   RECORD NAMES
              1      21       31.06       500      610      700      900      950      970     1000      129      960     1100   
                                          VAR    BASINP    GEOM    SYMINP    ZMAT    AOBASIS   BASIS     P2S    ABASIS      S 
                                         1400     1410     1200     1210     1080     1600     1650     1300     1700     1380   
                                           T        V       H0       H01     AOSYM     SMH    MOLCAS    ERIS     OPER     JKOP   
                                         7000   
                                        PAPT AO    

              2       6        0.81       700     1000      520     2100     2101     7000   
                                         GEOM     BASIS   MCVARS     RHF      RHF     PAPT   

 PROGRAMS   *        TOTAL       MP2      PAPT    HF-SCF    HF-SCF       INT
 CPU TIMES  *         0.50      0.06      0.10      0.01      0.04      0.17
 REAL TIME  *         1.07 SEC
 DISK USED  *        35.47 MB
 **********************************************************************************************************************************

 Dump information in style XML to xml output                                                                      

 Orbitals will not be exported.

 **********************************************************************************************************************************

 MP2/cc-pVDZ energy=    -78.345127365050

             MP2            PAPT          HF-SCF          HF-SCF
    -78.34512737    -78.33994972    -78.04010768    -78.04010768
 **********************************************************************************************************************************
 Molpro calculation terminated
