
 Working directory              : /var/folders/2v/xbgp75_9785319ghcgb4zr4r0000gp/T//molpro.hpGWX0OgLs/
 Global scratch directory       : /var/folders/2v/xbgp75_9785319ghcgb4zr4r0000gp/T//molpro.hpGWX0OgLs/
 Wavefunction directory         : /Users/sacpjk/wfu/
 Main file repository           : /var/folders/2v/xbgp75_9785319ghcgb4zr4r0000gp/T//molpro.hpGWX0OgLs/

 id        : peterk

 Nodes                        nprocs
 Cardiff-University-G34YLXT77Y    1
 GA implementation: MPI file
 GA implementation (serial work in mppx): MPI file

 Using customized tuning parameters: mindgm=1; mindgv=20; mindgc=4; mindgr=1; noblas=0; minvec=7
 default implementation of scratch files=df  


 Variables initialized (1032), CPU time= 0.01 sec
 
 symmetry,nosym
 
 
 geometry={
 9
  o         -2.235437230087    0.143124292817    0.279182781720
  h         -2.652114069471    0.941997007504    0.604952458971
  h         -1.306410910992    0.253881357629    0.520131274942
  o          0.606525854540    0.239596225744    0.665558031726
  h          0.974508678778   -0.332481177259    1.343086358835
  c          1.071530925880   -0.232033690184   -0.596601078094
  h          0.640713830642    0.419060000765   -1.349715110074
  h          2.157494612880   -0.181240829481   -0.670913006230
  h          0.743188307883   -1.251903187533   -0.795681711954
 }
 basis=aug-cc-pVTZ
 
 
 
 hf; ccsd(t)
 
 
 
 {put,xml;noorbitals,nobasis}
 Commands initialized (841), CPU time= 0.00 sec, 704 directives.
 Default parameters read. Elapsed time= 1.23 sec

 Checking input...
 Passed
1


                                         ***  PROGRAM SYSTEM MOLPRO  ***
                                       Copyright, TTI GmbH Stuttgart, 2015
                                    Version 2023.1 linked Tue Jun  6 09:54:11 2023


 **********************************************************************************************************************************
 LABEL *                                                                                                                                                                 
  64 bit serial version                                                                  DATE: 09-Jun-23          TIME: 02:25:10  
 **********************************************************************************************************************************

 SHA1:             8ebb0dd001088a5c915591db1a321413035db0b1
 **********************************************************************************************************************************

 Memory per process:       805 MW
 Total memory per node:   1074 MW
 Total GA space:           268 MW

 GA preallocation disabled
 GA check enabled

 Variable memory set to 805.3 MW

 ZSYMEL=NOSYM


 Geometry recognized as XYZ

 SETTING BASIS          =    AUG-CC-PVTZ


 Recomputing integrals since basis changed


 Using spherical harmonics

 Library entry O      S aug-cc-pVTZ          selected for orbital group  1
 Library entry O      P aug-cc-pVTZ          selected for orbital group  1
 Library entry O      D aug-cc-pVTZ          selected for orbital group  1
 Library entry O      F aug-cc-pVTZ          selected for orbital group  1
 Library entry H      S aug-cc-pVTZ          selected for orbital group  2
 Library entry H      P aug-cc-pVTZ          selected for orbital group  2
 Library entry H      D aug-cc-pVTZ          selected for orbital group  2
 Library entry C      S aug-cc-pVTZ          selected for orbital group  5
 Library entry C      P aug-cc-pVTZ          selected for orbital group  5
 Library entry C      D aug-cc-pVTZ          selected for orbital group  5
 Library entry C      F aug-cc-pVTZ          selected for orbital group  5


 PROGRAM * SEWARD (Integral evaluation for generally contracted gaussian basis sets)     Author: Roland Lindh, 1990

 Geometry written to block  1 of record 700


 Point group  C1  



 ATOMIC COORDINATES

 NR  ATOM    CHARGE       X              Y              Z

   1  O       8.00   -4.224364134    0.270465715    0.527578996
   2  H       1.00   -5.011769243    1.780116354    1.143194466
   3  H       1.00   -2.468758828    0.479766234    0.982905658
   4  O       8.00    1.146167753    0.452771247    1.257722400
   5  H       1.00    1.841554509   -0.628298367    2.538065380
   6  C       6.00    2.024899984   -0.438480126   -1.127412643
   7  H       1.00    1.210773664    0.791908631   -2.550591904
   8  H       1.00    4.077073934   -0.342495530   -1.267841835
   9  H       1.00    1.404422361   -2.365754159   -1.503620518

 Bond lengths in Bohr (Angstrom)

 1-2  1.810534248  1-3  1.825726997  4-5  1.814263596  4-6  2.693579128  6-7  2.049901795
     ( 0.958093464)     ( 0.966133120)     ( 0.960066950)     ( 1.425380690)     ( 1.084761314)

 6-8  2.059211335  6-9  2.059346994
     ( 1.089687711)     ( 1.089759499)

 Bond angles

  2-1-3  103.75741037   4-6-7  106.65459098   4-6-8  111.72059385   4-6-9  111.90879544

  5-4-6  107.61952491   7-6-8  108.69153235   7-6-9  108.37480423   8-6-9  109.35579189

 NUCLEAR CHARGE:                   28
 NUMBER OF PRIMITIVE AOS:         363
 NUMBER OF SYMMETRY AOS:          324
 NUMBER OF CONTRACTIONS:          276   (  276A   )
 NUMBER OF INNER CORE ORBITALS:     0   (    0A   )
 NUMBER OF OUTER CORE ORBITALS:     3   (    3A   )
 NUMBER OF VALENCE ORBITALS:       18   (   18A   )


 NUCLEAR REPULSION ENERGY   79.98338108


 Eigenvalues of metric

         1 0.485E-04 0.552E-04 0.671E-04 0.120E-03 0.198E-03 0.273E-03 0.323E-03 0.392E-03


 Contracted 2-electron integrals neglected if value below      1.0D-12
 AO integral compression algorithm  1   Integral accuracy      1.0D-12

     3333.161 MB (compressed) written to integral file ( 50.9%)


 NUMBER OF SORTED TWO-ELECTRON INTEGRALS:  730632651.     BUFFER LENGTH:  32768
 NUMBER OF SEGMENTS:  46  SEGMENT LENGTH:   15999984      RECORD LENGTH: 262144

 Memory used in sort:      16.29 MW

 SORT1 READ   818195360. AND WROTE   685699758. INTEGRALS IN   3946 RECORDS. CPU TIME:     6.09 SEC, REAL TIME:     8.12 SEC
 SORT2 READ   685699758. AND WROTE   730632651. INTEGRALS IN  12715 RECORDS. CPU TIME:     4.07 SEC, REAL TIME:     5.84 SEC

 FILE SIZES:   FILE 1:  3366.1 MBYTE,  FILE 4:  8275.4 MBYTE,   TOTAL:  11641.5 MBYTE

 OPERATOR DM      FOR CENTER  0  COORDINATES:    0.000000    0.000000    0.000000


 **********************************************************************************************************************************
 DATASETS  * FILE   NREC   LENGTH (MB)   RECORD NAMES
              1      19     2906.63       500      610      700      900      950      970     1000      129      960     1100   
                                          VAR    BASINP    GEOM    SYMINP    ZMAT    AOBASIS   BASIS     P2S    ABASIS      S 
                                         1400     1410     1200     1210     1080     1600     1650     1300     1700   
                                           T        V       H0       H01     AOSYM     SMH    MOLCAS    ERIS     OPER   

 PROGRAMS   *        TOTAL       INT
 CPU TIMES  *        24.19     24.10
 REAL TIME  *        35.19 SEC
 DISK USED  *        10.84 GB
 **********************************************************************************************************************************


 Program * Restricted Hartree-Fock

 Orbital guess generated from atomic densities. Full valence occupancy:   21

 Initial occupancy:  14

 NELEC=   28   SYM=1   MS2= 0   THRE=1.0D-08   THRD=3.2D-06   THRG=3.2D-06  HFMA2=F  DIIS_START=2   DIIS_MAX=10   DIIS_INCORE=F

 Level shifts:    0.00 (CLOSED)    0.00 (OPEN)    0.30 (GAP_MIN)

 ITER           ETOT              DE          GRAD        DDIFF     DIIS  NEXP   TIME(IT)  TIME(TOT)  DIAG
   1     -191.08906288    -191.08906288     0.00D+00     0.38D-01     0     0       3.42      6.30    start
   2     -191.14187389      -0.05281101     0.46D-02     0.52D-02     1     0       3.31      9.61    diag
   3     -191.15745711      -0.01558321     0.26D-02     0.17D-02     2     0       3.44     13.05    diag
   4     -191.15814207      -0.00068497     0.38D-03     0.37D-03     3     0       3.36     16.41    diag
   5     -191.15818846      -0.00004638     0.83D-04     0.88D-04     4     0       3.68     20.09    diag
   6     -191.15819092      -0.00000246     0.16D-04     0.23D-04     5     0       3.54     23.63    diag
   7     -191.15819103      -0.00000012     0.36D-05     0.53D-05     6     0       3.81     27.44    diag
   8     -191.15819104      -0.00000001     0.14D-05     0.14D-05     7     0       3.73     31.17    fixocc
   9     -191.15819104      -0.00000000     0.46D-06     0.50D-06     0     0       3.39     34.56    diag

 Final occupancy:  14

 !RHF STATE 1.1 Energy               -191.158191043583
  RHF One-electron energy            -420.839040438668
  RHF Two-electron energy             149.697468317193
  RHF Kinetic energy                  190.903406130220
  RHF Nuclear energy                   79.983381077893
  RHF Virial quotient                  -1.001334627383

 !RHF STATE 1.1 Dipole moment           1.00119905     0.00540599     0.21794872
 Dipole moment /Debye                   2.54479415     0.01374066     0.55397039

 Orbital energies:

           1.1          2.1          3.1          4.1          5.1          6.1          7.1          8.1          9.1         10.1
    -20.581080   -20.535185   -11.281801    -1.380568    -1.321883    -0.940530    -0.716620    -0.688041    -0.632980    -0.610617

          11.1         12.1         13.1         14.1         15.1         16.1
     -0.559149    -0.521059    -0.481026    -0.471473     0.025529     0.040124


 HOMO     14.1    -0.471473 =     -12.8294eV
 LUMO     15.1     0.025529 =       0.6947eV
 LUMO-HOMO         0.497002 =      13.5241eV

 Orbitals saved in record  2100.2


 **********************************************************************************************************************************
 DATASETS  * FILE   NREC   LENGTH (MB)   RECORD NAMES
              1      19     2906.63       500      610      700      900      950      970     1000      129      960     1100   
                                          VAR    BASINP    GEOM    SYMINP    ZMAT    AOBASIS   BASIS     P2S    ABASIS      S 
                                         1400     1410     1200     1210     1080     1600     1650     1300     1700   
                                           T        V       H0       H01     AOSYM     SMH    MOLCAS    ERIS     OPER   

              2       4        1.71       700     1000      520     2100   
                                         GEOM     BASIS   MCVARS     RHF  

 PROGRAMS   *        TOTAL    HF-SCF       INT
 CPU TIMES  *        58.75     34.56     24.10
 REAL TIME  *        77.77 SEC
 DISK USED  *        10.84 GB
 **********************************************************************************************************************************


 PROGRAM * CCSD (Closed-shell coupled cluster)     Authors: C. Hampel, H.-J. Werner, 1991, M. Deegan, P.J. Knowles, 1992


 Convergence thresholds:  THRVAR = 1.00D-08  THRDEN = 1.00D-06

 CCSD(T)     terms to be evaluated (factor= 1.000)


 Number of core orbitals:           3 (   3 )
 Number of closed-shell orbitals:  11 (  11 )
 Number of external orbitals:     262 ( 262 )

 Molecular orbitals read from record     2100.2  Type=RHF/CANONICAL  

 Number of N-1 electron functions:              11
 Number of N-2 electron functions:              66
 Number of singly external CSFs:              2882
 Number of doubly external CSFs:           4154403
 Total number of CSFs:                     4157286

 Length of J-op  integral file:               0.00 MB
 Length of K-op  integral file:               5.29 MB
 Length of 3-ext integral record:             0.00 MB

 Memory could be reduced to 253.87 Mwords without degradation in triples

 Integral transformation finished. Total CPU:  17.66 sec, npass=  1  Memory used: 136.64 MW

 Reference energy:                   -191.15819104

 MP2 singlet pair energy:              -0.45859788
 MP2 triplet pair energy:              -0.25066111
 MP2 correlation energy:               -0.70925899
 MP2 total energy:                   -191.86745004

 SCS-MP2 correlation energy:           -0.70628437   (PS=  1.200000  PT=  0.333333)
 SCS-MP2 total energy:               -191.86447541

 ITER.      SQ.NORM     CORR.ENERGY   TOTAL ENERGY   ENERGY CHANGE        DEN1      VAR(S)    VAR(P)  DIIS     TIME  TIME/IT
   1      1.18347182    -0.72932986  -191.88752090    -0.02007087    -0.00367717  0.25D-02  0.29D-02  1  1    93.81    19.04
   2      1.19538074    -0.73068536  -191.88887640    -0.00135550    -0.01444397  0.31D-04  0.37D-03  2  2   112.37    20.09
   3      1.19961312    -0.73083489  -191.88902594    -0.00014954    -0.00272386  0.29D-04  0.16D-04  3  3   131.32    20.45
   4      1.20085700    -0.73080872  -191.88899977     0.00002617    -0.00058804  0.16D-05  0.19D-05  4  4   151.22    20.94
   5      1.20114321    -0.73080661  -191.88899765     0.00000211    -0.00008762  0.42D-06  0.14D-06  5  5   171.19    21.29
   6      1.20122758    -0.73079931  -191.88899035     0.00000730    -0.00001646  0.51D-07  0.13D-07  6  6   190.09    21.28
   7      1.20124590    -0.73079804  -191.88898908     0.00000127    -0.00000225  0.57D-08  0.29D-08  6  2   207.71    21.04
   8      1.20125013    -0.73079785  -191.88898890     0.00000019     0.00000010  0.92D-09  0.34D-09  6  1   226.32    21.00
   9      1.20125168    -0.73079774  -191.88898879     0.00000011     0.00000036  0.91D-10  0.37D-10  6  3   245.22    21.06

 Norm of t1 vector:      0.06767268      S-energy:     0.00000020      T1 diagnostic:  0.01020204
                                                                       D1 diagnostic:  0.02405935
                                                                       D2 diagnostic:  0.13786997 (internal)

 Largest off-diagonal element in interal  block of Fock matrix:  0.71D-05
 Largest off-diagonal element in external block of Fock matrix:  0.11D-04

 Block diagonalizing Fock operator


 Total CPU time for triples:    365.85 sec


 RESULTS
 =======

  Reference energy                   -191.158191043583
  CCSD singlet pair energy             -0.504940252922
  CCSD triplet pair energy             -0.225857691419
  CCSD correlation energy              -0.730797744012

  Triples (T) contribution             -0.025091150731
  Total correlation energy             -0.755888894742

  CCSD total energy                  -191.888988787595
  CCSD[T] energy                     -191.914983535340
  CCSD-T energy                      -191.913609708618
 !CCSD(T) total energy               -191.914079938326

 Timing summary (sec):

 STEP                 CPU(USER)    SYS     CPU(TOT)    WALL
 Transformation         34.19      5.10     39.29     41.30
 CCSD iterations       230.85     10.10    240.95    195.80
 Triples               365.85     11.46    377.31    404.24

 Program statistics:

 Available memory in ccsd:               805305870
 Min. memory needed in ccsd:              10991486
 Max. memory used in ccsd:                14686936
 Max. memory used in cckext:              11004959 ( 9 integral passes)



 **********************************************************************************************************************************
 DATASETS  * FILE   NREC   LENGTH (MB)   RECORD NAMES
              1      20     3722.96       500      610      700      900      950      970     1000      129      960     1100   
                                          VAR    BASINP    GEOM    SYMINP    ZMAT    AOBASIS   BASIS     P2S    ABASIS      S 
                                         1400     1410     1200     1210     1080     1600     1650     1300     1700     1380   
                                           T        V       H0       H01     AOSYM     SMH    MOLCAS    ERIS     OPER     JKOP   

              2       4        1.71       700     1000      520     2100   
                                         GEOM     BASIS   MCVARS     RHF  

 PROGRAMS   *        TOTAL   CCSD(T)    HF-SCF       INT
 CPU TIMES  *       630.80    572.05     34.56     24.10
 REAL TIME  *       721.67 SEC
 DISK USED  *        10.84 GB
 **********************************************************************************************************************************

 Dump information in style XML to xml output                                                                      

 Orbitals will not be exported.

 **********************************************************************************************************************************

 CCSD(T)/aug-cc-pVTZ energy=   -191.914079938326

         CCSD(T)          HF-SCF
   -191.91407994   -191.15819104
 **********************************************************************************************************************************
 Molpro calculation terminated
