
 Working directory              : /var/folders/2v/xbgp75_9785319ghcgb4zr4r0000gp/T//molpro.j0cQxkTbVc/
 Global scratch directory       : /var/folders/2v/xbgp75_9785319ghcgb4zr4r0000gp/T//molpro.j0cQxkTbVc/
 Wavefunction directory         : /Users/sacpjk/wfu/
 Main file repository           : /var/folders/2v/xbgp75_9785319ghcgb4zr4r0000gp/T//molpro.j0cQxkTbVc/

 id        : peterk

 Nodes                        nprocs
 Cardiff-University-G34YLXT77Y    1
 GA implementation: MPI file
 GA implementation (serial work in mppx): MPI file

 Using customized tuning parameters: mindgm=1; mindgv=20; mindgc=4; mindgr=1; noblas=0; minvec=7
 default implementation of scratch files=df  


 Variables initialized (1032), CPU time= 0.01 sec
 
 symmetry,nosym
 
 
 geometry={
           13
     O         -2.53820248     -0.08771520     -1.02724234
     P         -1.35941727     -0.07970400      0.02969318
     O         -1.27738380     -1.25285556      0.93417310
     O          0.00000000      0.00000000     -0.87883739
     P          1.35941727      0.07970400      0.02969318
     O          1.27738380      1.25285556      0.93417310
     O          1.49416219     -1.36283276      0.64970831
     O          2.53820248      0.08771520     -1.02724234
     O         -1.49416219      1.36283276      0.64970831
     H         -2.91545388     -0.97873665     -1.12334103
     H          0.59640375     -1.64077375      0.97642748
     H          2.91545388      0.97873665     -1.12334103
     H         -0.59640375      1.64077375      0.97642748
 }
 basis=cc-pVDZ
 
 
 
 hf; hf; papt; mp2
 
 
 
 {put,xml;noorbitals,nobasis}
 Commands initialized (841), CPU time= 0.00 sec, 704 directives.
 Default parameters read. Elapsed time= 0.56 sec

 Checking input...
 Passed
1


                                         ***  PROGRAM SYSTEM MOLPRO  ***
                                       Copyright, TTI GmbH Stuttgart, 2015
                                    Version 2023.1 linked Tue Jun  6 09:54:11 2023


 **********************************************************************************************************************************
 LABEL *                                                                                                                                                                 
  64 bit serial version                                                                  DATE: 13-Jun-23          TIME: 06:11:47  
 **********************************************************************************************************************************

 SHA1:             8ebb0dd001088a5c915591db1a321413035db0b1
 **********************************************************************************************************************************

 Memory per process:       393 MW
 Total memory per node:    524 MW
 Total GA space:           131 MW

 GA preallocation disabled
 GA check enabled

 Variable memory set to 393.2 MW

 ZSYMEL=NOSYM


 Geometry recognized as XYZ

 SETTING BASIS          =    CC-PVDZ


 Recomputing integrals since basis changed


 Using spherical harmonics

 Library entry O      S cc-pVDZ              selected for orbital group  1
 Library entry O      P cc-pVDZ              selected for orbital group  1
 Library entry O      D cc-pVDZ              selected for orbital group  1
 Library entry P      S cc-pVDZ              selected for orbital group  2
 Library entry P      P cc-pVDZ              selected for orbital group  2
 Library entry P      D cc-pVDZ              selected for orbital group  2
 Library entry H      S cc-pVDZ              selected for orbital group  6
 Library entry H      P cc-pVDZ              selected for orbital group  6


 PROGRAM * SEWARD (Integral evaluation for generally contracted gaussian basis sets)     Author: Roland Lindh, 1990

 Geometry written to block  1 of record 700


 Point group  C1  



 ATOMIC COORDINATES

 NR  ATOM    CHARGE       X              Y              Z

   1  O       8.00   -4.796507536   -0.165757705   -1.941206686
   2  P      15.00   -2.568926329   -0.150618731    0.056111978
   3  O       8.00   -2.413905538   -2.367553882    1.765331312
   4  O       8.00    0.000000000    0.000000000   -1.660761975
   5  P      15.00    2.568926329    0.150618731    0.056111978
   6  O       8.00    2.413905538    2.367553882    1.765331312
   7  O       8.00    2.823557325   -2.575380670    1.227770767
   8  O       8.00    4.796507536    0.165757705   -1.941206686
   9  O       8.00   -2.823557325    2.575380670    1.227770767
  10  H       1.00   -5.509409362   -1.849544217   -2.122806891
  11  H       1.00    1.127039747   -3.100613020    1.845180518
  12  H       1.00    5.509409362    1.849544217   -2.122806891
  13  H       1.00   -1.127039747    3.100613020    1.845180518

 Bond lengths in Bohr (Angstrom)

  1- 2  2.991927316   1-10  1.837483242   2- 3  2.803616172   2- 4  3.093497157   2- 5  5.146676010
       ( 1.583259753)       ( 0.972354257)       ( 1.483609787)       ( 1.637008197)       ( 2.723503656)

 2-9  2.978035258  4-5  3.093497157  5-6  2.803616172  5-7  2.978035258  5-8  2.991927316
     ( 1.575908392)     ( 1.637008197)     ( 1.483609787)     ( 1.575908392)     ( 1.583259753)

  7-11  1.880222251   8-12  1.837483242   9-13  1.880222251
       ( 0.994970767)       ( 0.972354257)       ( 0.994970767)

 Bond angles

  1-2-3  116.36888423   1-2-4  104.36085037   1-2-5  138.03472925   1-2-9  101.74850467

  2- 1-10  111.06790575   2- 4- 5  112.57932607   2- 5- 4   33.71033697   2- 5- 6   89.48915045

  2- 5- 7   91.82113618   2- 5- 8  138.03472925   2- 9-13  107.92352724   3- 2- 4  109.32551451

  3-2-5   89.48915045   3-2-9  119.25460546   4-2-5   33.71033697   4-2-9  104.16938271

  4-5-6  109.32551451   4-5-7  104.16938271   4-5-8  104.36085037   5-2-9   91.82113618

  5- 7-11  107.92352724   5- 8-12  111.06790575   6- 5- 7  119.25460546   6- 5- 8  116.36888423

  7-5-8  101.74850467

 NUCLEAR CHARGE:                   90
 NUMBER OF PRIMITIVE AOS:         301
 NUMBER OF SYMMETRY AOS:          292
 NUMBER OF CONTRACTIONS:          154   (  154A   )
 NUMBER OF INNER CORE ORBITALS:     2   (    2A   )
 NUMBER OF OUTER CORE ORBITALS:    15   (   15A   )
 NUMBER OF VALENCE ORBITALS:       40   (   40A   )


 NUCLEAR REPULSION ENERGY  791.44178871


 Eigenvalues of metric

         1 0.513E-02 0.966E-02 0.116E-01 0.120E-01 0.132E-01 0.133E-01 0.145E-01 0.163E-01


 Contracted 2-electron integrals neglected if value below      1.0D-11
 AO integral compression algorithm  1   Integral accuracy      1.0D-11

     237.765 MB (compressed) written to integral file ( 40.7%)


 NUMBER OF SORTED TWO-ELECTRON INTEGRALS:   71228080.     BUFFER LENGTH:  32768
 NUMBER OF SEGMENTS:   5  SEGMENT LENGTH:   15999503      RECORD LENGTH: 524288

 Memory used in sort:      16.56 MW

 SORT1 READ    72936011. AND WROTE    61346521. INTEGRALS IN    178 RECORDS. CPU TIME:     0.57 SEC, REAL TIME:     0.77 SEC
 SORT2 READ    61346521. AND WROTE    71228080. INTEGRALS IN    907 RECORDS. CPU TIME:     0.57 SEC, REAL TIME:     0.70 SEC

 FILE SIZES:   FILE 1:   268.9 MBYTE,  FILE 4:   746.7 MBYTE,   TOTAL:   1015.5 MBYTE

 OPERATOR DM      FOR CENTER  0  COORDINATES:    0.000000    0.000000    0.000000


 **********************************************************************************************************************************
 DATASETS  * FILE   NREC   LENGTH (MB)   RECORD NAMES
              1      19      231.48       500      610      700      900      950      970     1000      129      960     1100   
                                          VAR    BASINP    GEOM    SYMINP    ZMAT    AOBASIS   BASIS     P2S    ABASIS      S 
                                         1400     1410     1200     1210     1080     1600     1650     1300     1700   
                                           T        V       H0       H01     AOSYM     SMH    MOLCAS    ERIS     OPER   

 PROGRAMS   *        TOTAL       INT
 CPU TIMES  *         3.92      3.82
 REAL TIME  *         6.04 SEC
 DISK USED  *       969.04 MB
 **********************************************************************************************************************************


 Program * Restricted Hartree-Fock

 Orbital guess generated from atomic densities. Full valence occupancy:   57

 Initial occupancy:  45

 NELEC=   90   SYM=1   MS2= 0   THRE=1.0D-08   THRD=3.2D-06   THRG=3.2D-06  HFMA2=F  DIIS_START=2   DIIS_MAX=10   DIIS_INCORE=F

 Level shifts:    0.00 (CLOSED)    0.00 (OPEN)    0.30 (GAP_MIN)

 ITER           ETOT              DE          GRAD        DDIFF     DIIS  NEXP   TIME(IT)  TIME(TOT)  DIAG
   1    -1207.78908892   -1207.78908892     0.00D+00     0.12D+00     0     0       0.34      0.66    start
   2    -1207.96771361      -0.17862469     0.82D-02     0.25D-01     1     0       0.34      1.00    diag
   3    -1208.05576827      -0.08805465     0.49D-02     0.85D-02     2     0       0.35      1.35    diag
   4    -1208.05756647      -0.00179820     0.65D-03     0.14D-02     3     0       0.34      1.69    diag
   5    -1208.05784887      -0.00028240     0.25D-03     0.55D-03     4     0       0.35      2.04    diag
   6    -1208.05786531      -0.00001645     0.52D-04     0.12D-03     5     0       0.34      2.38    diag
   7    -1208.05786688      -0.00000157     0.12D-04     0.33D-04     6     0       0.34      2.72    diag
   8    -1208.05786697      -0.00000008     0.29D-05     0.80D-05     7     0       0.34      3.06    fixocc
   9    -1208.05786698      -0.00000001     0.85D-06     0.24D-05     8     0       0.34      3.40    diag
  10    -1208.05786698      -0.00000000     0.28D-06     0.66D-06     0     0       0.34      3.74    diag/orth

 Final occupancy:  45

 !RHF STATE 1.1 Energy              -1208.057866976279
  RHF One-electron energy           -3244.987603873812
  RHF Two-electron energy            1245.487948188862
  RHF Kinetic energy                 1207.411308242877
  RHF Nuclear energy                  791.441788708671
  RHF Virial quotient                  -1.000535491699

 !RHF STATE 1.1 Dipole moment           0.00000000     0.00000000    -0.96311200
 Dipole moment /Debye                   0.00000000     0.00000000    -2.44798652

 Orbital energies:

           1.1          2.1          3.1          4.1          5.1          6.1          7.1          8.1          9.1         10.1
    -80.171839   -80.171839   -20.641307   -20.638921   -20.638920   -20.619535   -20.619533   -20.553982   -20.553981    -7.691299

          11.1         12.1         13.1         14.1         15.1         16.1         17.1         18.1         19.1         20.1
     -7.691297    -5.589601    -5.589562    -5.588815    -5.588811    -5.588626    -5.588622    -1.511080    -1.468757    -1.421311

          21.1         22.1         23.1         24.1         25.1         26.1         27.1         28.1         29.1         30.1
     -1.409957    -1.401431    -1.344407    -1.333018    -0.916305    -0.868098    -0.789793    -0.759822    -0.730937    -0.728595

          31.1         32.1         33.1         34.1         35.1         36.1         37.1         38.1         39.1         40.1
     -0.703066    -0.689563    -0.682879    -0.636935    -0.619334    -0.611903    -0.596574    -0.582392    -0.561732    -0.559459

          41.1         42.1         43.1         44.1         45.1         46.1         47.1
     -0.557734    -0.501325    -0.500867    -0.498546    -0.493523     0.147723     0.163745


 HOMO     45.1    -0.493523 =     -13.4294eV
 LUMO     46.1     0.147723 =       4.0197eV
 LUMO-HOMO         0.641246 =      17.4492eV

 Orbitals saved in record  2100.2


 **********************************************************************************************************************************
 DATASETS  * FILE   NREC   LENGTH (MB)   RECORD NAMES
              1      19      231.48       500      610      700      900      950      970     1000      129      960     1100   
                                          VAR    BASINP    GEOM    SYMINP    ZMAT    AOBASIS   BASIS     P2S    ABASIS      S 
                                         1400     1410     1200     1210     1080     1600     1650     1300     1700   
                                           T        V       H0       H01     AOSYM     SMH    MOLCAS    ERIS     OPER   

              2       4        0.96       700     1000      520     2100   
                                         GEOM     BASIS   MCVARS     RHF  

 PROGRAMS   *        TOTAL    HF-SCF       INT
 CPU TIMES  *         7.66      3.74      3.82
 REAL TIME  *        10.45 SEC
 DISK USED  *       969.04 MB
 **********************************************************************************************************************************


 Program * Restricted Hartree-Fock

 Molecular orbitals read from record     2100.2  Type=RHF/CANONICAL  

 Initial occupancy:  45

 NELEC=   90   SYM=1   MS2= 0   THRE=1.0D-08   THRD=3.2D-06   THRG=3.2D-06  HFMA2=F  DIIS_START=2   DIIS_MAX=10   DIIS_INCORE=F

 Level shifts:    0.00 (CLOSED)    0.00 (OPEN)    0.30 (GAP_MIN)

 ITER           ETOT              DE          GRAD        DDIFF     DIIS  NEXP   TIME(IT)  TIME(TOT)  DIAG
   1    -1208.05786698   -1208.05786698     0.00D+00     0.12D+00     0     0       0.34      0.34    start
   2    -1208.05786698      -0.00000000     0.17D-06     0.39D-06     1     0       0.33      0.67    diag

 Final occupancy:  45

 !RHF STATE 1.1 Energy              -1208.057866976420
  RHF One-electron energy           -3244.987606339270
  RHF Two-electron energy            1245.487950654179
  RHF Kinetic energy                 1207.411292440346
  RHF Nuclear energy                  791.441788708671
  RHF Virial quotient                  -1.000535504795

 !RHF STATE 1.1 Dipole moment          -0.00000000    -0.00000000    -0.96311750
 Dipole moment /Debye                  -0.00000000    -0.00000000    -2.44800052

 Orbital energies:

           1.1          2.1          3.1          4.1          5.1          6.1          7.1          8.1          9.1         10.1
    -80.171841   -80.171841   -20.641327   -20.638901   -20.638900   -20.619540   -20.619537   -20.553987   -20.553985    -7.691300

          11.1         12.1         13.1         14.1         15.1         16.1         17.1         18.1         19.1         20.1
     -7.691299    -5.589602    -5.589563    -5.588817    -5.588812    -5.588627    -5.588623    -1.511083    -1.468754    -1.421308

          21.1         22.1         23.1         24.1         25.1         26.1         27.1         28.1         29.1         30.1
     -1.409956    -1.401434    -1.344409    -1.333020    -0.916306    -0.868096    -0.789794    -0.759823    -0.730935    -0.728595

          31.1         32.1         33.1         34.1         35.1         36.1         37.1         38.1         39.1         40.1
     -0.703066    -0.689560    -0.682882    -0.636934    -0.619337    -0.611902    -0.596570    -0.582388    -0.561733    -0.559461

          41.1         42.1         43.1         44.1         45.1         46.1         47.1
     -0.557737    -0.501326    -0.500870    -0.498547    -0.493525     0.147724     0.163747


 HOMO     45.1    -0.493525 =     -13.4295eV
 LUMO     46.1     0.147724 =       4.0198eV
 LUMO-HOMO         0.641249 =      17.4493eV

 Orbitals saved in record  2101.2


 **********************************************************************************************************************************
 DATASETS  * FILE   NREC   LENGTH (MB)   RECORD NAMES
              1      19      231.48       500      610      700      900      950      970     1000      129      960     1100   
                                          VAR    BASINP    GEOM    SYMINP    ZMAT    AOBASIS   BASIS     P2S    ABASIS      S 
                                         1400     1410     1200     1210     1080     1600     1650     1300     1700   
                                           T        V       H0       H01     AOSYM     SMH    MOLCAS    ERIS     OPER   

              2       5        1.70       700     1000      520     2100     2101   
                                         GEOM     BASIS   MCVARS     RHF      RHF  

 PROGRAMS   *        TOTAL    HF-SCF    HF-SCF       INT
 CPU TIMES  *         8.34      0.68      3.74      3.82
 REAL TIME  *        11.41 SEC
 DISK USED  *       969.04 MB
 **********************************************************************************************************************************


 PROGRAM * PAPT (Closed-shell)     Authors: C. Hampel, H.-J. Werner, 1991, P.J. Knowles, 2021


 Convergence thresholds:  THRVAR = 1.00D-08  THRDEN = 1.00D-06

 Number of core orbitals:          17 (  17 )
 Number of closed-shell orbitals:  28 (  28 )
 Number of external orbitals:     109 ( 109 )

 Molecular orbitals read from record     2101.2  Type=RHF/CANONICAL  

 Number of N-1 electron functions:              28
 Number of N-2 electron functions:             406
 Number of singly external CSFs:              3052
 Number of doubly external CSFs:           4658878
 Total number of CSFs:                     4661931

 Length of J-op  integral file:               0.00 MB
 Length of K-op  integral file:               1.69 MB

 Integral transformation finished. Total CPU:   1.60 sec, npass=  1  Memory used:  15.85 MW

 Reference energy:                  -1208.05786698

                        CORR.ENERGY   TOTAL ENERGY   ENERGY CHANGE
 MP2:                   -1.52898203 -1209.58684901    -1.52898203

 SCS-MP2 correlation energy:           -1.46809733   (PS=  1.200000  PT=  0.333333)
 SCS-MP2 total energy:              -1209.52596431
 Iteration:   1     0.2781D+00
 Iteration:   2     0.5086D+00
 Iteration:   3     0.1122D+00
 Iteration:   4     0.5881D-01
 Iteration:   5     0.6213D-01
 Iteration:   6     0.1023D-01
 Iteration:   7     0.1278D-01
 Iteration:   8     0.7482D-02
 Iteration:   9     0.3484D-02
 Iteration:  10     0.2310D-01
 Iteration:  11     0.1162D-02
 Iteration:  12     0.1911D-02
 Iteration:  13     0.8203D-03
 Iteration:  14     0.4514D-03
 Iteration:  15     0.9528D-03
 Iteration:  16     0.1704D-03
 Iteration:  17     0.3480D-03
 Iteration:  18     0.8871D-04
 PAPT operator written to  7000.1
 PAPT orbitals and eigenvalues written to  7000.2

 MP3(D):                -1.52456941 -1209.58243639     0.00441262



 RESULTS
 =======

  Reference energy                  -1208.057866976416
  MP3 singlet pair energy              -0.955886828222
  MP3 triplet pair energy              -0.568682585096
  MP3 correlation energy               -1.524569413318

 !MP3 total energy                  -1209.582436389734

 Timing summary (sec):

 STEP                 CPU(USER)    SYS     CPU(TOT)    WALL
 Transformation          1.78      0.14      1.92      2.10
 CCSD iterations        38.41      0.57     38.98     33.03

 Program statistics:

 Available memory in ccsd:               393212819
 Min. memory needed in ccsd:              12116345
 Max. memory used in ccsd:                16279035
 Max. memory used in cckext:              19795419 ( 1 integral passes)



 **********************************************************************************************************************************
 DATASETS  * FILE   NREC   LENGTH (MB)   RECORD NAMES
              1      21      342.37       500      610      700      900      950      970     1000      129      960     1100   
                                          VAR    BASINP    GEOM    SYMINP    ZMAT    AOBASIS   BASIS     P2S    ABASIS      S 
                                         1400     1410     1200     1210     1080     1600     1650     1300     1700     1380   
                                           T        V       H0       H01     AOSYM     SMH    MOLCAS    ERIS     OPER     JKOP   
                                         7000   
                                        PAPT AO    

              2       6        2.35       700     1000      520     2100     2101     7000   
                                         GEOM     BASIS   MCVARS     RHF      RHF     PAPT   

 PROGRAMS   *        TOTAL      PAPT    HF-SCF    HF-SCF       INT
 CPU TIMES  *        40.10     31.75      0.68      3.74      3.82
 REAL TIME  *        46.81 SEC
 DISK USED  *       969.04 MB
 **********************************************************************************************************************************


 PROGRAM * MP2 (Closed-shell)     Authors: C. Hampel, H.-J. Werner, 1991, M. Deegan, P.J. Knowles, 1992


 Convergence thresholds:  THRVAR = 1.00D-08  THRDEN = 1.00D-06

 Number of core orbitals:          17 (  17 )
 Number of closed-shell orbitals:  28 (  28 )
 Number of external orbitals:     109 ( 109 )

 Molecular orbitals read from record     7000.2  Type=PAPT/CANONICAL (state 1.1)

 Number of N-1 electron functions:              28
 Number of N-2 electron functions:             406
 Number of singly external CSFs:              3052
 Number of doubly external CSFs:           4658878
 Total number of CSFs:                     4661931

 Length of J-op  integral file:               0.00 MB
 Length of K-op  integral file:               1.69 MB

 Integral transformation finished. Total CPU:   1.81 sec, npass=  1  Memory used:  15.85 MW
 Orbital energies read from record       7000.2  Type=PAPT/CANONICAL (state 1.1)

 Memory needed for MP2:                      0.11 MW

 SCS-MP2 correlation energy:           -1.474195170107   (PS=  1.200000  PT=  0.333333)
 SCS-MP2 total energy:              -1209.532062146525


  Reference energy                  -1208.057866976417
  MP2 singlet pair energy              -0.901717488867
  MP2 triplet pair energy              -0.630215652001
  MP2 correlation energy               -1.531933140868

 !MP2 total energy                  -1209.589800117285


 **********************************************************************************************************************************
 DATASETS  * FILE   NREC   LENGTH (MB)   RECORD NAMES
              1      21      342.37       500      610      700      900      950      970     1000      129      960     1100   
                                          VAR    BASINP    GEOM    SYMINP    ZMAT    AOBASIS   BASIS     P2S    ABASIS      S 
                                         1400     1410     1200     1210     1080     1600     1650     1300     1700     1380   
                                           T        V       H0       H01     AOSYM     SMH    MOLCAS    ERIS     OPER     JKOP   
                                         7000   
                                        PAPT AO    

              2       6        2.35       700     1000      520     2100     2101     7000   
                                         GEOM     BASIS   MCVARS     RHF      RHF     PAPT   

 PROGRAMS   *        TOTAL       MP2      PAPT    HF-SCF    HF-SCF       INT
 CPU TIMES  *        42.70      2.60     31.75      0.68      3.74      3.82
 REAL TIME  *        50.32 SEC
 DISK USED  *       969.04 MB
 **********************************************************************************************************************************

 Dump information in style XML to xml output                                                                      

 Orbitals will not be exported.

 **********************************************************************************************************************************

 MP2/cc-pVDZ energy=  -1209.589800117285

             MP2            PAPT          HF-SCF          HF-SCF
  -1209.58980012  -1209.58243639  -1208.05786698  -1208.05786698
 **********************************************************************************************************************************
 Molpro calculation terminated
