
 Working directory              : /var/folders/2v/xbgp75_9785319ghcgb4zr4r0000gp/T//molpro.0HBzOTWrCo/
 Global scratch directory       : /var/folders/2v/xbgp75_9785319ghcgb4zr4r0000gp/T//molpro.0HBzOTWrCo/
 Wavefunction directory         : /Users/sacpjk/wfu/
 Main file repository           : /var/folders/2v/xbgp75_9785319ghcgb4zr4r0000gp/T//molpro.0HBzOTWrCo/

 id        : peterk

 Nodes                        nprocs
 Cardiff-University-G34YLXT77Y    1
 GA implementation: MPI file
 GA implementation (serial work in mppx): MPI file

 Using customized tuning parameters: mindgm=1; mindgv=20; mindgc=4; mindgr=1; noblas=0; minvec=7
 default implementation of scratch files=df  


 Variables initialized (1037), CPU time= 0.00 sec
 
 symmetry,nosym
 
 
 geometry={
 15
  o         -3.259503661192    0.443859510660    0.161591013800
  h         -3.778946059172    1.242390287414    0.263168462579
  h         -2.342581388459    0.760093553597    0.176031052799
  c         -0.669779996624   -1.416825242411   -0.144793561968
  h         -0.019817153222   -2.277937119598   -0.277708949315
  h         -1.350755966425   -1.339353183636   -0.988658837180
  h         -1.282796894237   -1.555621229409    0.742214800819
  c          0.084952081525   -0.118812365198   -0.012200055149
  o         -0.491763365271    0.956482490340    0.144388687027
  n          1.435585204479   -0.216315049678   -0.076818023901
  h          1.836536832298   -1.126849028520   -0.206333121983
  c          2.303827316456    0.935655410542    0.032625057766
  h          1.667333186575    1.803955853727    0.167409664787
  h          2.969416823803    0.844200212342    0.888717939052
  h          2.898293039360    1.065075899669   -0.869634129292
 }
 basis=aug-cc-pVTZ
 
 
 
 hf; ccsd(t); counterpoise
 
 
 
 {put,xml;noorbitals,nobasis}
 Commands initialized (841), CPU time= 0.00 sec, 716 directives.
 Default parameters read. Elapsed time= 0.08 sec

 Checking input...
 Passed
1


                                         ***  PROGRAM SYSTEM MOLPRO  ***
                                       Copyright, TTI GmbH Stuttgart, 2015
                                    Version 2023.1 linked Fri Jul 14 07:57:55 2023


 **********************************************************************************************************************************
 LABEL *                                                                                                                                                                 
  64 bit serial version                                                                  DATE: 14-Jul-23          TIME: 23:06:07  
 **********************************************************************************************************************************

 SHA1:             8f90ea6339eadc8ec4622dc21e4296b0c92029f5
 **********************************************************************************************************************************

 Memory per process:      1573 MW
 Total memory per node:   2097 MW
 Total GA space:           524 MW

 GA preallocation disabled
 GA check enabled

 Variable memory set to 1572.9 MW

 ZSYMEL=NOSYM


 Geometry recognized as XYZ

 SETTING BASIS          =    AUG-CC-PVTZ


 Recomputing integrals since basis changed


 Using spherical harmonics

 Library entry O      S aug-cc-pVTZ          selected for orbital group  1
 Library entry O      P aug-cc-pVTZ          selected for orbital group  1
 Library entry O      D aug-cc-pVTZ          selected for orbital group  1
 Library entry O      F aug-cc-pVTZ          selected for orbital group  1
 Library entry H      S aug-cc-pVTZ          selected for orbital group  2
 Library entry H      P aug-cc-pVTZ          selected for orbital group  2
 Library entry H      D aug-cc-pVTZ          selected for orbital group  2
 Library entry C      S aug-cc-pVTZ          selected for orbital group  3
 Library entry C      P aug-cc-pVTZ          selected for orbital group  3
 Library entry C      D aug-cc-pVTZ          selected for orbital group  3
 Library entry C      F aug-cc-pVTZ          selected for orbital group  3
 Library entry N      S aug-cc-pVTZ          selected for orbital group  7
 Library entry N      P aug-cc-pVTZ          selected for orbital group  7
 Library entry N      D aug-cc-pVTZ          selected for orbital group  7
 Library entry N      F aug-cc-pVTZ          selected for orbital group  7


 PROGRAM * SEWARD (Integral evaluation for generally contracted gaussian basis sets)     Author: Roland Lindh, 1990

 Geometry written to block  1 of record 700


 Point group  C1  



 ATOMIC COORDINATES

 NR  ATOM    CHARGE       X              Y              Z

   1  O       8.00   -6.159569222    0.838772913    0.305362760
   2  H       1.00   -7.141173092    2.347777383    0.497316319
   3  H       1.00   -4.426837249    1.436368645    0.332650479
   4  C       6.00   -1.265700757   -2.677411675   -0.273620177
   5  H       1.00   -0.037448992   -4.304677285   -0.524793857
   6  H       1.00   -2.552558838   -2.531010701   -1.868294433
   7  H       1.00   -2.424134804   -2.939698077    1.402582699
   8  C       6.00    0.160536168   -0.224522830   -0.023054763
   9  O       8.00   -0.929298078    1.807489950    0.272855074
  10  N       7.00    2.712862865   -0.408776201   -0.145165027
  11  H       1.00    3.470551631   -2.129436048   -0.389913091
  12  C       6.00    4.353602667    1.768132473    0.061652424
  13  H       1.00    3.150803081    3.408982504    0.316358417
  14  H       1.00    5.611384547    1.595307196    1.679433507
  15  H       1.00    5.476980073    2.012701752   -1.643370333

 Bond lengths in Bohr (Angstrom)

 1-2  1.810383058  1-3  1.833091751  4-5  2.054186940  4-6  2.054366800  4-7  2.054366004
     ( 0.958013457)     ( 0.970030380)     ( 1.087028915)     ( 1.087124093)     ( 1.087123672)

  4- 8  2.848437901   8- 9  2.324731652   8-10  2.561880518  10-11  1.895959965  10-12  2.733812709
       ( 1.507328424)       ( 1.230195012)       ( 1.355688787)       ( 1.003298806)       ( 1.446671384)

 12-13  2.050363580  12-14  2.056477441  12-15  2.056427371
       ( 1.085005681)       ( 1.088240997)       ( 1.088214501)

 Bond angles

  2- 1- 3  103.83995269   4- 8- 9  121.94937241   4- 8-10  115.63995729   5- 4- 6  109.63827190

  5-4-7  109.62066912   5-4-8  113.17461220   6-4-7  106.81163439   6-4-8  108.69676200

  7- 4- 8  108.69400884   8-10-11  118.00621069   8-10-12  122.48312985   9- 8-10  122.41067020

 10-12-13  107.13197896  10-12-14  111.07971118  10-12-15  111.09000569  11-10-12  119.51064217

 13-12-14  109.16700179  13-12-15  109.16453086  14-12-15  109.15526956

 NUCLEAR CHARGE:                   50
 NUMBER OF PRIMITIVE AOS:         645
 NUMBER OF SYMMETRY AOS:          573
 NUMBER OF CONTRACTIONS:          483   (  483A   )
 NUMBER OF INNER CORE ORBITALS:     0   (    0A   )
 NUMBER OF OUTER CORE ORBITALS:     6   (    6A   )
 NUMBER OF VALENCE ORBITALS:       33   (   33A   )


 NUCLEAR REPULSION ENERGY  246.86074335


 Eigenvalues of metric

         1 0.668E-05 0.104E-04 0.145E-04 0.211E-04 0.220E-04 0.310E-04 0.382E-04 0.466E-04


 Contracted 2-electron integrals neglected if value below      1.0D-12
 AO integral compression algorithm  1   Integral accuracy      1.0D-12

     25146.425 MB (compressed) written to integral file ( 42.9%)


 NUMBER OF SORTED TWO-ELECTRON INTEGRALS: 6831226941.     BUFFER LENGTH:  32768
 NUMBER OF SEGMENTS: 143  SEGMENT LENGTH:   47999545      RECORD LENGTH: 262144

 Memory used in sort:      48.29 MW

 SORT1 READ  7321854864. AND WROTE  5833489072. INTEGRALS IN  33449 RECORDS. CPU TIME:    50.91 SEC, REAL TIME:    67.51 SEC
 SORT2 READ  5833489072. AND WROTE  6831226941. INTEGRALS IN  95926 RECORDS. CPU TIME:    29.78 SEC, REAL TIME:    75.80 SEC

 FILE SIZES:   FILE 1: 25185.2 MBYTE,  FILE 4: 70147.7 MBYTE,   TOTAL:  95332.9 MBYTE

 OPERATOR DM      FOR CENTER  0  COORDINATES:    0.000000    0.000000    0.000000


 **********************************************************************************************************************************
 DATASETS  * FILE   NREC   LENGTH (MB)   RECORD NAMES
              1      19    22446.02       500      610      700      900      950      970     1000      129      960     1100   
                                          VAR    BASINP    GEOM    SYMINP    ZMAT    AOBASIS   BASIS     P2S    ABASIS      S 
                                         1400     1410     1200     1210     1080     1600     1650     1300     1700   
                                           T        V       H0       H01     AOSYM     SMH    MOLCAS    ERIS     OPER   

 PROGRAMS   *        TOTAL       INT
 CPU TIMES  *       191.83    191.75
 REAL TIME  *       276.14 SEC
 DISK USED  *        88.79 GB
 **********************************************************************************************************************************


 Program * Restricted Hartree-Fock

 Orbital guess generated from atomic densities. Full valence occupancy:   39

 Initial occupancy:  25

 NELEC=   50   SYM=1   MS2= 0   THRE=1.0D-08   THRD=3.2D-06   THRG=3.2D-06  HFMA2=F  DIIS_START=2   DIIS_MAX=10   DIIS_INCORE=F

 Level shifts:    0.00 (CLOSED)    0.00 (OPEN)    0.30 (GAP_MIN)

 ITER           ETOT              DE          GRAD        DDIFF     DIIS  NEXP   TIME(IT)  TIME(TOT)  DIAG
   1     -323.03167971    -323.03167971     0.00D+00     0.29D-01     0     0      24.36     46.63    start
   2     -323.12530464      -0.09362493     0.35D-02     0.43D-02     1     0      24.12     70.75    diag
   3     -323.16895750      -0.04365286     0.24D-02     0.16D-02     2     0      24.05     94.80    diag
   4     -323.17142862      -0.00247112     0.40D-03     0.46D-03     3     0      23.92    118.72    diag
   5     -323.17177192      -0.00034331     0.15D-03     0.17D-03     4     0      23.81    142.53    diag
   6     -323.17182363      -0.00005171     0.48D-04     0.66D-04     5     0      23.71    166.24    diag
   7     -323.17183198      -0.00000834     0.17D-04     0.27D-04     6     0      23.98    190.22    diag
   8     -323.17183320      -0.00000122     0.63D-05     0.93D-05     7     0      23.67    213.89    fixocc
   9     -323.17183338      -0.00000018     0.22D-05     0.42D-05     8     0      23.74    237.63    diag
  10     -323.17183340      -0.00000001     0.66D-06     0.12D-05     9     0      23.86    261.49    diag/orth
  11     -323.17183340      -0.00000000     0.26D-06     0.34D-06     9     0      23.71    285.20    diag
  12     -323.17183340      -0.00000000     0.73D-07     0.11D-06     0     0      24.29    309.49    diag

 Final occupancy:  25

 !RHF STATE 1.1 Energy               -323.171833398435
  RHF One-electron energy            -930.929419082237
  RHF Two-electron energy             360.896842333428
  RHF Kinetic energy                  322.740440411795
  RHF Nuclear energy                  246.860743350374
  RHF Virial quotient                  -1.001336656126

 !RHF STATE 1.1 Dipole moment           1.57966929    -0.60280062    -0.13982547
 Dipole moment /Debye                   4.01511885    -1.53216636    -0.35540090

 Orbital energies:

           1.1          2.1          3.1          4.1          5.1          6.1          7.1          8.1          9.1         10.1
    -20.525717   -20.522465   -15.597849   -11.360752   -11.263801   -11.235763    -1.389391    -1.309634    -1.242360    -1.025334

          11.1         12.1         13.1         14.1         15.1         16.1         17.1         18.1         19.1         20.1
     -0.940146    -0.802943    -0.699290    -0.679887    -0.665136    -0.641892    -0.591667    -0.591379    -0.563585    -0.552556

          21.1         22.1         23.1         24.1         25.1         26.1         27.1
     -0.541575    -0.514073    -0.469352    -0.436571    -0.404748     0.020857     0.034429


 HOMO     25.1    -0.404748 =     -11.0138eV
 LUMO     26.1     0.020857 =       0.5676eV
 LUMO-HOMO         0.425606 =      11.5813eV

 Orbitals saved in record  2100.2


 **********************************************************************************************************************************
 DATASETS  * FILE   NREC   LENGTH (MB)   RECORD NAMES
              1      19    22446.02       500      610      700      900      950      970     1000      129      960     1100   
                                          VAR    BASINP    GEOM    SYMINP    ZMAT    AOBASIS   BASIS     P2S    ABASIS      S 
                                         1400     1410     1200     1210     1080     1600     1650     1300     1700   
                                           T        V       H0       H01     AOSYM     SMH    MOLCAS    ERIS     OPER   

              2       4        4.25       700     1000      520     2100   
                                         GEOM     BASIS   MCVARS     RHF  

 PROGRAMS   *        TOTAL    HF-SCF       INT
 CPU TIMES  *       501.32    309.49    191.75
 REAL TIME  *       623.88 SEC
 DISK USED  *        88.79 GB
 **********************************************************************************************************************************


 PROGRAM * CCSD (Closed-shell coupled cluster)     Authors: C. Hampel, H.-J. Werner, 1991, M. Deegan, P.J. Knowles, 1992


 Convergence thresholds:  THRVAR = 1.00D-08  THRDEN = 1.00D-06

 CCSD(T)     terms to be evaluated (factor= 1.000)


 Number of core orbitals:           6 (   6 )
 Number of closed-shell orbitals:  19 (  19 )
 Number of external orbitals:     458 ( 458 )

 Molecular orbitals read from record     2100.2  Type=RHF/CANONICAL  

 Number of N-1 electron functions:              19
 Number of N-2 electron functions:             190
 Number of singly external CSFs:              8702
 Number of doubly external CSFs:          37866753
 Total number of CSFs:                    37875456

 Length of J-op  integral file:               0.00 MB
 Length of K-op  integral file:              16.08 MB
 Length of 3-ext integral record:             0.00 MB

 For full I/O caching in triples, increase memory by 583.71 Mwords to 2156.63 Mwords.

 Integral transformation finished. Total CPU: 153.71 sec, npass=  1  Memory used:1206.07 MW

 Reference energy:                   -323.17183340

 MP2 singlet pair energy:              -0.79068396
 MP2 triplet pair energy:              -0.45019851
 MP2 correlation energy:               -1.24088248
 MP2 total energy:                   -324.41271588

 SCS-MP2 correlation energy:           -1.22894428   (PS=  1.200000  PT=  0.333333)
 SCS-MP2 total energy:               -324.40077767

 ITER.      SQ.NORM     CORR.ENERGY   TOTAL ENERGY   ENERGY CHANGE        DEN1      VAR(S)    VAR(P)  DIIS     TIME  TIME/IT
   1      1.34430955    -1.27214718  -324.44398058    -0.03126470     0.00137949  0.71D-02  0.61D-02  1  1   885.16   190.94
   2      1.36770294    -1.27374408  -324.44557748    -0.00159691    -0.02748050  0.13D-03  0.88D-03  2  2  1122.62   196.91
   3      1.37720243    -1.27413848  -324.44597188    -0.00039440    -0.00503670  0.15D-03  0.44D-04  3  3  1361.99   199.75
   4      1.38071358    -1.27398298  -324.44581638     0.00015550    -0.00147133  0.16D-04  0.74D-05  4  4  1594.29   198.71
   5      1.38225425    -1.27397658  -324.44580998     0.00000640    -0.00037305  0.30D-05  0.79D-06  5  5  1826.16   197.83
   6      1.38269315    -1.27394303  -324.44577643     0.00003355    -0.00005931  0.37D-06  0.13D-06  6  6  2055.47   196.85
   7      1.38281520    -1.27393395  -324.44576735     0.00000908    -0.00001186  0.38D-07  0.25D-07  6  2  2286.20   196.42
   8      1.38282681    -1.27393393  -324.44576732     0.00000003     0.00000263  0.12D-07  0.60D-08  6  6  2516.38   196.10
   9      1.38284144    -1.27393284  -324.44576624     0.00000108    -0.00000075  0.14D-08  0.49D-09  6  1  2746.36   195.88
  10      1.38284191    -1.27393298  -324.44576638    -0.00000014     0.00000076  0.25D-09  0.92D-10  6  4  2977.25   195.71
  11      1.38284141    -1.27393311  -324.44576651    -0.00000013    -0.00000013  0.54D-10  0.15D-10  6  3  3206.86   195.41

 Norm of t1 vector:      0.11800812      S-energy:    -0.00000006      T1 diagnostic:  0.01353646
                                                                       D1 diagnostic:  0.05771819
                                                                       D2 diagnostic:  0.15595994 (internal)

   CPU time for triples:   2124.67 sec for i =  1 - 12 / 19 (~  26.8 % done)
   CPU time for triples:   1886.98 sec for i = 13 - 15 / 19 (~  50.7 % done)
   CPU time for triples:   2755.66 sec for i = 16 - 18 / 19 (~  85.6 % done)
   CPU time for triples:   1139.84 sec for i = 19 - 19 / 19 (  100.0 % done)

 Total CPU time for triples:   7907.15 sec


 RESULTS
 =======

  Reference energy                   -323.171833398436
  CCSD singlet pair energy             -0.867647634276
  CCSD triplet pair energy             -0.406285417349
  CCSD correlation energy              -1.273933113117

  Triples (T) contribution             -0.052715966954
  Total correlation energy             -1.326649080071

  CCSD total energy                  -324.445766511553
  CCSD[T] energy                     -324.500797362605
  CCSD-T energy                      -324.497542068585
 !CCSD(T) total energy               -324.498482478508

 Timing summary (sec):

 STEP                 CPU(USER)    SYS     CPU(TOT)    WALL
 Transformation        155.49     21.24    176.73    170.24
 CCSD iterations      3052.54    130.27   3182.81   2150.70
 Triples              7907.15    181.76   8088.91   6824.48

 Program statistics:

 Available memory in ccsd:              1572862531
 Min. memory needed in ccsd:              88598334
 Max. memory used in ccsd:               124029705
 Max. memory used in cckext:              90838442 (11 integral passes)



 **********************************************************************************************************************************
 DATASETS  * FILE   NREC   LENGTH (MB)   RECORD NAMES
              1      20    29935.62       500      610      700      900      950      970     1000      129      960     1100   
                                          VAR    BASINP    GEOM    SYMINP    ZMAT    AOBASIS   BASIS     P2S    ABASIS      S 
                                         1400     1410     1200     1210     1080     1600     1650     1300     1700     1380   
                                           T        V       H0       H01     AOSYM     SMH    MOLCAS    ERIS     OPER     JKOP   

              2       4        4.25       700     1000      520     2100   
                                         GEOM     BASIS   MCVARS     RHF  

 PROGRAMS   *        TOTAL   CCSD(T)    HF-SCF       INT
 CPU TIMES  *     11115.11  10613.79    309.49    191.75
 REAL TIME  *      9769.54 SEC
 DISK USED  *        88.79 GB
 **********************************************************************************************************************************

 Counterpoise: absolute minimum monomer separation=    -1.000 Bragg radius scale factor=     1.400 Number of monomers= 2

 Counterpoise  CCSD(T)  energy

 Running default procedure: HF-SCF000  CCSD(T)

 Assignment of unique atoms to monomers:
1-15     1     1     1     2     2     2     2     2     2     2     2     2     2     2     2

 *** Long output written to logfile /Users/sacpjk/current/PAPT/S66/0b5ab42b/04.molpro/run/1.molpro/1.log ***


 Description                       ENERGY          ENERGR          ENERGC
 Raw                        -324.49848248   -323.17183340   -324.44576651
 Dimer basis, monomer 1      -76.34276857    -76.06004984    -76.33403865
 Dimer basis, monomer 2     -248.14328370   -247.10261078   -248.09990471
 Monomer basis, monomer 1    -76.34224457    -76.05996486    -76.33354695
 Monomer basis, monomer 2   -248.14269858   -247.10252881   -248.09935737
 Counterpoise correction       0.00110912      0.00016695      0.00103903
 Counterpoise corrected     -324.49737336   -323.17166645   -324.44472748


 **********************************************************************************************************************************
 DATASETS  * FILE   NREC   LENGTH (MB)   RECORD NAMES
              1      19    22446.02       500      610      700      900      950      970     1000      129      960     1100   
                                          VAR    BASINP    GEOM    SYMINP    ZMAT    AOBASIS   BASIS     P2S    ABASIS      S 
                                         1400     1410     1200     1210     1080     1600     1650     1300     1700   
                                           T        V       H0       H01     AOSYM     SMH    MOLCAS    ERIS     OPER   

              2      12       23.27       700     1000      520     2100     2101     2102      701     1001     2103      702   
                                         GEOM     BASIS   MCVARS     RHF      RHF      RHF     GEOM     BASIS     RHF     GEOM   
                                         1002     2104   
                                         BASIS     RHF  

 PROGRAMS   *        TOTALCOUNTERPOI    HF-SCF       INT   CCSD(T)    HF-SCF       INT   CCSD(T)    HF-SCF       INT   CCSD(T)
 CPU TIMES  *     20475.12   2766.30    129.32     84.04      0.87      0.41      0.36   5468.99    304.76      0.10    371.02
 REAL TIME  *     18356.71 SEC
 DISK USED  *        88.81 GB
 **********************************************************************************************************************************

 Dump information in style XML to xml output                                                                      

 Orbitals will not be exported.

 **********************************************************************************************************************************

 CCSD(T)/aug-cc-pVTZ energy=   -324.497373362446

         CCSD(T)          HF-SCF         CCSD(T)          HF-SCF         CCSD(T)          HF-SCF         CCSD(T)          HF-SCF
   -248.14269858   -247.10252881    -76.34224457    -76.05996486   -248.14328370   -247.10261078    -76.34276857    -76.06004984
 **********************************************************************************************************************************
 Molpro calculation terminated
