
 Working directory              : /var/folders/2v/xbgp75_9785319ghcgb4zr4r0000gp/T//molpro.LpnlGjO9vk/
 Global scratch directory       : /var/folders/2v/xbgp75_9785319ghcgb4zr4r0000gp/T//molpro.LpnlGjO9vk/
 Wavefunction directory         : /Users/sacpjk/wfu/
 Main file repository           : /var/folders/2v/xbgp75_9785319ghcgb4zr4r0000gp/T//molpro.LpnlGjO9vk/

 id        : peterk

 Nodes                        nprocs
 Cardiff-University-G34YLXT77Y    1
 GA implementation: MPI file
 GA implementation (serial work in mppx): MPI file

 Using customized tuning parameters: mindgm=1; mindgv=20; mindgc=4; mindgr=1; noblas=0; minvec=7
 default implementation of scratch files=df  


 Variables initialized (1032), CPU time= 0.00 sec
 
 symmetry,nosym
 
 
 geometry={
            6
     C         -0.13926933      0.33472048      0.00000000
     O         -0.13926933     -1.08341104      0.00000000
     H         -1.17980283      0.64759124      0.00000000
     H          0.76774408     -1.38539133      0.00000000
     H          0.34529870      0.74324532      0.88954166
     H          0.34529870      0.74324532     -0.88954166
 }
 basis=cc-pVTZ
 
 
 
 hf; hf; papt; mp3
 
 
 
 {put,xml;noorbitals,nobasis}
 Commands initialized (841), CPU time= 0.00 sec, 704 directives.
 Default parameters read. Elapsed time= 0.90 sec

 Checking input...
 Passed
1


                                         ***  PROGRAM SYSTEM MOLPRO  ***
                                       Copyright, TTI GmbH Stuttgart, 2015
                                    Version 2023.1 linked Tue Jun  6 09:54:11 2023


 **********************************************************************************************************************************
 LABEL *                                                                                                                                                                 
  64 bit serial version                                                                  DATE: 09-Jun-23          TIME: 15:37:15  
 **********************************************************************************************************************************

 SHA1:             8ebb0dd001088a5c915591db1a321413035db0b1
 **********************************************************************************************************************************

 Memory per process:       805 MW
 Total memory per node:   1074 MW
 Total GA space:           268 MW

 GA preallocation disabled
 GA check enabled

 Variable memory set to 805.3 MW

 ZSYMEL=NOSYM


 Geometry recognized as XYZ

 SETTING BASIS          =    CC-PVTZ


 Recomputing integrals since basis changed


 Using spherical harmonics

 Library entry C      S cc-pVTZ              selected for orbital group  1
 Library entry C      P cc-pVTZ              selected for orbital group  1
 Library entry C      D cc-pVTZ              selected for orbital group  1
 Library entry C      F cc-pVTZ              selected for orbital group  1
 Library entry O      S cc-pVTZ              selected for orbital group  2
 Library entry O      P cc-pVTZ              selected for orbital group  2
 Library entry O      D cc-pVTZ              selected for orbital group  2
 Library entry O      F cc-pVTZ              selected for orbital group  2
 Library entry H      S cc-pVTZ              selected for orbital group  3
 Library entry H      P cc-pVTZ              selected for orbital group  3
 Library entry H      D cc-pVTZ              selected for orbital group  3


 PROGRAM * SEWARD (Integral evaluation for generally contracted gaussian basis sets)     Author: Roland Lindh, 1990

 Geometry written to block  1 of record 700


 Point group  C1  



 ATOMIC COORDINATES

 NR  ATOM    CHARGE       X              Y              Z

   1  C       6.00   -0.263180891    0.632530036    0.000000000
   2  O       8.00   -0.263180891   -2.047350146    0.000000000
   3  H       1.00   -2.229504230    1.223770084    0.000000000
   4  H       1.00    1.450826045   -2.618010189    0.000000000
   5  H       1.00    0.652519974    1.404530098    1.680990114
   6  H       1.00    0.652519974    1.404530098   -1.680990114

 Bond lengths in Bohr (Angstrom)

 1-2  2.679880181  1-3  2.053288160  1-5  2.064030023  1-6  2.064030023  2-4  1.806508417
     ( 1.418131520)     ( 1.086553302)     ( 1.092237651)     ( 1.092237651)     ( 0.955963086)

 Bond angles

  1-2-4  108.41462081   2-1-3  106.73514063   2-1-5  111.96410162   2-1-6  111.96410162

  3-1-5  108.49107784   3-1-6  108.49107784   5-1-6  109.06037247

 NUCLEAR CHARGE:                   18
 NUMBER OF PRIMITIVE AOS:         162
 NUMBER OF SYMMETRY AOS:          148
 NUMBER OF CONTRACTIONS:          116   (  116A   )
 NUMBER OF INNER CORE ORBITALS:     0   (    0A   )
 NUMBER OF OUTER CORE ORBITALS:     2   (    2A   )
 NUMBER OF VALENCE ORBITALS:       12   (   12A   )


 NUCLEAR REPULSION ENERGY   40.39336013


 Eigenvalues of metric

         1 0.132E-02 0.180E-02 0.190E-02 0.232E-02 0.328E-02 0.458E-02 0.725E-02 0.996E-02


 Contracted 2-electron integrals neglected if value below      1.0D-11
 AO integral compression algorithm  1   Integral accuracy      1.0D-11

     92.275 MB (compressed) written to integral file ( 43.3%)


 NUMBER OF SORTED TWO-ELECTRON INTEGRALS:   23028291.     BUFFER LENGTH:  32768
 NUMBER OF SEGMENTS:   2  SEGMENT LENGTH:   15997996      RECORD LENGTH: 524288

 Memory used in sort:      16.56 MW

 SORT1 READ    26629611. AND WROTE    18694319. INTEGRALS IN     54 RECORDS. CPU TIME:     0.15 SEC, REAL TIME:     0.21 SEC
 SORT2 READ    18694319. AND WROTE    23028291. INTEGRALS IN    352 RECORDS. CPU TIME:     0.19 SEC, REAL TIME:     0.24 SEC

 FILE SIZES:   FILE 1:   122.9 MBYTE,  FILE 4:   226.6 MBYTE,   TOTAL:    349.4 MBYTE

 OPERATOR DM      FOR CENTER  0  COORDINATES:    0.000000    0.000000    0.000000


 **********************************************************************************************************************************
 DATASETS  * FILE   NREC   LENGTH (MB)   RECORD NAMES
              1      19      107.13       500      610      700      900      950      970     1000      129      960     1100   
                                          VAR    BASINP    GEOM    SYMINP    ZMAT    AOBASIS   BASIS     P2S    ABASIS      S 
                                         1400     1410     1200     1210     1080     1600     1650     1300     1700   
                                           T        V       H0       H01     AOSYM     SMH    MOLCAS    ERIS     OPER   

 PROGRAMS   *        TOTAL       INT
 CPU TIMES  *         1.08      0.99
 REAL TIME  *         2.93 SEC
 DISK USED  *       333.65 MB
 **********************************************************************************************************************************


 Program * Restricted Hartree-Fock

 Orbital guess generated from atomic densities. Full valence occupancy:   14

 Initial occupancy:   9

 NELEC=   18   SYM=1   MS2= 0   THRE=1.0D-08   THRD=3.2D-06   THRG=3.2D-06  HFMA2=F  DIIS_START=2   DIIS_MAX=10   DIIS_INCORE=F

 Level shifts:    0.00 (CLOSED)    0.00 (OPEN)    0.30 (GAP_MIN)

 ITER           ETOT              DE          GRAD        DDIFF     DIIS  NEXP   TIME(IT)  TIME(TOT)  DIAG
   1     -115.05367149    -115.05367149     0.00D+00     0.71D-01     0     0       0.10      0.18    start
   2     -115.08195454      -0.02828304     0.63D-02     0.79D-02     1     0       0.09      0.27    diag
   3     -115.08897280      -0.00701827     0.34D-02     0.26D-02     2     0       0.09      0.36    diag
   4     -115.08947535      -0.00050255     0.66D-03     0.69D-03     3     0       0.10      0.46    diag
   5     -115.08950547      -0.00003012     0.13D-03     0.18D-03     4     0       0.09      0.55    diag
   6     -115.08950678      -0.00000131     0.24D-04     0.48D-04     5     0       0.10      0.65    diag
   7     -115.08950683      -0.00000005     0.52D-05     0.90D-05     6     0       0.08      0.73    diag
   8     -115.08950684      -0.00000000     0.16D-05     0.24D-05     7     0       0.10      0.83    fixocc
   9     -115.08950684      -0.00000000     0.42D-06     0.62D-06     0     0       0.09      0.92    diag

 Final occupancy:   9

 !RHF STATE 1.1 Energy               -115.089506838027
  RHF One-electron energy            -237.070768263939
  RHF Two-electron energy              81.587901292235
  RHF Kinetic energy                  114.963335892207
  RHF Nuclear energy                   40.393360133677
  RHF Virial quotient                  -1.001097488559

 !RHF STATE 1.1 Dipole moment           0.56426571     0.40864146    -0.00000000
 Dipole moment /Debye                   1.43422037     1.03866298    -0.00000000

 Orbital energies:

           1.1          2.1          3.1          4.1          5.1          6.1          7.1          8.1          9.1         10.1
    -20.551137   -11.268603    -1.354815    -0.924183    -0.688854    -0.618741    -0.591171    -0.501238    -0.448707     0.138794

          11.1
      0.178965


 HOMO      9.1    -0.448707 =     -12.2100eV
 LUMO     10.1     0.138794 =       3.7768eV
 LUMO-HOMO         0.587502 =      15.9867eV

 Orbitals saved in record  2100.2


 **********************************************************************************************************************************
 DATASETS  * FILE   NREC   LENGTH (MB)   RECORD NAMES
              1      19      107.13       500      610      700      900      950      970     1000      129      960     1100   
                                          VAR    BASINP    GEOM    SYMINP    ZMAT    AOBASIS   BASIS     P2S    ABASIS      S 
                                         1400     1410     1200     1210     1080     1600     1650     1300     1700   
                                           T        V       H0       H01     AOSYM     SMH    MOLCAS    ERIS     OPER   

              2       4        0.68       700     1000      520     2100   
                                         GEOM     BASIS   MCVARS     RHF  

 PROGRAMS   *        TOTAL    HF-SCF       INT
 CPU TIMES  *         2.01      0.93      0.99
 REAL TIME  *         4.27 SEC
 DISK USED  *       333.65 MB
 **********************************************************************************************************************************


 Program * Restricted Hartree-Fock

 Molecular orbitals read from record     2100.2  Type=RHF/CANONICAL  

 Initial occupancy:   9

 NELEC=   18   SYM=1   MS2= 0   THRE=1.0D-08   THRD=3.2D-06   THRG=3.2D-06  HFMA2=F  DIIS_START=2   DIIS_MAX=10   DIIS_INCORE=F

 Level shifts:    0.00 (CLOSED)    0.00 (OPEN)    0.30 (GAP_MIN)

 ITER           ETOT              DE          GRAD        DDIFF     DIIS  NEXP   TIME(IT)  TIME(TOT)  DIAG
   1     -115.08950684    -115.08950684     0.00D+00     0.72D-01     0     0       0.10      0.10    start
   2     -115.08950684      -0.00000000     0.18D-06     0.24D-06     1     0       0.09      0.19    diag

 Final occupancy:   9

 !RHF STATE 1.1 Energy               -115.089506838081
  RHF One-electron energy            -237.070799674640
  RHF Two-electron energy              81.587932702882
  RHF Kinetic energy                  114.963358954351
  RHF Nuclear energy                   40.393360133677
  RHF Virial quotient                  -1.001097287735

 !RHF STATE 1.1 Dipole moment           0.56426350     0.40864505     0.00000000
 Dipole moment /Debye                   1.43421477     1.03867212     0.00000000

 Orbital energies:

           1.1          2.1          3.1          4.1          5.1          6.1          7.1          8.1          9.1         10.1
    -20.551142   -11.268613    -1.354817    -0.924186    -0.688856    -0.618744    -0.591174    -0.501240    -0.448710     0.138794

          11.1
      0.178965


 HOMO      9.1    -0.448710 =     -12.2100eV
 LUMO     10.1     0.138794 =       3.7768eV
 LUMO-HOMO         0.587504 =      15.9868eV

 Orbitals saved in record  2101.2


 **********************************************************************************************************************************
 DATASETS  * FILE   NREC   LENGTH (MB)   RECORD NAMES
              1      19      107.13       500      610      700      900      950      970     1000      129      960     1100   
                                          VAR    BASINP    GEOM    SYMINP    ZMAT    AOBASIS   BASIS     P2S    ABASIS      S 
                                         1400     1410     1200     1210     1080     1600     1650     1300     1700   
                                           T        V       H0       H01     AOSYM     SMH    MOLCAS    ERIS     OPER   

              2       5        1.14       700     1000      520     2100     2101   
                                         GEOM     BASIS   MCVARS     RHF      RHF  

 PROGRAMS   *        TOTAL    HF-SCF    HF-SCF       INT
 CPU TIMES  *         2.20      0.18      0.93      0.99
 REAL TIME  *         5.12 SEC
 DISK USED  *       333.65 MB
 **********************************************************************************************************************************


 PROGRAM * PAPT (Closed-shell)     Authors: C. Hampel, H.-J. Werner, 1991, P.J. Knowles, 2021


 Convergence thresholds:  THRVAR = 1.00D-08  THRDEN = 1.00D-06

 Number of core orbitals:           2 (   2 )
 Number of closed-shell orbitals:   7 (   7 )
 Number of external orbitals:     107 ( 107 )

 Molecular orbitals read from record     2101.2  Type=RHF/CANONICAL  

 Number of N-1 electron functions:               7
 Number of N-2 electron functions:              28
 Number of singly external CSFs:               749
 Number of doubly external CSFs:            280875
 Total number of CSFs:                      281625

 Length of J-op  integral file:               0.00 MB
 Length of K-op  integral file:               0.99 MB

 Integral transformation finished. Total CPU:   0.14 sec, npass=  1  Memory used:   0.93 MW

 Reference energy:                   -115.08950684

                        CORR.ENERGY   TOTAL ENERGY   ENERGY CHANGE
 MP2:                   -0.42791598  -115.51742282    -0.42791598

 SCS-MP2 correlation energy:           -0.42846871   (PS=  1.200000  PT=  0.333333)
 SCS-MP2 total energy:               -115.51797555
 Iteration:   1     0.2036D+00
 Iteration:   2     0.2348D+00
 Iteration:   3     0.5459D-01
 Iteration:   4     0.3598D-01
 Iteration:   5     0.5181D+01
 Iteration:   6     0.1483D-01
 Iteration:   7     0.1629D-01
 Iteration:   8     0.1324D-01
 Iteration:   9     0.2469D-02
 Iteration:  10     0.3675D-02
 Iteration:  11     0.9928D-03
 Iteration:  12     0.1001D-02
 Iteration:  13     0.8736D-03
 Iteration:  14     0.4056D-03
 Iteration:  15     0.1209D-02
 Iteration:  16     0.1216D-03
 Iteration:  17     0.9972D-04
 PAPT operator written to  7000.1
 PAPT orbitals and eigenvalues written to  7000.2

 MP3(D):                -0.44323396  -115.53274080    -0.01531798



 RESULTS
 =======

  Reference energy                   -115.089506838081
  MP3 singlet pair energy              -0.305740524185
  MP3 triplet pair energy              -0.137493438394
  MP3 correlation energy               -0.443233962578

 !MP3 total energy                   -115.532740800660

 Timing summary (sec):

 STEP                 CPU(USER)    SYS     CPU(TOT)    WALL
 Transformation          0.14      0.02      0.16      0.59
 CCSD iterations         2.97      0.07      3.04      1.73

 Program statistics:

 Available memory in ccsd:               805306163
 Min. memory needed in ccsd:                914097
 Max. memory used in ccsd:                 1141226
 Max. memory used in cckext:                866883 ( 1 integral passes)



 **********************************************************************************************************************************
 DATASETS  * FILE   NREC   LENGTH (MB)   RECORD NAMES
              1      21      111.71       500      610      700      900      950      970     1000      129      960     1100   
                                          VAR    BASINP    GEOM    SYMINP    ZMAT    AOBASIS   BASIS     P2S    ABASIS      S 
                                         1400     1410     1200     1210     1080     1600     1650     1300     1700     1380   
                                           T        V       H0       H01     AOSYM     SMH    MOLCAS    ERIS     OPER     JKOP   
                                         7000   
                                        PAPT AO    

              2       6        1.55       700     1000      520     2100     2101     7000   
                                         GEOM     BASIS   MCVARS     RHF      RHF     PAPT   

 PROGRAMS   *        TOTAL      PAPT    HF-SCF    HF-SCF       INT
 CPU TIMES  *         3.03      0.84      0.18      0.93      0.99
 REAL TIME  *         7.65 SEC
 DISK USED  *       333.65 MB
 **********************************************************************************************************************************


 PROGRAM * MP3 (Closed-shell)     Authors: C. Hampel, H.-J. Werner, 1991, M. Deegan, P.J. Knowles, 1992


 Convergence thresholds:  THRVAR = 1.00D-08  THRDEN = 1.00D-06

 Number of core orbitals:           2 (   2 )
 Number of closed-shell orbitals:   7 (   7 )
 Number of external orbitals:     107 ( 107 )

 Molecular orbitals read from record     7000.2  Type=PAPT/CANONICAL (state 1.1)

 Number of N-1 electron functions:               7
 Number of N-2 electron functions:              28
 Number of singly external CSFs:               749
 Number of doubly external CSFs:            280875
 Total number of CSFs:                      281625

 Length of J-op  integral file:               0.00 MB
 Length of K-op  integral file:               0.99 MB

 Integral transformation finished. Total CPU:   0.14 sec, npass=  1  Memory used:   0.93 MW
 Orbital energies read from record       7000.2  Type=PAPT/CANONICAL (state 1.1)

 Reference energy:                   -115.08950684

                        CORR.ENERGY   TOTAL ENERGY   ENERGY CHANGE
 MP2:                   -0.44774090  -115.53724774    -0.44774090

 SCS-MP2 correlation energy:           -0.45043537   (PS=  1.200000  PT=  0.333333)
 SCS-MP2 total energy:               -115.53994221

 MP3(D):                -0.44794216  -115.53744899    -0.00020126



 RESULTS
 =======

  Reference energy                   -115.089506838081
  MP3 singlet pair energy              -0.310352931800
  MP3 triplet pair energy              -0.137589224641
  MP3 correlation energy               -0.447942156440

 !MP3 total energy                   -115.537448994522

 Timing summary (sec):

 STEP                 CPU(USER)    SYS     CPU(TOT)    WALL
 Transformation          0.24      0.03      0.27      0.47
 CCSD iterations         3.39      0.02      3.41      0.68

 Program statistics:

 Available memory in ccsd:               805306163
 Min. memory needed in ccsd:                914097
 Max. memory used in ccsd:                 1141226
 Max. memory used in cckext:                866883 ( 1 integral passes)



 **********************************************************************************************************************************
 DATASETS  * FILE   NREC   LENGTH (MB)   RECORD NAMES
              1      21      111.71       500      610      700      900      950      970     1000      129      960     1100   
                                          VAR    BASINP    GEOM    SYMINP    ZMAT    AOBASIS   BASIS     P2S    ABASIS      S 
                                         1400     1410     1200     1210     1080     1600     1650     1300     1700     1380   
                                           T        V       H0       H01     AOSYM     SMH    MOLCAS    ERIS     OPER     JKOP   
                                         7000   
                                        PAPT AO    

              2       6        1.55       700     1000      520     2100     2101     7000   
                                         GEOM     BASIS   MCVARS     RHF      RHF     PAPT   

 PROGRAMS   *        TOTAL       MP3      PAPT    HF-SCF    HF-SCF       INT
 CPU TIMES  *         3.55      0.52      0.84      0.18      0.93      0.99
 REAL TIME  *         9.05 SEC
 DISK USED  *       333.65 MB
 **********************************************************************************************************************************

 Dump information in style XML to xml output                                                                      

 Orbitals will not be exported.

 **********************************************************************************************************************************

 MP3/cc-pVTZ energy=   -115.537448994522

             MP3            PAPT          HF-SCF          HF-SCF
   -115.53744899   -115.53274080   -115.08950684   -115.08950684
 **********************************************************************************************************************************
 Molpro calculation terminated
