
 Working directory              : /var/folders/2v/xbgp75_9785319ghcgb4zr4r0000gp/T//molpro.gZUh9vOaOD/
 Global scratch directory       : /var/folders/2v/xbgp75_9785319ghcgb4zr4r0000gp/T//molpro.gZUh9vOaOD/
 Wavefunction directory         : /Users/sacpjk/wfu/
 Main file repository           : /var/folders/2v/xbgp75_9785319ghcgb4zr4r0000gp/T//molpro.gZUh9vOaOD/

 id        : peterk

 Nodes                        nprocs
 Cardiff-University-G34YLXT77Y    1
 GA implementation: MPI file
 GA implementation (serial work in mppx): MPI file

 Using customized tuning parameters: mindgm=1; mindgv=20; mindgc=4; mindgr=1; noblas=0; minvec=7
 default implementation of scratch files=df  


 Variables initialized (1032), CPU time= 0.00 sec
 
 symmetry,nosym
 
 
 geometry={
            4
     O         -0.82792559     -0.29713382      0.00000000
     H         -0.95480536      0.66248308      0.00000000
     H          0.48862454     -0.28945176      0.00000000
     H          1.29410640     -0.07589751      0.00000000
 }
 basis=cc-pVDZ
 
 
 spin=1
 uhf
 
 
 
 {put,xml;noorbitals,nobasis}
 Commands initialized (841), CPU time= 0.00 sec, 704 directives.
 Default parameters read. Elapsed time= 0.13 sec

 Checking input...
 Passed
1


                                         ***  PROGRAM SYSTEM MOLPRO  ***
                                       Copyright, TTI GmbH Stuttgart, 2015
                                    Version 2023.1 linked Tue Jun  6 09:54:11 2023


 **********************************************************************************************************************************
 LABEL *                                                                                                                                                                 
  64 bit serial version                                                                  DATE: 09-Jun-23          TIME: 09:27:12  
 **********************************************************************************************************************************

 SHA1:             8ebb0dd001088a5c915591db1a321413035db0b1
 **********************************************************************************************************************************

 Memory per process:       805 MW
 Total memory per node:   1074 MW
 Total GA space:           268 MW

 GA preallocation disabled
 GA check enabled

 Variable memory set to 805.3 MW

 ZSYMEL=NOSYM


 Geometry recognized as XYZ

 SETTING BASIS          =    CC-PVDZ
 SETTING SPIN           =         1.00000000                                  


 Recomputing integrals since basis changed


 Using spherical harmonics

 Library entry O      S cc-pVDZ              selected for orbital group  1
 Library entry O      P cc-pVDZ              selected for orbital group  1
 Library entry O      D cc-pVDZ              selected for orbital group  1
 Library entry H      S cc-pVDZ              selected for orbital group  2
 Library entry H      P cc-pVDZ              selected for orbital group  2


 PROGRAM * SEWARD (Integral evaluation for generally contracted gaussian basis sets)     Author: Roland Lindh, 1990

 Geometry written to block  1 of record 700


 Point group  C1  



 ATOMIC COORDINATES

 NR  ATOM    CHARGE       X              Y              Z

   1  O       8.00   -1.564552617   -0.561501542    0.000000000
   2  H       1.00   -1.804320633    1.251911583    0.000000000
   3  H       1.00    0.923366558   -0.546984553    0.000000000
   4  H       1.00    2.445506672   -0.143425507    0.000000000

 Bond lengths in Bohr (Angstrom)

 1-2  1.829195415  1-3  2.487961528  3-4  1.574728684
     ( 0.967968528)     ( 1.316572542)     ( 0.833310533)

 Bond angles

  1-3-4  165.48533982   2-1-3   97.19759696

 NUCLEAR CHARGE:                   11
 NUMBER OF PRIMITIVE AOS:          48
 NUMBER OF SYMMETRY AOS:           47
 NUMBER OF CONTRACTIONS:           29   (   29A   )
 NUMBER OF INNER CORE ORBITALS:     0   (    0A   )
 NUMBER OF OUTER CORE ORBITALS:     1   (    1A   )
 NUMBER OF VALENCE ORBITALS:        7   (    7A   )


 NUCLEAR REPULSION ENERGY   10.73785984

 EXTRA SYMMETRY OF AOS IN SYMMETRY 1:   1 1 1 1 1 2 1 1 2 1   1 2 1 2 1 1 1 1 2 1   1 1 1 2 1 1 1 1 2

 Eigenvalues of metric

         1 0.163E-01 0.222E-01 0.489E-01 0.596E-01 0.946E-01 0.136E+00 0.162E+00 0.184E+00


 Contracted 2-electron integrals neglected if value below      1.0D-11
 AO integral compression algorithm  1   Integral accuracy      1.0D-11

     0.524 MB (compressed) written to integral file ( 46.5%)


 NUMBER OF SORTED TWO-ELECTRON INTEGRALS:      94830.     BUFFER LENGTH:  32768
 NUMBER OF SEGMENTS:   1  SEGMENT LENGTH:      94830      RECORD LENGTH: 524288

 Memory used in sort:       0.65 MW

 SORT1 READ      121049. AND WROTE       49238. INTEGRALS IN      1 RECORDS. CPU TIME:     0.00 SEC, REAL TIME:     0.00 SEC
 SORT2 READ       49238. AND WROTE       94830. INTEGRALS IN      2 RECORDS. CPU TIME:     0.01 SEC, REAL TIME:     0.00 SEC

 FILE SIZES:   FILE 1:    30.6 MBYTE,  FILE 4:     4.3 MBYTE,   TOTAL:     34.8 MBYTE

 OPERATOR DM      FOR CENTER  0  COORDINATES:    0.000000    0.000000    0.000000


 **********************************************************************************************************************************
 DATASETS  * FILE   NREC   LENGTH (MB)   RECORD NAMES
              1      19       28.93       500      610      700      900      950      970     1000      129      960     1100   
                                          VAR    BASINP    GEOM    SYMINP    ZMAT    AOBASIS   BASIS     P2S    ABASIS      S 
                                         1400     1410     1200     1210     1080     1600     1650     1300     1700   
                                           T        V       H0       H01     AOSYM     SMH    MOLCAS    ERIS     OPER   

 PROGRAMS   *        TOTAL       INT
 CPU TIMES  *         0.17      0.09
 REAL TIME  *         0.88 SEC
 DISK USED  *        33.59 MB
 **********************************************************************************************************************************


 Program * Unrestricted Hartree-Fock

 Orbital guess generated from atomic densities. Full valence occupancy:    8

 Initial alpha occupancy:   6
 Initial beta  occupancy:   5

 Elapsed time for starting guess:      0.00 sec

 NELEC=   11   SYM=1   MS2=1   THRE=1.0D-08   THRD=3.2D-06   THRG=3.2D-06  HFMA2=F  DIIS_START=2   DIIS_MAX=10   DIIS_INCORE=F

 Initial level shifts:    0.20 (ALPHA)    0.20 (BETA)

 ITER         ETOT            DE          GRAD         DDIFF    DIIS  NEXP   TIME(IT)  TIME(TOT)  DIAG
   1    -76.41517127   -76.41517127     0.00D+00     0.00D+00     0     0       0.00      0.00    start
   2    -76.46679809    -0.05162682     0.21D-01     0.20D+00     1     0       0.00      0.00    diag
   3    -76.47958294    -0.01278485     0.10D-01     0.32D-01     2     0       0.00      0.00    diag
   4    -76.48612353    -0.00654058     0.45D-02     0.11D-01     3     0       0.00      0.00    diag
   5    -76.48876067    -0.00263714     0.25D-02     0.52D-02     4     0       0.00      0.00    diag
   6    -76.48960631    -0.00084564     0.13D-02     0.33D-02     5     0       0.01      0.01    diag
   7    -76.48990844    -0.00030212     0.76D-03     0.19D-02     6     0       0.00      0.01    diag
   8    -76.49000030    -0.00009186     0.40D-03     0.12D-02     7     0       0.00      0.01    diag
   9    -76.49002144    -0.00002114     0.20D-03     0.69D-03     8     0       0.00      0.01    diag
  10    -76.49002670    -0.00000526     0.10D-03     0.35D-03     8     0       0.00      0.01    diag/ort
  11    -76.49002770    -0.00000100     0.46D-04     0.17D-03     8     0       0.00      0.01    diag
  12    -76.49002797    -0.00000026     0.23D-04     0.78D-04     9     0       0.00      0.01    diag
  13    -76.49002800    -0.00000003     0.82D-05     0.42D-04     9     0       0.00      0.01    diag
  14    -76.49002800    -0.00000000     0.34D-05     0.15D-04     8     0       0.00      0.01    diag
  15    -76.49002801    -0.00000000     0.15D-05     0.55D-05     8     0       0.00      0.01    diag
  16    -76.49002801    -0.00000000     0.68D-06     0.15D-05     8     0       0.00      0.01    diag

 Final alpha occupancy:   6
 Final beta  occupancy:   5

 !UHF STATE 1.1 Energy                -76.490028005707
  UHF One-electron energy            -126.403770504150
  UHF Two-electron energy              39.175882660404
  UHF Kinetic energy                   76.515078361756
  UHF Nuclear energy                   10.737859838039
  UHF Virial quotient                  -0.999672608895

 !UHF STATE 1.1 Dipole moment          -0.07547417     0.65558766    -0.00000000
 Dipole moment /Debye                  -0.19183620     1.66633762    -0.00000000

 EXPECTATION VALUE OF S**2:             0.78241431

 Orbital energies for positive spin:

           1.1          2.1          3.1          4.1          5.1          6.1          7.1          8.1
    -20.629961    -1.391425    -0.738570    -0.669219    -0.553426    -0.492734     0.190311     0.288916

 Orbital energies for negative spin:

           1.1          2.1          3.1          4.1          5.1          6.1          7.1
    -20.594195    -1.262010    -0.659022    -0.546722    -0.514716     0.069736     0.203757


 HOMO      6.1    -0.492734 =     -13.4080eV
 LUMO     -6.1     0.069736 =       1.8976eV
 LUMO-HOMO         0.562470 =      15.3056eV

 Orbitals saved in record  2200.2

 Occupation number threshold for pseudo-canonical orbitals: 1.9990 (occupied), 0.0010 (virtual)

 Number of pseudo-canonical occupied orbitals per symmetry:    3
 Number of active natural orbitals per symmetry:               5

 Natural orbitals saved to record    2200.2 (Orbital set 3)

 Orbital spaces for UNO-CAS (Min. occupation: 0.020  Max. occupation: 1.980):

 Closed:        5
 Active:        1


 **********************************************************************************************************************************
 DATASETS  * FILE   NREC   LENGTH (MB)   RECORD NAMES
              1      19       28.93       500      610      700      900      950      970     1000      129      960     1100   
                                          VAR    BASINP    GEOM    SYMINP    ZMAT    AOBASIS   BASIS     P2S    ABASIS      S 
                                         1400     1410     1200     1210     1080     1600     1650     1300     1700   
                                           T        V       H0       H01     AOSYM     SMH    MOLCAS    ERIS     OPER   

              2       4        0.47       700     1000      520     2200   
                                         GEOM     BASIS   MCVARS     UHF  

              4       3        0.21      2900     3000     3100   

 PROGRAMS   *        TOTAL   UHF-SCF       INT
 CPU TIMES  *         0.19      0.01      0.09
 REAL TIME  *         1.01 SEC
 DISK USED  *        33.59 MB
 **********************************************************************************************************************************

 Dump information in style XML to xml output                                                                      

 Orbitals will not be exported.

 **********************************************************************************************************************************

 UHF/cc-pVDZ energy=    -76.490028005707

         UHF-SCF
    -76.49002801
 **********************************************************************************************************************************
 Molpro calculation terminated
