
 Working directory              : /tmp/peterk/molpro.bIsZhEy2t0/
 Global scratch directory       : /tmp/peterk/molpro.bIsZhEy2t0/
 Wavefunction directory         : /home/peterk/wfu/
 Main file repository           : /tmp/peterk/molpro.bIsZhEy2t0/

 id        : peterk

 Nodes     nprocs
 marat        1
 GA implementation: MPI file
 GA implementation (serial work in mppx): MPI file

 Using customized tuning parameters: mindgm=1; mindgv=20; mindgc=4; mindgr=1; noblas=0; minvec=7
 default implementation of scratch files=df  


 Variables initialized (1032), CPU time= 0.00 sec
 
 symmetry,nosym
 
 
 geometry={
           17
     SI         0.00000000      1.94735480     -0.86167314
     SI         0.00000000      0.00000000      0.44778746
     SI         0.00000000     -1.94735480     -0.86167314
     SI         0.00000000     -3.87997284      0.46994748
     H          1.20207106      1.94015138     -1.73916028
     H         -1.20207106      1.94015138     -1.73916028
     SI         0.00000000      3.87997284      0.46994748
     H          1.20053481      0.00000000      1.32789750
     H         -1.20053481      0.00000000      1.32789750
     H          1.20207106     -1.94015138     -1.73916028
     H         -1.20207106     -1.94015138     -1.73916028
     H          0.00000000     -5.11417962     -0.35778141
     H          1.20544277     -3.89160768      1.33801820
     H         -1.20544277     -3.89160768      1.33801820
     H          0.00000000      5.11417962     -0.35778141
     H         -1.20544277      3.89160768      1.33801820
     H          1.20544277      3.89160768      1.33801820
 }
 basis=cc-pVDZ
 
 
 
 hf; ccsd(t)
 
 
 
 {put,xml;noorbitals,nobasis}
 Commands initialized (841), CPU time= 0.01 sec, 708 directives.
 Default parameters read. Elapsed time= 0.05 sec

 Checking input...
 Passed
1


                                         ***  PROGRAM SYSTEM MOLPRO  ***
                                       Copyright, TTI GmbH Stuttgart, 2015
                                    Version 2023.1 linked Sat Jun 10 08:01:27 2023


 **********************************************************************************************************************************
 LABEL *                                                                                                                                                                 
  (16 PROC) 64 bit serial version                                                        DATE: 13-Jun-23          TIME: 11:37:38  
 **********************************************************************************************************************************

 SHA1:             8376d659ba1296ca7ee514c57770fe2c96af278c
 **********************************************************************************************************************************

 Memory per process:      1074 MW
 Total memory per node:   1074 MW

 GA preallocation disabled
 GA check disabled

 Variable memory set to 1073.7 MW

 ZSYMEL=NOSYM


 Geometry recognized as XYZ

 SETTING BASIS          =    CC-PVDZ


 Recomputing integrals since basis changed


 Using spherical harmonics

 Library entry SI     S cc-pVDZ              selected for orbital group  1
 Library entry SI     P cc-pVDZ              selected for orbital group  1
 Library entry SI     D cc-pVDZ              selected for orbital group  1
 Library entry H      S cc-pVDZ              selected for orbital group  2
 Library entry H      P cc-pVDZ              selected for orbital group  2


 PROGRAM * SEWARD (Integral evaluation for generally contracted gaussian basis sets)     Author: Roland Lindh, 1990

 Geometry written to block  1 of record 700


 Point group  C1  



 ATOMIC COORDINATES

 NR  ATOM    CHARGE       X              Y              Z

   1  SI     14.00    0.000000000    3.679967239   -1.628326244
   2  SI     14.00    0.000000000    0.000000000    0.846195661
   3  SI     14.00    0.000000000   -3.679967239   -1.628326244
   4  SI     14.00    0.000000000   -7.332086039    0.888072030
   5  H       1.00    2.271585086    3.666354749   -3.286536616
   6  H       1.00   -2.271585086    3.666354749   -3.286536616
   7  SI     14.00    0.000000000    7.332086039    0.888072030
   8  H       1.00    2.268681994    0.000000000    2.509362597
   9  H       1.00   -2.268681994    0.000000000    2.509362597
  10  H       1.00    2.271585086   -3.666354749   -3.286536616
  11  H       1.00   -2.271585086   -3.666354749   -3.286536616
  12  H       1.00    0.000000000   -9.664398834   -0.676108877
  13  H       1.00    2.277956694   -7.354072700    2.528487948
  14  H       1.00   -2.277956694   -7.354072700    2.528487948
  15  H       1.00    0.000000000    9.664398834   -0.676108877
  16  H       1.00   -2.277956694    7.354072700    2.528487948
  17  H       1.00    2.277956694    7.354072700    2.528487948

 Bond lengths in Bohr (Angstrom)

 1-2  4.434570728  1-5  2.812462576  1-6  2.812462576  1-7  4.435113527  2-3  4.434570728
     ( 2.346673769)     ( 1.488291102)     ( 1.488291102)     ( 2.346961006)     ( 2.346673769)

  2- 8  2.813013019   2- 9  2.813013019   3- 4  4.435113527   3-10  2.812462576   3-11  2.812462576
       ( 1.488582384)       ( 1.488582384)       ( 2.346961006)       ( 1.488291102)       ( 1.488291102)

  4-12  2.808263678   4-13  2.807228971   4-14  2.807228971   7-15  2.808263678   7-16  2.807228971
       ( 1.486069141)       ( 1.485521597)       ( 1.485521597)       ( 1.486069141)       ( 1.485521597)

  7-17  2.807228971
       ( 1.485521597)

 Bond angles

  1- 2- 3  112.16382712   1- 2- 8  109.26369735   1- 2- 9  109.26369735   1- 7-15  111.58417652

  1- 7-16  109.75511656   1- 7-17  109.75511656   2- 1- 5  108.96442616   2- 1- 6  108.96442616

  2- 1- 7  111.51413117   2- 3- 4  111.51413117   2- 3-10  108.96442616   2- 3-11  108.96442616

  3- 2- 8  109.26369735   3- 2- 9  109.26369735   3- 4-12  111.58417652   3- 4-13  109.75511656

  3- 4-14  109.75511656   4- 3-10  109.78610619   4- 3-11  109.78610619   5- 1- 6  107.74081118

  5- 1- 7  109.78610619   6- 1- 7  109.78610619   8- 2- 9  107.50983989  10- 3-11  107.74081118

 12- 4-13  108.60100594  12- 4-14  108.60100594  13- 4-14  108.47783395  15- 7-16  108.60100594

 15- 7-17  108.60100594  16- 7-17  108.47783395

 NUCLEAR CHARGE:                   82
 NUMBER OF PRIMITIVE AOS:         294
 NUMBER OF SYMMETRY AOS:          289
 NUMBER OF CONTRACTIONS:          150   (  150A   )
 NUMBER OF INNER CORE ORBITALS:     5   (    5A   )
 NUMBER OF OUTER CORE ORBITALS:    20   (   20A   )
 NUMBER OF VALENCE ORBITALS:       32   (   32A   )


 NUCLEAR REPULSION ENERGY  455.83535469


 Eigenvalues of metric

         1 0.260E-02 0.384E-02 0.561E-02 0.707E-02 0.976E-02 0.123E-01 0.193E-01 0.197E-01


 Contracted 2-electron integrals neglected if value below      1.0D-11
 AO integral compression algorithm  1   Integral accuracy      1.0D-11

     158.597 MB (compressed) written to integral file ( 33.0%)


 NUMBER OF SORTED TWO-ELECTRON INTEGRALS:   64133475.     BUFFER LENGTH:  32768
 NUMBER OF SEGMENTS:   5  SEGMENT LENGTH:   15999503      RECORD LENGTH: 524288

 Memory used in sort:      16.56 MW

 SORT1 READ    59998915. AND WROTE    41598035. INTEGRALS IN    122 RECORDS. CPU TIME:     0.49 SEC, REAL TIME:     0.81 SEC
 SORT2 READ    41598035. AND WROTE    64133475. INTEGRALS IN    605 RECORDS. CPU TIME:     0.60 SEC, REAL TIME:     0.73 SEC

 FILE SIZES:   FILE 1:   189.7 MBYTE,  FILE 4:   511.8 MBYTE,   TOTAL:    701.5 MBYTE

 OPERATOR DM      FOR CENTER  0  COORDINATES:    0.000000    0.000000    0.000000


 **********************************************************************************************************************************
 DATASETS  * FILE   NREC   LENGTH (MB)   RECORD NAMES
              1      19      160.96       500      610      700      900      950      970     1000      129      960     1100   
                                          VAR    BASINP    GEOM    SYMINP    ZMAT    AOBASIS   BASIS     P2S    ABASIS      S 
                                         1400     1410     1200     1210     1080     1600     1650     1300     1700   
                                           T        V       H0       H01     AOSYM     SMH    MOLCAS    ERIS     OPER   

 PROGRAMS   *        TOTAL       INT
 CPU TIMES  *         5.08      4.96
 REAL TIME  *         6.40 SEC
 DISK USED  *       669.63 MB
 **********************************************************************************************************************************


 Program * Restricted Hartree-Fock

 Orbital guess generated from atomic densities. Full valence occupancy:   57

 Initial occupancy:  41

 NELEC=   82   SYM=1   MS2= 0   THRE=1.0D-08   THRD=3.2D-06   THRG=3.2D-06  HFMA2=F  DIIS_START=2   DIIS_MAX=10   DIIS_INCORE=F

 Level shifts:    0.00 (CLOSED)    0.00 (OPEN)    0.30 (GAP_MIN)

 ITER           ETOT              DE          GRAD        DDIFF     DIIS  NEXP   TIME(IT)  TIME(TOT)  DIAG
   1    -1451.56879742   -1451.56879742     0.00D+00     0.11D+00     0     0       0.35      0.71    start
   2    -1451.62430100      -0.05550358     0.21D-02     0.62D-02     1     0       0.37      1.08    diag
   3    -1451.63137481      -0.00707381     0.66D-03     0.23D-02     2     0       0.37      1.45    diag
   4    -1451.63158060      -0.00020578     0.12D-03     0.58D-03     3     0       0.36      1.81    diag
   5    -1451.63159504      -0.00001444     0.29D-04     0.17D-03     4     0       0.38      2.19    diag
   6    -1451.63159548      -0.00000044     0.53D-05     0.35D-04     5     0       0.36      2.55    diag
   7    -1451.63159550      -0.00000002     0.12D-05     0.68D-05     6     0       0.38      2.93    diag
   8    -1451.63159550      -0.00000000     0.23D-06     0.13D-05     7     0       0.34      3.27    fixocc
   9    -1451.63159550      -0.00000000     0.51D-07     0.24D-06     0     0       0.37      3.64    diag

 Final occupancy:  41

 !RHF STATE 1.1 Energy              -1451.631595501118
  RHF One-electron energy           -2921.616048268339
  RHF Two-electron energy            1014.149098079112
  RHF Kinetic energy                 1451.803577885927
  RHF Nuclear energy                  455.835354688109
  RHF Virial quotient                  -0.999881538806

 !RHF STATE 1.1 Dipole moment          -0.00000000     0.00000000    -0.04779308
 Dipole moment /Debye                  -0.00000000     0.00000000    -0.12147788

 Orbital energies:

           1.1          2.1          3.1          4.1          5.1          6.1          7.1          8.1          9.1         10.1
    -68.779745   -68.779745   -68.776632   -68.775680   -68.775680    -6.130903    -6.130899    -6.128800    -6.128009    -6.127991

          11.1         12.1         13.1         14.1         15.1         16.1         17.1         18.1         19.1         20.1
     -4.236673    -4.236673    -4.236651    -4.236651    -4.236603    -4.236602    -4.234421    -4.234377    -4.234338    -4.233595

          21.1         22.1         23.1         24.1         25.1         26.1         27.1         28.1         29.1         30.1
     -4.233590    -4.233459    -4.233430    -4.233387    -4.233334    -0.783908    -0.755754    -0.714412    -0.669419    -0.641393

          31.1         32.1         33.1         34.1         35.1         36.1         37.1         38.1         39.1         40.1
     -0.514600    -0.499347    -0.490431    -0.487096    -0.482504    -0.470503    -0.465606    -0.429377    -0.422200    -0.414798

          41.1         42.1         43.1
     -0.359712     0.093762     0.125924


 HOMO     41.1    -0.359712 =      -9.7883eV
 LUMO     42.1     0.093762 =       2.5514eV
 LUMO-HOMO         0.453474 =      12.3396eV

 Orbitals saved in record  2100.2


 **********************************************************************************************************************************
 DATASETS  * FILE   NREC   LENGTH (MB)   RECORD NAMES
              1      19      160.96       500      610      700      900      950      970     1000      129      960     1100   
                                          VAR    BASINP    GEOM    SYMINP    ZMAT    AOBASIS   BASIS     P2S    ABASIS      S 
                                         1400     1410     1200     1210     1080     1600     1650     1300     1700   
                                           T        V       H0       H01     AOSYM     SMH    MOLCAS    ERIS     OPER   

              2       4        1.01       700     1000      520     2100   
                                         GEOM     BASIS   MCVARS     RHF  

 PROGRAMS   *        TOTAL    HF-SCF       INT
 CPU TIMES  *         8.72      3.64      4.96
 REAL TIME  *        10.26 SEC
 DISK USED  *       669.63 MB
 **********************************************************************************************************************************


 PROGRAM * CCSD (Closed-shell coupled cluster)     Authors: C. Hampel, H.-J. Werner, 1991, M. Deegan, P.J. Knowles, 1992


 Convergence thresholds:  THRVAR = 1.00D-08  THRDEN = 1.00D-06

 CCSD(T)     terms to be evaluated (factor= 1.000)


 Number of core orbitals:          25 (  25 )
 Number of closed-shell orbitals:  16 (  16 )
 Number of external orbitals:     109 ( 109 )

 Molecular orbitals read from record     2100.2  Type=RHF/CANONICAL  

 Number of N-1 electron functions:              16
 Number of N-2 electron functions:             136
 Number of singly external CSFs:              1744
 Number of doubly external CSFs:           1521640
 Total number of CSFs:                     1523385

 Length of J-op  integral file:               0.00 MB
 Length of K-op  integral file:               1.61 MB
 Length of 3-ext integral record:             0.00 MB

 Memory could be reduced to 27.90 Mwords without degradation in triples

 Integral transformation finished. Total CPU:   2.62 sec, npass=  1  Memory used:  34.38 MW

 Reference energy:                  -1451.63159550

 MP2 singlet pair energy:              -0.39126613
 MP2 triplet pair energy:              -0.12272143
 MP2 correlation energy:               -0.51398756
 MP2 total energy:                  -1452.14558306

 SCS-MP2 correlation energy:           -0.54587936   (PS=  1.200000  PT=  0.333333)
 SCS-MP2 total energy:              -1452.17747486

 ITER.      SQ.NORM     CORR.ENERGY   TOTAL ENERGY   ENERGY CHANGE        DEN1      VAR(S)    VAR(P)  DIIS     TIME  TIME/IT
   1      1.32913065    -0.61670986 -1452.24830536    -0.10272229    -0.07461585  0.30D-02  0.75D-02  1  1    18.86     7.11
   2      1.37758558    -0.62516178 -1452.25675728    -0.00845193    -0.03315833  0.12D-03  0.36D-03  2  2    26.80     7.61
   3      1.38605763    -0.62527481 -1452.25687032    -0.00011303    -0.00268377  0.54D-04  0.24D-04  3  3    34.30     7.62
   4      1.38903438    -0.62533299 -1452.25692849    -0.00005817    -0.00065216  0.63D-05  0.26D-05  4  4    41.92     7.65
   5      1.39004097    -0.62532031 -1452.25691581     0.00001268    -0.00017571  0.31D-06  0.31D-06  5  5    49.61     7.69
   6      1.39021755    -0.62530240 -1452.25689790     0.00001791    -0.00002615  0.33D-07  0.30D-07  6  6    57.48     7.75
   7      1.39025716    -0.62530184 -1452.25689734     0.00000056    -0.00000323  0.14D-08  0.33D-08  6  1    65.26     7.77
   8      1.39026228    -0.62530181 -1452.25689731     0.00000003     0.00000003  0.24D-09  0.27D-09  6  2    73.12     7.80

 Norm of t1 vector:      0.10738600      S-energy:     0.00000005      T1 diagnostic:  0.01342325
                                                                       D1 diagnostic:  0.02973430
                                                                       D2 diagnostic:  0.16560009 (internal)


 Total CPU time for triples:     73.88 sec


 RESULTS
 =======

  Reference energy                  -1451.631595501115
  CCSD singlet pair energy             -0.494189572393
  CCSD triplet pair energy             -0.131112280292
  CCSD correlation energy              -0.625301807533

  Triples (T) contribution             -0.017619297235
  Total correlation energy             -0.642921104769

  CCSD total energy                 -1452.256897308649
  CCSD[T] energy                    -1452.274986892238
  CCSD-T energy                     -1452.274327100414
 !CCSD(T) total energy              -1452.274516605884

 Timing summary (sec):

 STEP                 CPU(USER)    SYS     CPU(TOT)    WALL
 Transformation          2.74      0.27      3.01      3.02
 CCSD iterations        70.50      1.10     71.60     62.50
 Triples                73.88      1.70     75.58     75.58

 Program statistics:

 Available memory in ccsd:              1073740759
 Min. memory needed in ccsd:               4087167
 Max. memory used in ccsd:                 5344727
 Max. memory used in cckext:               6399971 ( 8 integral passes)



 **********************************************************************************************************************************
 DATASETS  * FILE   NREC   LENGTH (MB)   RECORD NAMES
              1      20      276.17       500      610      700      900      950      970     1000      129      960     1100   
                                          VAR    BASINP    GEOM    SYMINP    ZMAT    AOBASIS   BASIS     P2S    ABASIS      S 
                                         1400     1410     1200     1210     1080     1600     1650     1300     1700     1380   
                                           T        V       H0       H01     AOSYM     SMH    MOLCAS    ERIS     OPER     JKOP   

              2       4        1.01       700     1000      520     2100   
                                         GEOM     BASIS   MCVARS     RHF  

 PROGRAMS   *        TOTAL   CCSD(T)    HF-SCF       INT
 CPU TIMES  *       146.77    138.04      3.64      4.96
 REAL TIME  *       151.41 SEC
 DISK USED  *       669.63 MB
 **********************************************************************************************************************************

 Dump information in style XML to xml output                                                                      

 Orbitals will not be exported.

 **********************************************************************************************************************************

 CCSD(T)/cc-pVDZ energy=  -1452.274516605884

         CCSD(T)          HF-SCF
  -1452.27451661  -1451.63159550
 **********************************************************************************************************************************
 Molpro calculation terminated
