
 Working directory              : /var/folders/2v/xbgp75_9785319ghcgb4zr4r0000gp/T//molpro.JTT7PZAcM0/
 Global scratch directory       : /var/folders/2v/xbgp75_9785319ghcgb4zr4r0000gp/T//molpro.JTT7PZAcM0/
 Wavefunction directory         : /Users/sacpjk/wfu/
 Main file repository           : /var/folders/2v/xbgp75_9785319ghcgb4zr4r0000gp/T//molpro.JTT7PZAcM0/

 id        : peterk

 Nodes                        nprocs
 Cardiff-University-G34YLXT77Y    1
 GA implementation: MPI file
 GA implementation (serial work in mppx): MPI file

 Using customized tuning parameters: mindgm=1; mindgv=20; mindgc=4; mindgr=1; noblas=0; minvec=7
 default implementation of scratch files=df  


 Variables initialized (1032), CPU time= 0.00 sec
 
 symmetry,nosym
 
 
 geometry={
            6
     F          0.00000000      0.00000000     -1.79137135
     C          0.00000000      0.00000000     -0.36561703
     H         -0.51179113      0.88644824     -0.01758668
     H         -0.51179113     -0.88644824     -0.01758668
     H          1.02358226      0.00000000     -0.01758668
     F          0.00000000      0.00000000      2.20974841
 }
 basis=cc-pVTZ
 
 charge=-1
 
 hf; hf; papt; mp4
 
 
 
 {put,xml;noorbitals,nobasis}
 Commands initialized (841), CPU time= 0.00 sec, 704 directives.
 Default parameters read. Elapsed time= 1.17 sec

 Checking input...
 Passed
1


                                         ***  PROGRAM SYSTEM MOLPRO  ***
                                       Copyright, TTI GmbH Stuttgart, 2015
                                    Version 2023.1 linked Tue Jun  6 09:54:11 2023


 **********************************************************************************************************************************
 LABEL *                                                                                                                                                                 
  64 bit serial version                                                                  DATE: 09-Jun-23          TIME: 15:38:18  
 **********************************************************************************************************************************

 SHA1:             8ebb0dd001088a5c915591db1a321413035db0b1
 **********************************************************************************************************************************

 Memory per process:       805 MW
 Total memory per node:   1074 MW
 Total GA space:           268 MW

 GA preallocation disabled
 GA check enabled

 Variable memory set to 805.3 MW

 ZSYMEL=NOSYM


 Geometry recognized as XYZ

 SETTING BASIS          =    CC-PVTZ
 SETTING CHARGE         =        -1.00000000                                  


 Recomputing integrals since basis changed


 Using spherical harmonics

 Library entry F      S cc-pVTZ              selected for orbital group  1
 Library entry F      P cc-pVTZ              selected for orbital group  1
 Library entry F      D cc-pVTZ              selected for orbital group  1
 Library entry F      F cc-pVTZ              selected for orbital group  1
 Library entry C      S cc-pVTZ              selected for orbital group  2
 Library entry C      P cc-pVTZ              selected for orbital group  2
 Library entry C      D cc-pVTZ              selected for orbital group  2
 Library entry C      F cc-pVTZ              selected for orbital group  2
 Library entry H      S cc-pVTZ              selected for orbital group  3
 Library entry H      P cc-pVTZ              selected for orbital group  3
 Library entry H      D cc-pVTZ              selected for orbital group  3


 PROGRAM * SEWARD (Integral evaluation for generally contracted gaussian basis sets)     Author: Roland Lindh, 1990

 Geometry written to block  1 of record 700


 Point group  C1  



 ATOMIC COORDINATES

 NR  ATOM    CHARGE       X              Y              Z

   1  F       9.00    0.000000000    0.000000000   -3.385201239
   2  C       6.00    0.000000000    0.000000000   -0.690916053
   3  H       1.00   -0.967145069    1.675144397   -0.033234009
   4  H       1.00   -0.967145069   -1.675144397   -0.033234009
   5  H       1.00    1.934290137    0.000000000   -0.033234009
   6  F       9.00    0.000000000    0.000000000    4.175819299

 Bond lengths in Bohr (Angstrom)

 1-2  2.694285186  2-3  2.043042831  2-4  2.043042831  2-5  2.043042831
     ( 1.425754320)     ( 1.081131707)     ( 1.081131707)     ( 1.081131707)

 Bond angles

  1-2-3  108.77865447   1-2-4  108.77865447   1-2-5  108.77865447   3-2-4  110.15481872

  3-2-5  110.15481872   4-2-5  110.15481872

 NUCLEAR CHARGE:                   27
 NUMBER OF PRIMITIVE AOS:         192
 NUMBER OF SYMMETRY AOS:          174
 NUMBER OF CONTRACTIONS:          132   (  132A   )
 NUMBER OF INNER CORE ORBITALS:     0   (    0A   )
 NUMBER OF OUTER CORE ORBITALS:     3   (    3A   )
 NUMBER OF VALENCE ORBITALS:       15   (   15A   )


 NUCLEAR REPULSION ENERGY   64.36223019


 Eigenvalues of metric

         1 0.121E-02 0.187E-02 0.187E-02 0.316E-02 0.530E-02 0.104E-01 0.104E-01 0.120E-01


 Contracted 2-electron integrals neglected if value below      1.0D-11
 AO integral compression algorithm  1   Integral accuracy      1.0D-11

     111.149 MB (compressed) written to integral file ( 32.4%)


 NUMBER OF SORTED TWO-ELECTRON INTEGRALS:   38531031.     BUFFER LENGTH:  32768
 NUMBER OF SEGMENTS:   3  SEGMENT LENGTH:   15998004      RECORD LENGTH: 524288

 Memory used in sort:      16.56 MW

 SORT1 READ    42815559. AND WROTE    24956734. INTEGRALS IN     73 RECORDS. CPU TIME:     0.23 SEC, REAL TIME:     0.28 SEC
 SORT2 READ    24956734. AND WROTE    38531031. INTEGRALS IN    424 RECORDS. CPU TIME:     0.27 SEC, REAL TIME:     0.33 SEC

 FILE SIZES:   FILE 1:   141.9 MBYTE,  FILE 4:   306.2 MBYTE,   TOTAL:    448.1 MBYTE

 OPERATOR DM      FOR CENTER  0  COORDINATES:    0.000000    0.000000    0.000000


 **********************************************************************************************************************************
 DATASETS  * FILE   NREC   LENGTH (MB)   RECORD NAMES
              1      19      120.69       500      610      700      900      950      970     1000      129      960     1100   
                                          VAR    BASINP    GEOM    SYMINP    ZMAT    AOBASIS   BASIS     P2S    ABASIS      S 
                                         1400     1410     1200     1210     1080     1600     1650     1300     1700   
                                           T        V       H0       H01     AOSYM     SMH    MOLCAS    ERIS     OPER   

 PROGRAMS   *        TOTAL       INT
 CPU TIMES  *         1.46      1.37
 REAL TIME  *         4.02 SEC
 DISK USED  *       427.80 MB
 **********************************************************************************************************************************


 Program * Restricted Hartree-Fock

 Orbital guess generated from atomic densities. Full valence occupancy:   18

 Initial occupancy:  14

 NELEC=   28   SYM=1   MS2= 0   THRE=1.0D-08   THRD=3.2D-06   THRG=3.2D-06  HFMA2=F  DIIS_START=2   DIIS_MAX=10   DIIS_INCORE=F

 Level shifts:    0.00 (CLOSED)    0.00 (OPEN)    0.30 (GAP_MIN)

 ITER           ETOT              DE          GRAD        DDIFF     DIIS  NEXP   TIME(IT)  TIME(TOT)  DIAG
   1     -238.44097730    -238.44097730     0.00D+00     0.78D-01     0     0       0.17      0.32    start
   2     -238.50692146      -0.06594416     0.93D-02     0.12D-01     1     0       0.17      0.49    diag
   3     -238.54607690      -0.03915544     0.69D-02     0.47D-02     2     0       0.17      0.66    diag
   4     -238.54652527      -0.00044837     0.41D-03     0.57D-03     3     0       0.16      0.82    diag
   5     -238.54655471      -0.00002944     0.10D-03     0.17D-03     4     0       0.16      0.98    diag
   6     -238.54655730      -0.00000259     0.41D-04     0.46D-04     5     0       0.17      1.15    diag
   7     -238.54655757      -0.00000027     0.12D-04     0.18D-04     6     0       0.17      1.32    diag
   8     -238.54655759      -0.00000002     0.26D-05     0.53D-05     7     0       0.16      1.48    fixocc
   9     -238.54655759      -0.00000000     0.89D-06     0.16D-05     8     0       0.17      1.65    diag
  10     -238.54655759      -0.00000000     0.22D-06     0.33D-06     0     0       0.16      1.81    diag/orth

 Final occupancy:  14

 !RHF STATE 1.1 Energy               -238.546557589668
  RHF One-electron energy            -467.917370840598
  RHF Two-electron energy             165.008583056878
  RHF Kinetic energy                  238.608252270551
  RHF Nuclear energy                   64.362230194053
  RHF Virial quotient                  -0.999741439450

 !RHF STATE 1.1 Dipole moment           0.00000000    -0.00000000    -2.63226025
 Dipole moment /Debye                   0.00000000    -0.00000000    -6.69053821

 Orbital energies:

           1.1          2.1          3.1          4.1          5.1          6.1          7.1          8.1          9.1         10.1
    -26.091887   -25.805926   -11.106600    -1.395934    -1.072018    -0.758799    -0.505331    -0.505331    -0.479646    -0.345848

          11.1         12.1         13.1         14.1         15.1         16.1
     -0.345848    -0.179321    -0.179321    -0.178299     0.322249     0.400007


 HOMO     14.1    -0.178299 =      -4.8518eV
 LUMO     15.1     0.322249 =       8.7689eV
 LUMO-HOMO         0.500548 =      13.6206eV

 Orbitals saved in record  2100.2


 **********************************************************************************************************************************
 DATASETS  * FILE   NREC   LENGTH (MB)   RECORD NAMES
              1      19      120.69       500      610      700      900      950      970     1000      129      960     1100   
                                          VAR    BASINP    GEOM    SYMINP    ZMAT    AOBASIS   BASIS     P2S    ABASIS      S 
                                         1400     1410     1200     1210     1080     1600     1650     1300     1700   
                                           T        V       H0       H01     AOSYM     SMH    MOLCAS    ERIS     OPER   

              2       4        0.75       700     1000      520     2100   
                                         GEOM     BASIS   MCVARS     RHF  

 PROGRAMS   *        TOTAL    HF-SCF       INT
 CPU TIMES  *         3.28      1.81      1.37
 REAL TIME  *         6.58 SEC
 DISK USED  *       427.80 MB
 **********************************************************************************************************************************


 Program * Restricted Hartree-Fock

 Molecular orbitals read from record     2100.2  Type=RHF/CANONICAL  

 Initial occupancy:  14

 NELEC=   28   SYM=1   MS2= 0   THRE=1.0D-08   THRD=3.2D-06   THRG=3.2D-06  HFMA2=F  DIIS_START=2   DIIS_MAX=10   DIIS_INCORE=F

 Level shifts:    0.00 (CLOSED)    0.00 (OPEN)    0.30 (GAP_MIN)

 ITER           ETOT              DE          GRAD        DDIFF     DIIS  NEXP   TIME(IT)  TIME(TOT)  DIAG
   1     -238.54655759    -238.54655759     0.00D+00     0.77D-01     0     0       0.17      0.18    start
   2     -238.54655759      -0.00000000     0.99D-07     0.13D-06     1     0       0.17      0.35    diag

 Final occupancy:  14

 !RHF STATE 1.1 Energy               -238.546557589696
  RHF One-electron energy            -467.917376267932
  RHF Two-electron energy             165.008588484183
  RHF Kinetic energy                  238.608262088949
  RHF Nuclear energy                   64.362230194053
  RHF Virial quotient                  -0.999741398312

 !RHF STATE 1.1 Dipole moment           0.00000000    -0.00000000    -2.63225127
 Dipole moment /Debye                   0.00000000    -0.00000000    -6.69051537

 Orbital energies:

           1.1          2.1          3.1          4.1          5.1          6.1          7.1          8.1          9.1         10.1
    -26.091888   -25.805928   -11.106595    -1.395933    -1.072019    -0.758797    -0.505330    -0.505330    -0.479646    -0.345847

          11.1         12.1         13.1         14.1         15.1         16.1
     -0.345847    -0.179322    -0.179322    -0.178299     0.322250     0.400007


 HOMO     14.1    -0.178299 =      -4.8518eV
 LUMO     15.1     0.322250 =       8.7689eV
 LUMO-HOMO         0.500549 =      13.6206eV

 Orbitals saved in record  2101.2


 **********************************************************************************************************************************
 DATASETS  * FILE   NREC   LENGTH (MB)   RECORD NAMES
              1      19      120.69       500      610      700      900      950      970     1000      129      960     1100   
                                          VAR    BASINP    GEOM    SYMINP    ZMAT    AOBASIS   BASIS     P2S    ABASIS      S 
                                         1400     1410     1200     1210     1080     1600     1650     1300     1700   
                                           T        V       H0       H01     AOSYM     SMH    MOLCAS    ERIS     OPER   

              2       5        1.31       700     1000      520     2100     2101   
                                         GEOM     BASIS   MCVARS     RHF      RHF  

 PROGRAMS   *        TOTAL    HF-SCF    HF-SCF       INT
 CPU TIMES  *         3.63      0.35      1.81      1.37
 REAL TIME  *         7.27 SEC
 DISK USED  *       427.80 MB
 **********************************************************************************************************************************


 PROGRAM * PAPT (Closed-shell)     Authors: C. Hampel, H.-J. Werner, 1991, P.J. Knowles, 2021


 Convergence thresholds:  THRVAR = 1.00D-08  THRDEN = 1.00D-06

 Number of core orbitals:           3 (   3 )
 Number of closed-shell orbitals:  11 (  11 )
 Number of external orbitals:     118 ( 118 )

 Molecular orbitals read from record     2101.2  Type=RHF/CANONICAL  

 Number of N-1 electron functions:              11
 Number of N-2 electron functions:              66
 Number of singly external CSFs:              1298
 Number of doubly external CSFs:            843051
 Total number of CSFs:                      844350

 Length of J-op  integral file:               0.00 MB
 Length of K-op  integral file:               1.26 MB

 Integral transformation finished. Total CPU:   0.34 sec, npass=  1  Memory used:   2.30 MW

 Reference energy:                   -238.54655759

                        CORR.ENERGY   TOTAL ENERGY   ENERGY CHANGE
 MP2:                   -0.70923165  -239.25578924    -0.70923165

 SCS-MP2 correlation energy:           -0.69961862   (PS=  1.200000  PT=  0.333333)
 SCS-MP2 total energy:               -239.24617621
 Iteration:   1     0.2646D+00
 Iteration:   2     0.2678D+00
 Iteration:   3     0.1416D+00
 Iteration:   4     0.1159D+00
 Iteration:   5     0.7480D+00
 Iteration:   6     0.1139D+00
 Iteration:   7     0.1091D+00
 Iteration:   8     0.2301D+00
 Iteration:   9     0.7556D-01
 Iteration:  10     0.2448D+00
 Iteration:  11     0.5383D-01
 Iteration:  12     0.4479D-01
 Iteration:  13     0.8228D-01
 Iteration:  14     0.9109D-02
 Iteration:  15     0.3745D-01
 Iteration:  16     0.4127D-02
 Iteration:  17     0.2606D-02
 Iteration:  18     0.6751D-02
 Iteration:  19     0.1094D-02
 Iteration:  20     0.5297D-02
 Iteration:  21     0.4324D-03
 Iteration:  22     0.4229D-03
 Iteration:  23     0.3247D-03
 Iteration:  24     0.7680D-04
 PAPT operator written to  7000.1
 PAPT orbitals and eigenvalues written to  7000.2

 MP3(D):                -0.71639860  -239.26295619    -0.00716694



 RESULTS
 =======

  Reference energy                   -238.546557589697
  MP3 singlet pair energy              -0.476660854992
  MP3 triplet pair energy              -0.239737742113
  MP3 correlation energy               -0.716398597105

 !MP3 total energy                   -239.262956186802

 Timing summary (sec):

 STEP                 CPU(USER)    SYS     CPU(TOT)    WALL
 Transformation          0.36      0.04      0.40      0.52
 CCSD iterations         6.93      0.18      7.11      5.43

 Program statistics:

 Available memory in ccsd:               805305870
 Min. memory needed in ccsd:               2323550
 Max. memory used in ccsd:                 3052168
 Max. memory used in cckext:               2473006 ( 1 integral passes)



 **********************************************************************************************************************************
 DATASETS  * FILE   NREC   LENGTH (MB)   RECORD NAMES
              1      21      134.22       500      610      700      900      950      970     1000      129      960     1100   
                                          VAR    BASINP    GEOM    SYMINP    ZMAT    AOBASIS   BASIS     P2S    ABASIS      S 
                                         1400     1410     1200     1210     1080     1600     1650     1300     1700     1380   
                                           T        V       H0       H01     AOSYM     SMH    MOLCAS    ERIS     OPER     JKOP   
                                         7000   
                                        PAPT AO    

              2       6        1.81       700     1000      520     2100     2101     7000   
                                         GEOM     BASIS   MCVARS     RHF      RHF     PAPT   

 PROGRAMS   *        TOTAL      PAPT    HF-SCF    HF-SCF       INT
 CPU TIMES  *         7.21      3.58      0.35      1.81      1.37
 REAL TIME  *        13.42 SEC
 DISK USED  *       427.80 MB
 **********************************************************************************************************************************


 PROGRAM * MP4 (Closed-shell)     Authors: C. Hampel, H.-J. Werner, 1991, M. Deegan, P.J. Knowles, 1992


 Convergence thresholds:  THRVAR = 1.00D-08  THRDEN = 1.00D-06

 MP4(T)     terms to be evaluated (factor= 0.000)


 Number of core orbitals:           3 (   3 )
 Number of closed-shell orbitals:  11 (  11 )
 Number of external orbitals:     118 ( 118 )

 Molecular orbitals read from record     7000.2  Type=PAPT/CANONICAL (state 1.1)

 Number of N-1 electron functions:              11
 Number of N-2 electron functions:              66
 Number of singly external CSFs:              1298
 Number of doubly external CSFs:            843051
 Total number of CSFs:                      844350

 Length of J-op  integral file:               0.00 MB
 Length of K-op  integral file:               1.26 MB

 Memory could be reduced to 24.50 Mwords without degradation in triples

 Integral transformation finished. Total CPU:   0.73 sec, npass=  1  Memory used:  16.20 MW
 Orbital energies read from record       7000.2  Type=PAPT/CANONICAL (state 1.1)

 Reference energy:                   -238.54655759

                        CORR.ENERGY   TOTAL ENERGY   ENERGY CHANGE
 MP2:                   -0.72244127  -239.26899886    -0.72244127

 SCS-MP2 correlation energy:           -0.71555898   (PS=  1.200000  PT=  0.333333)
 SCS-MP2 total energy:               -239.26211657

 MP3(D):                -0.72260263  -239.26916022    -0.00016136
 MP4(DQ):               -0.71881036  -239.26536795     0.00379227
 MP4(SDQ):              -0.72359093  -239.27014852    -0.00478057

 Norm of t1 vector:      0.05296855      S-energy:    -0.00478057      T1 diagnostic:  0.00798531

 Largest off-diagonal element in interal  block of Fock matrix:  0.13D+00
 Largest off-diagonal element in external block of Fock matrix:  0.59D+00


 Total CPU time for triples:     14.17 sec


 RESULTS
 =======

  Reference energy                   -238.546557589697
  MP4(SDQ) singlet pair energy         -0.477047180456
  MP4(SDQ) triplet pair energy         -0.241763178649
  MP4(SDQ) correlation energy          -0.723590928053

  Triples contribution                 -0.021535629028
  Total correlation energy             -0.745126557081

  MP4(SDQ) total energy              -239.270148517750
 !MP4(SDTQ) total energy             -239.291684146777

 Timing summary (sec):

 STEP                 CPU(USER)    SYS     CPU(TOT)    WALL
 Transformation          0.93      0.08      1.01      1.28
 CCSD iterations         8.65      0.06      8.71      1.82
 Triples                14.17      0.91     15.08     16.26

 Program statistics:

 Available memory in ccsd:               805305870
 Min. memory needed in ccsd:               2323550
 Max. memory used in ccsd:                 3052168
 Max. memory used in cckext:               2473006 ( 1 integral passes)



 **********************************************************************************************************************************
 DATASETS  * FILE   NREC   LENGTH (MB)   RECORD NAMES
              1      22      203.75       500      610      700      900      950      970     1000      129      960     1100   
                                          VAR    BASINP    GEOM    SYMINP    ZMAT    AOBASIS   BASIS     P2S    ABASIS      S 
                                         1400     1410     1200     1210     1080     1600     1650     1300     1700     1380   
                                           T        V       H0       H01     AOSYM     SMH    MOLCAS    ERIS     OPER     JKOP   
                                         7000     1380(1)
                                        PAPT AO   JKOP   

              2       6        1.81       700     1000      520     2100     2101     7000   
                                         GEOM     BASIS   MCVARS     RHF      RHF     PAPT   

 PROGRAMS   *        TOTAL       MP4      PAPT    HF-SCF    HF-SCF       INT
 CPU TIMES  *        23.67     16.45      3.58      0.35      1.81      1.37
 REAL TIME  *        32.88 SEC
 DISK USED  *       427.80 MB
 **********************************************************************************************************************************

 Dump information in style XML to xml output                                                                      

 Orbitals will not be exported.

 **********************************************************************************************************************************

 MP4/cc-pVTZ energy=   -239.291684146777

             MP4            PAPT          HF-SCF          HF-SCF
   -239.29168415   -239.26295619   -238.54655759   -238.54655759
 **********************************************************************************************************************************
 Molpro calculation terminated
