
 Working directory              : /var/folders/2v/xbgp75_9785319ghcgb4zr4r0000gp/T//molpro.9rEIN83cTM/
 Global scratch directory       : /var/folders/2v/xbgp75_9785319ghcgb4zr4r0000gp/T//molpro.9rEIN83cTM/
 Wavefunction directory         : /Users/sacpjk/wfu/
 Main file repository           : /var/folders/2v/xbgp75_9785319ghcgb4zr4r0000gp/T//molpro.9rEIN83cTM/

 id        : peterk

 Nodes                        nprocs
 Cardiff-University-G34YLXT77Y    1
 GA implementation: MPI file
 GA implementation (serial work in mppx): MPI file

 Using customized tuning parameters: mindgm=1; mindgv=20; mindgc=4; mindgr=1; noblas=0; minvec=7
 default implementation of scratch files=df  


 Variables initialized (1032), CPU time= 0.00 sec
 
 symmetry,nosym
 
 
 geometry={
            7
     F          2.24953292     -0.16163470     -0.00906451
     C          0.83989310      0.02030650      0.00310752
     H          0.35178382     -0.87134447     -0.36481550
     H          0.52242274      0.21318049      1.01958309
     H          0.60022397      0.86229312     -0.63454561
     O         -1.81896698     -0.15832046     -0.00598050
     H         -2.74488958      0.09551952     -0.00828450
 }
 basis=cc-pVDZ
 
 charge=-1
 
 hf; ccsd(t)
 
 
 
 {put,xml;noorbitals,nobasis}
 Commands initialized (841), CPU time= 0.01 sec, 704 directives.
 Default parameters read. Elapsed time= 0.29 sec

 Checking input...
 Passed
1


                                         ***  PROGRAM SYSTEM MOLPRO  ***
                                       Copyright, TTI GmbH Stuttgart, 2015
                                    Version 2023.1 linked Tue Jun  6 09:54:11 2023


 **********************************************************************************************************************************
 LABEL *                                                                                                                                                                 
  64 bit serial version                                                                  DATE: 09-Jun-23          TIME: 15:39:27  
 **********************************************************************************************************************************

 SHA1:             8ebb0dd001088a5c915591db1a321413035db0b1
 **********************************************************************************************************************************

 Memory per process:       805 MW
 Total memory per node:   1074 MW
 Total GA space:           268 MW

 GA preallocation disabled
 GA check enabled

 Variable memory set to 805.3 MW

 ZSYMEL=NOSYM


 Geometry recognized as XYZ

 SETTING BASIS          =    CC-PVDZ
 SETTING CHARGE         =        -1.00000000                                  


 Recomputing integrals since basis changed


 Using spherical harmonics

 Library entry F      S cc-pVDZ              selected for orbital group  1
 Library entry F      P cc-pVDZ              selected for orbital group  1
 Library entry F      D cc-pVDZ              selected for orbital group  1
 Library entry C      S cc-pVDZ              selected for orbital group  2
 Library entry C      P cc-pVDZ              selected for orbital group  2
 Library entry C      D cc-pVDZ              selected for orbital group  2
 Library entry H      S cc-pVDZ              selected for orbital group  3
 Library entry H      P cc-pVDZ              selected for orbital group  3
 Library entry O      S cc-pVDZ              selected for orbital group  4
 Library entry O      P cc-pVDZ              selected for orbital group  4
 Library entry O      D cc-pVDZ              selected for orbital group  4


 PROGRAM * SEWARD (Integral evaluation for generally contracted gaussian basis sets)     Author: Roland Lindh, 1990

 Geometry written to block  1 of record 700


 Point group  C1  



 ATOMIC COORDINATES

 NR  ATOM    CHARGE       X              Y              Z

   1  F       9.00    4.251001127   -0.305445315   -0.017129441
   2  C       6.00    1.587167933    0.038373724    0.005872362
   3  H       1.00    0.664775075   -1.646602409   -0.689401381
   4  H       1.00    0.987235900    0.402852741    1.926732801
   5  H       1.00    1.134258917    1.629497836   -1.199117416
   6  O       8.00   -3.437349422   -0.299182309   -0.011301507
   7  H       1.00   -5.187089549    0.180505732   -0.015655436

 Bond lengths in Bohr (Angstrom)

 1-2  2.686028276  2-3  2.042880008  2-4  2.045108366  2-5  2.046656513  6-7  1.814307054
     ( 1.421384952)     ( 1.081045545)     ( 1.082224741)     ( 1.083043985)     ( 0.960089946)

 Bond angles

  1-2-3  109.83382105   1-2-4  108.77070472   1-2-5  108.29649717   3-2-4  109.52435453

  3-2-5  109.93347062   4-2-5  110.45808017

 NUCLEAR CHARGE:                   27
 NUMBER OF PRIMITIVE AOS:         109
 NUMBER OF SYMMETRY AOS:          106
 NUMBER OF CONTRACTIONS:           62   (   62A   )
 NUMBER OF INNER CORE ORBITALS:     0   (    0A   )
 NUMBER OF OUTER CORE ORBITALS:     3   (    3A   )
 NUMBER OF VALENCE ORBITALS:       16   (   16A   )


 NUCLEAR REPULSION ENERGY   67.43070998


 Eigenvalues of metric

         1 0.113E-01 0.219E-01 0.250E-01 0.353E-01 0.362E-01 0.415E-01 0.476E-01 0.494E-01


 Contracted 2-electron integrals neglected if value below      1.0D-11
 AO integral compression algorithm  1   Integral accuracy      1.0D-11

     8.126 MB (compressed) written to integral file ( 46.8%)


 NUMBER OF SORTED TWO-ELECTRON INTEGRALS:    1908081.     BUFFER LENGTH:  32768
 NUMBER OF SEGMENTS:   1  SEGMENT LENGTH:    1908081      RECORD LENGTH: 524288

 Memory used in sort:       2.47 MW

 SORT1 READ     2157270. AND WROTE     1677137. INTEGRALS IN      5 RECORDS. CPU TIME:     0.01 SEC, REAL TIME:     0.02 SEC
 SORT2 READ     1677137. AND WROTE     1908081. INTEGRALS IN     31 RECORDS. CPU TIME:     0.04 SEC, REAL TIME:     0.04 SEC

 FILE SIZES:   FILE 1:    38.4 MBYTE,  FILE 4:    21.0 MBYTE,   TOTAL:     59.4 MBYTE

 OPERATOR DM      FOR CENTER  0  COORDINATES:    0.000000    0.000000    0.000000


 **********************************************************************************************************************************
 DATASETS  * FILE   NREC   LENGTH (MB)   RECORD NAMES
              1      19       35.14       500      610      700      900      950      970     1000      129      960     1100   
                                          VAR    BASINP    GEOM    SYMINP    ZMAT    AOBASIS   BASIS     P2S    ABASIS      S 
                                         1400     1410     1200     1210     1080     1600     1650     1300     1700   
                                           T        V       H0       H01     AOSYM     SMH    MOLCAS    ERIS     OPER   

 PROGRAMS   *        TOTAL       INT
 CPU TIMES  *         0.31      0.22
 REAL TIME  *         2.55 SEC
 DISK USED  *        57.07 MB
 **********************************************************************************************************************************


 Program * Restricted Hartree-Fock

 Orbital guess generated from atomic densities. Full valence occupancy:   19

 Initial occupancy:  14

 NELEC=   28   SYM=1   MS2= 0   THRE=1.0D-08   THRD=3.2D-06   THRG=3.2D-06  HFMA2=F  DIIS_START=2   DIIS_MAX=10   DIIS_INCORE=F

 Level shifts:    0.00 (CLOSED)    0.00 (OPEN)    0.30 (GAP_MIN)

 ITER           ETOT              DE          GRAD        DDIFF     DIIS  NEXP   TIME(IT)  TIME(TOT)  DIAG
   1     -214.27393101    -214.27393101     0.00D+00     0.16D+00     0     0       0.01      0.02    start
   2     -214.36269571      -0.08876470     0.16D-01     0.35D-01     1     0       0.01      0.03    diag
   3     -214.40765432      -0.04495861     0.97D-02     0.13D-01     2     0       0.01      0.04    diag
   4     -214.40821209      -0.00055777     0.68D-03     0.16D-02     3     0       0.01      0.05    diag
   5     -214.40825586      -0.00004377     0.19D-03     0.50D-03     4     0       0.01      0.06    diag
   6     -214.40825927      -0.00000341     0.52D-04     0.12D-03     5     0       0.01      0.07    diag
   7     -214.40825985      -0.00000059     0.23D-04     0.55D-04     6     0       0.01      0.08    diag
   8     -214.40825990      -0.00000004     0.50D-05     0.18D-04     7     0       0.01      0.09    fixocc
   9     -214.40825990      -0.00000000     0.11D-05     0.34D-05     8     0       0.01      0.10    diag
  10     -214.40825990      -0.00000000     0.24D-06     0.77D-06     9     0       0.01      0.11    diag/orth
  11     -214.40825990      -0.00000000     0.70D-07     0.16D-06     0     0       0.00      0.11    diag

 Final occupancy:  14

 !RHF STATE 1.1 Energy               -214.408259900004
  RHF One-electron energy            -438.060381342566
  RHF Two-electron energy             156.221411467152
  RHF Kinetic energy                  214.525180139007
  RHF Nuclear energy                   67.430709975409
  RHF Virial quotient                  -0.999454981280

 !RHF STATE 1.1 Dipole moment           1.55035622     0.46403153     0.01538349
 Dipole moment /Debye                   3.94061247     1.17945051     0.03910092

 Orbital energies:

           1.1          2.1          3.1          4.1          5.1          6.1          7.1          8.1          9.1         10.1
    -26.086946   -20.120480   -11.107416    -1.390381    -0.862616    -0.751986    -0.497047    -0.495499    -0.469921    -0.338019

          11.1         12.1         13.1         14.1         15.1         16.1
     -0.334510    -0.208036    -0.073623    -0.072296     0.382030     0.446152


 HOMO     14.1    -0.072296 =      -1.9673eV
 LUMO     15.1     0.382030 =      10.3956eV
 LUMO-HOMO         0.454327 =      12.3629eV

 Orbitals saved in record  2100.2


 **********************************************************************************************************************************
 DATASETS  * FILE   NREC   LENGTH (MB)   RECORD NAMES
              1      19       35.14       500      610      700      900      950      970     1000      129      960     1100   
                                          VAR    BASINP    GEOM    SYMINP    ZMAT    AOBASIS   BASIS     P2S    ABASIS      S 
                                         1400     1410     1200     1210     1080     1600     1650     1300     1700   
                                           T        V       H0       H01     AOSYM     SMH    MOLCAS    ERIS     OPER   

              2       4        0.54       700     1000      520     2100   
                                         GEOM     BASIS   MCVARS     RHF  

 PROGRAMS   *        TOTAL    HF-SCF       INT
 CPU TIMES  *         0.43      0.12      0.22
 REAL TIME  *         2.93 SEC
 DISK USED  *        57.07 MB
 **********************************************************************************************************************************


 PROGRAM * CCSD (Closed-shell coupled cluster)     Authors: C. Hampel, H.-J. Werner, 1991, M. Deegan, P.J. Knowles, 1992


 Convergence thresholds:  THRVAR = 1.00D-08  THRDEN = 1.00D-06

 CCSD(T)     terms to be evaluated (factor= 1.000)


 Number of core orbitals:           3 (   3 )
 Number of closed-shell orbitals:  11 (  11 )
 Number of external orbitals:      48 (  48 )

 Molecular orbitals read from record     2100.2  Type=RHF/CANONICAL  

 Number of N-1 electron functions:              11
 Number of N-2 electron functions:              66
 Number of singly external CSFs:               528
 Number of doubly external CSFs:            139656
 Total number of CSFs:                      140185

 Length of J-op  integral file:               0.00 MB
 Length of K-op  integral file:               0.33 MB
 Length of 3-ext integral record:             0.00 MB

 Memory could be reduced to 1.94 Mwords without degradation in triples

 Integral transformation finished. Total CPU:   0.04 sec, npass=  1  Memory used:   2.00 MW

 Reference energy:                   -214.40825990

 MP2 singlet pair energy:              -0.33350296
 MP2 triplet pair energy:              -0.19883048
 MP2 correlation energy:               -0.53233344
 MP2 total energy:                   -214.94059334

 SCS-MP2 correlation energy:           -0.52392029   (PS=  1.200000  PT=  0.333333)
 SCS-MP2 total energy:               -214.93218019

 ITER.      SQ.NORM     CORR.ENERGY   TOTAL ENERGY   ENERGY CHANGE        DEN1      VAR(S)    VAR(P)  DIIS     TIME  TIME/IT
   1      1.14601885    -0.55804261  -214.96630251    -0.02570917    -0.01345430  0.20D-02  0.23D-02  1  1     0.72     0.15
   2      1.15679479    -0.56018643  -214.96844633    -0.00214383    -0.01212910  0.39D-04  0.30D-03  2  2     0.86     0.15
   3      1.16008640    -0.56051052  -214.96877042    -0.00032409    -0.00195922  0.44D-04  0.14D-04  3  3     1.00     0.16
   4      1.16111623    -0.56048282  -214.96874272     0.00002770    -0.00045331  0.42D-05  0.22D-05  4  4     1.14     0.16
   5      1.16149180    -0.56046939  -214.96872929     0.00001343    -0.00010770  0.13D-05  0.30D-06  5  5     1.28     0.17
   6      1.16163628    -0.56046643  -214.96872633     0.00000297    -0.00001987  0.31D-06  0.58D-07  6  6     1.42     0.17
   7      1.16169968    -0.56046397  -214.96872387     0.00000245    -0.00000308  0.40D-07  0.12D-07  6  1     1.56     0.18
   8      1.16172464    -0.56046268  -214.96872258     0.00000129    -0.00000377  0.82D-08  0.18D-08  6  2     1.70     0.18
   9      1.16173010    -0.56046301  -214.96872291    -0.00000033     0.00000102  0.16D-08  0.35D-09  6  3     1.83     0.18
  10      1.16173238    -0.56046281  -214.96872271     0.00000020    -0.00000061  0.60D-09  0.70D-10  6  4     1.97     0.18

 Norm of t1 vector:      0.06643891      S-energy:     0.00000037      T1 diagnostic:  0.01001604
                                                                       D1 diagnostic:  0.03037110
                                                                       D2 diagnostic:  0.13185949 (internal)


 Total CPU time for triples:      0.59 sec


 RESULTS
 =======

  Reference energy                   -214.408259900005
  CCSD singlet pair energy             -0.381679812312
  CCSD triplet pair energy             -0.178783361664
  CCSD correlation energy              -0.560462807208

  Triples (T) contribution             -0.009247653436
  Total correlation energy             -0.569710460644

  CCSD total energy                  -214.968722707212
  CCSD[T] energy                     -214.978645286334
  CCSD-T energy                      -214.977700261009
 !CCSD(T) total energy               -214.977970360648

 Timing summary (sec):

 STEP                 CPU(USER)    SYS     CPU(TOT)    WALL
 Transformation          0.04      0.01      0.05      0.13
 CCSD iterations         1.95      0.11      2.06      1.94
 Triples                 0.59      0.04      0.63      0.71

 Program statistics:

 Available memory in ccsd:               805305870
 Min. memory needed in ccsd:                431957
 Max. memory used in ccsd:                  542265
 Max. memory used in cckext:                580037 (10 integral passes)



 **********************************************************************************************************************************
 DATASETS  * FILE   NREC   LENGTH (MB)   RECORD NAMES
              1      20       42.85       500      610      700      900      950      970     1000      129      960     1100   
                                          VAR    BASINP    GEOM    SYMINP    ZMAT    AOBASIS   BASIS     P2S    ABASIS      S 
                                         1400     1410     1200     1210     1080     1600     1650     1300     1700     1380   
                                           T        V       H0       H01     AOSYM     SMH    MOLCAS    ERIS     OPER     JKOP   

              2       4        0.54       700     1000      520     2100   
                                         GEOM     BASIS   MCVARS     RHF  

 PROGRAMS   *        TOTAL   CCSD(T)    HF-SCF       INT
 CPU TIMES  *         2.49      2.06      0.12      0.22
 REAL TIME  *         5.86 SEC
 DISK USED  *        67.67 MB
 **********************************************************************************************************************************

 Dump information in style XML to xml output                                                                      

 Orbitals will not be exported.

 **********************************************************************************************************************************

 CCSD(T)/cc-pVDZ energy=   -214.977970360648

         CCSD(T)          HF-SCF
   -214.97797036   -214.40825990
 **********************************************************************************************************************************
 Molpro calculation terminated
