
 Working directory              : /var/folders/2v/xbgp75_9785319ghcgb4zr4r0000gp/T//molpro.6Zj1rSY9FG/
 Global scratch directory       : /var/folders/2v/xbgp75_9785319ghcgb4zr4r0000gp/T//molpro.6Zj1rSY9FG/
 Wavefunction directory         : /Users/sacpjk/wfu/
 Main file repository           : /var/folders/2v/xbgp75_9785319ghcgb4zr4r0000gp/T//molpro.6Zj1rSY9FG/

 id        : peterk

 Nodes                        nprocs
 Cardiff-University-G34YLXT77Y    1
 GA implementation: MPI file
 GA implementation (serial work in mppx): MPI file

 Using customized tuning parameters: mindgm=1; mindgv=20; mindgc=4; mindgr=1; noblas=0; minvec=7
 default implementation of scratch files=df  


 Variables initialized (1032), CPU time= 0.01 sec
 
 symmetry,nosym
 
 
 geometry={
            3
     C          0.00000000      0.00000000     -0.02902643
     N          0.00000000      0.00000000      1.12397830
     H          0.00000000      0.00000000     -1.09495187
 }
 basis=cc-pVTZ
 
 
 
 hf; hf; papt; mp3
 
 
 
 {put,xml;noorbitals,nobasis}
 Commands initialized (841), CPU time= 0.00 sec, 704 directives.
 Default parameters read. Elapsed time= 0.08 sec

 Checking input...
 Passed
1


                                         ***  PROGRAM SYSTEM MOLPRO  ***
                                       Copyright, TTI GmbH Stuttgart, 2015
                                    Version 2023.1 linked Tue Jun  6 09:54:11 2023


 **********************************************************************************************************************************
 LABEL *                                                                                                                                                                 
  64 bit serial version                                                                  DATE: 09-Jun-23          TIME: 09:30:44  
 **********************************************************************************************************************************

 SHA1:             8ebb0dd001088a5c915591db1a321413035db0b1
 **********************************************************************************************************************************

 Memory per process:       805 MW
 Total memory per node:   1074 MW
 Total GA space:           268 MW

 GA preallocation disabled
 GA check enabled

 Variable memory set to 805.3 MW

 ZSYMEL=NOSYM


 Geometry recognized as XYZ

 SETTING BASIS          =    CC-PVTZ


 Recomputing integrals since basis changed


 Using spherical harmonics

 Library entry C      S cc-pVTZ              selected for orbital group  1
 Library entry C      P cc-pVTZ              selected for orbital group  1
 Library entry C      D cc-pVTZ              selected for orbital group  1
 Library entry C      F cc-pVTZ              selected for orbital group  1
 Library entry N      S cc-pVTZ              selected for orbital group  2
 Library entry N      P cc-pVTZ              selected for orbital group  2
 Library entry N      D cc-pVTZ              selected for orbital group  2
 Library entry N      F cc-pVTZ              selected for orbital group  2
 Library entry H      S cc-pVTZ              selected for orbital group  3
 Library entry H      P cc-pVTZ              selected for orbital group  3
 Library entry H      D cc-pVTZ              selected for orbital group  3


 PROGRAM * SEWARD (Integral evaluation for generally contracted gaussian basis sets)     Author: Roland Lindh, 1990

 Geometry written to block  1 of record 700


 Point group  C1  



 ATOMIC COORDINATES

 NR  ATOM    CHARGE       X              Y              Z

   1  C       6.00    0.000000000    0.000000000   -0.054852003
   2  N       7.00    0.000000000    0.000000000    2.124011157
   3  H       1.00    0.000000000    0.000000000   -2.069159154

 Bond lengths in Bohr (Angstrom)

 1-2  2.178863160  1-3  2.014307151
     ( 1.153004730)     ( 1.065925440)

 Bond angles

  2-1-3  180.00000000

 NUCLEAR CHARGE:                   14
 NUMBER OF PRIMITIVE AOS:         111
 NUMBER OF SYMMETRY AOS:          100
 NUMBER OF CONTRACTIONS:           74   (   74A   )
 NUMBER OF INNER CORE ORBITALS:     0   (    0A   )
 NUMBER OF OUTER CORE ORBITALS:     2   (    2A   )
 NUMBER OF VALENCE ORBITALS:        9   (    9A   )


 NUCLEAR REPULSION ENERGY   23.92418025

 EXTRA SYMMETRY OF AOS IN SYMMETRY 1:   1 1 1 1 2 3 1 2 3 1   2 3 1 1 4 2 5 3 1 4   2 5 3 2 3 1 6 4 7 5   1 1 1 1 2 3 1 2 3 1
                                        2 3 1 1 4 2 5 3 1 4   2 5 3 2 3 1 6 4 7 5   1 1 1 2 3 1 2 3 1 1   4 2 5 3

 Eigenvalues of metric

         1 0.108E-02 0.145E-02 0.245E-02 0.632E-02 0.109E-01 0.153E-01 0.153E-01 0.191E-01


 Contracted 2-electron integrals neglected if value below      1.0D-11
 AO integral compression algorithm  1   Integral accuracy      1.0D-11

     6.291 MB (compressed) written to integral file ( 15.6%)


 NUMBER OF SORTED TWO-ELECTRON INTEGRALS:    3851700.     BUFFER LENGTH:  32768
 NUMBER OF SEGMENTS:   1  SEGMENT LENGTH:    3851700      RECORD LENGTH: 524288

 Memory used in sort:       4.41 MW

 SORT1 READ     4876733. AND WROTE      813022. INTEGRALS IN      3 RECORDS. CPU TIME:     0.02 SEC, REAL TIME:     0.02 SEC
 SORT2 READ      813022. AND WROTE     3851700. INTEGRALS IN     24 RECORDS. CPU TIME:     0.05 SEC, REAL TIME:     0.06 SEC

 FILE SIZES:   FILE 1:    36.5 MBYTE,  FILE 4:    12.6 MBYTE,   TOTAL:     49.2 MBYTE

 OPERATOR DM      FOR CENTER  0  COORDINATES:    0.000000    0.000000    0.000000


 **********************************************************************************************************************************
 DATASETS  * FILE   NREC   LENGTH (MB)   RECORD NAMES
              1      19       33.11       500      610      700      900      950      970     1000      129      960     1100   
                                          VAR    BASINP    GEOM    SYMINP    ZMAT    AOBASIS   BASIS     P2S    ABASIS      S 
                                         1400     1410     1200     1210     1080     1600     1650     1300     1700   
                                           T        V       H0       H01     AOSYM     SMH    MOLCAS    ERIS     OPER   

 PROGRAMS   *        TOTAL       INT
 CPU TIMES  *         0.33      0.24
 REAL TIME  *         0.67 SEC
 DISK USED  *        47.25 MB
 **********************************************************************************************************************************


 Program * Restricted Hartree-Fock

 Orbital guess generated from atomic densities. Full valence occupancy:   11

 Initial occupancy:   7

 NELEC=   14   SYM=1   MS2= 0   THRE=1.0D-08   THRD=3.2D-06   THRG=3.2D-06  HFMA2=F  DIIS_START=2   DIIS_MAX=10   DIIS_INCORE=F

 Level shifts:    0.00 (CLOSED)    0.00 (OPEN)    0.30 (GAP_MIN)

 ITER           ETOT              DE          GRAD        DDIFF     DIIS  NEXP   TIME(IT)  TIME(TOT)  DIAG
   1      -92.88378539     -92.88378539     0.00D+00     0.94D-01     0     0       0.02      0.03    start
   2      -92.89280828      -0.00902288     0.70D-02     0.11D-01     1     0       0.01      0.04    diag
   3      -92.90784561      -0.01503733     0.63D-02     0.54D-02     2     0       0.02      0.06    diag
   4      -92.90806386      -0.00021825     0.50D-03     0.85D-03     3     0       0.02      0.08    diag
   5      -92.90807601      -0.00001215     0.11D-03     0.23D-03     4     0       0.01      0.09    diag
   6      -92.90807674      -0.00000073     0.30D-04     0.52D-04     5     0       0.02      0.11    diag
   7      -92.90807681      -0.00000007     0.11D-04     0.18D-04     6     0       0.01      0.12    diag
   8      -92.90807681      -0.00000000     0.21D-05     0.33D-05     7     0       0.02      0.14    fixocc
   9      -92.90807681      -0.00000000     0.23D-06     0.46D-06     8     0       0.01      0.15    diag
  10      -92.90807681      -0.00000000     0.23D-07     0.33D-07     0     0       0.02      0.17    diag/orth

 Final occupancy:   7

 !RHF STATE 1.1 Energy                -92.908076814514
  RHF One-electron energy            -172.648945520100
  RHF Two-electron energy              55.816688456718
  RHF Kinetic energy                   92.704736486318
  RHF Nuclear energy                   23.924180248868
  RHF Virial quotient                  -1.002193418976

 !RHF STATE 1.1 Dipole moment          -0.00000000     0.00000000    -1.28089358
 Dipole moment /Debye                  -0.00000000     0.00000000    -3.25570673

 Orbital energies:

           1.1          2.1          3.1          4.1          5.1          6.1          7.1          8.1          9.1
    -15.597940   -11.290482    -1.235503    -0.811666    -0.580961    -0.495617    -0.495617     0.141833     0.166934


 HOMO      7.1    -0.495617 =     -13.4864eV
 LUMO      8.1     0.141833 =       3.8595eV
 LUMO-HOMO         0.637449 =      17.3459eV

 Orbitals saved in record  2100.2


 **********************************************************************************************************************************
 DATASETS  * FILE   NREC   LENGTH (MB)   RECORD NAMES
              1      19       33.11       500      610      700      900      950      970     1000      129      960     1100   
                                          VAR    BASINP    GEOM    SYMINP    ZMAT    AOBASIS   BASIS     P2S    ABASIS      S 
                                         1400     1410     1200     1210     1080     1600     1650     1300     1700   
                                           T        V       H0       H01     AOSYM     SMH    MOLCAS    ERIS     OPER   

              2       4        0.50       700     1000      520     2100   
                                         GEOM     BASIS   MCVARS     RHF  

 PROGRAMS   *        TOTAL    HF-SCF       INT
 CPU TIMES  *         0.50      0.17      0.24
 REAL TIME  *         1.02 SEC
 DISK USED  *        47.25 MB
 **********************************************************************************************************************************


 Program * Restricted Hartree-Fock

 Molecular orbitals read from record     2100.2  Type=RHF/CANONICAL  

 Initial occupancy:   7

 NELEC=   14   SYM=1   MS2= 0   THRE=1.0D-08   THRD=3.2D-06   THRG=3.2D-06  HFMA2=F  DIIS_START=2   DIIS_MAX=10   DIIS_INCORE=F

 Level shifts:    0.00 (CLOSED)    0.00 (OPEN)    0.30 (GAP_MIN)

 ITER           ETOT              DE          GRAD        DDIFF     DIIS  NEXP   TIME(IT)  TIME(TOT)  DIAG
   1      -92.90807681     -92.90807681     0.00D+00     0.95D-01     0     0       0.01      0.01    start
   2      -92.90807681      -0.00000000     0.96D-08     0.15D-07     1     0       0.02      0.03    diag

 Final occupancy:   7

 !RHF STATE 1.1 Energy                -92.908076814514
  RHF One-electron energy            -172.648944898474
  RHF Two-electron energy              55.816687835092
  RHF Kinetic energy                   92.704735829955
  RHF Nuclear energy                   23.924180248868
  RHF Virial quotient                  -1.002193426072

 !RHF STATE 1.1 Dipole moment          -0.00000000     0.00000000    -1.28089255
 Dipole moment /Debye                  -0.00000000     0.00000000    -3.25570412

 Orbital energies:

           1.1          2.1          3.1          4.1          5.1          6.1          7.1          8.1          9.1
    -15.597939   -11.290483    -1.235502    -0.811666    -0.580961    -0.495617    -0.495617     0.141833     0.166934


 HOMO      7.1    -0.495617 =     -13.4864eV
 LUMO      8.1     0.141833 =       3.8595eV
 LUMO-HOMO         0.637449 =      17.3459eV

 Orbitals saved in record  2101.2


 **********************************************************************************************************************************
 DATASETS  * FILE   NREC   LENGTH (MB)   RECORD NAMES
              1      19       33.11       500      610      700      900      950      970     1000      129      960     1100   
                                          VAR    BASINP    GEOM    SYMINP    ZMAT    AOBASIS   BASIS     P2S    ABASIS      S 
                                         1400     1410     1200     1210     1080     1600     1650     1300     1700   
                                           T        V       H0       H01     AOSYM     SMH    MOLCAS    ERIS     OPER   

              2       5        0.75       700     1000      520     2100     2101   
                                         GEOM     BASIS   MCVARS     RHF      RHF  

 PROGRAMS   *        TOTAL    HF-SCF    HF-SCF       INT
 CPU TIMES  *         0.54      0.04      0.17      0.24
 REAL TIME  *         1.16 SEC
 DISK USED  *        47.25 MB
 **********************************************************************************************************************************


 PROGRAM * PAPT (Closed-shell)     Authors: C. Hampel, H.-J. Werner, 1991, P.J. Knowles, 2021


 Convergence thresholds:  THRVAR = 1.00D-08  THRDEN = 1.00D-06

 Number of core orbitals:           2 (   2 )
 Number of closed-shell orbitals:   5 (   5 )
 Number of external orbitals:      67 (  67 )

 Molecular orbitals read from record     2101.2  Type=RHF/CANONICAL  

 Number of N-1 electron functions:               5
 Number of N-2 electron functions:              15
 Number of singly external CSFs:               335
 Number of doubly external CSFs:             56280
 Total number of CSFs:                       56616

 Length of J-op  integral file:               0.00 MB
 Length of K-op  integral file:               0.44 MB

 Integral transformation finished. Total CPU:   0.02 sec, npass=  1  Memory used:   0.29 MW

 Reference energy:                    -92.90807681

                        CORR.ENERGY   TOTAL ENERGY   ENERGY CHANGE
 MP2:                   -0.34512908   -93.25320590    -0.34512908

 SCS-MP2 correlation energy:           -0.34068278   (PS=  1.200000  PT=  0.333333)
 SCS-MP2 total energy:                -93.24875960
 Iteration:   1     0.2572D+00
 Iteration:   2     0.3877D+00
 Iteration:   3     0.1036D+00
 Iteration:   4     0.5550D-01
 Iteration:   5     0.5776D-01
 Iteration:   6     0.1643D-01
 Iteration:   7     0.3002D-01
 Iteration:   8     0.5520D-02
 Iteration:   9     0.4390D-02
 Iteration:  10     0.3550D-02
 Iteration:  11     0.3670D-03
 Iteration:  12     0.8212D-04
 PAPT operator written to  7000.1
 PAPT orbitals and eigenvalues written to  7000.2

 MP3(D):                -0.34439722   -93.25247404     0.00073186



 RESULTS
 =======

  Reference energy                    -92.908076814514
  MP3 singlet pair energy              -0.233251020208
  MP3 triplet pair energy              -0.111146204525
  MP3 correlation energy               -0.344397224733

 !MP3 total energy                    -93.252474039247

 Timing summary (sec):

 STEP                 CPU(USER)    SYS     CPU(TOT)    WALL
 Transformation          0.02      0.00      0.02      0.04
 CCSD iterations         0.74      0.03      0.77      0.17

 Program statistics:

 Available memory in ccsd:               805306261
 Min. memory needed in ccsd:                230499
 Max. memory used in ccsd:                  270789
 Max. memory used in cckext:                224923 ( 1 integral passes)



 **********************************************************************************************************************************
 DATASETS  * FILE   NREC   LENGTH (MB)   RECORD NAMES
              1      21       34.16       500      610      700      900      950      970     1000      129      960     1100   
                                          VAR    BASINP    GEOM    SYMINP    ZMAT    AOBASIS   BASIS     P2S    ABASIS      S 
                                         1400     1410     1200     1210     1080     1600     1650     1300     1700     1380   
                                           T        V       H0       H01     AOSYM     SMH    MOLCAS    ERIS     OPER     JKOP   
                                         7000   
                                        PAPT AO    

              2       6        0.97       700     1000      520     2100     2101     7000   
                                         GEOM     BASIS   MCVARS     RHF      RHF     PAPT   

 PROGRAMS   *        TOTAL      PAPT    HF-SCF    HF-SCF       INT
 CPU TIMES  *         0.68      0.14      0.04      0.17      0.24
 REAL TIME  *         1.42 SEC
 DISK USED  *        47.25 MB
 **********************************************************************************************************************************


 PROGRAM * MP3 (Closed-shell)     Authors: C. Hampel, H.-J. Werner, 1991, M. Deegan, P.J. Knowles, 1992


 Convergence thresholds:  THRVAR = 1.00D-08  THRDEN = 1.00D-06

 Number of core orbitals:           2 (   2 )
 Number of closed-shell orbitals:   5 (   5 )
 Number of external orbitals:      67 (  67 )

 Molecular orbitals read from record     7000.2  Type=PAPT/CANONICAL (state 1.1)

 Number of N-1 electron functions:               5
 Number of N-2 electron functions:              15
 Number of singly external CSFs:               335
 Number of doubly external CSFs:             56280
 Total number of CSFs:                       56616

 Length of J-op  integral file:               0.00 MB
 Length of K-op  integral file:               0.44 MB

 Integral transformation finished. Total CPU:   0.01 sec, npass=  1  Memory used:   0.29 MW
 Orbital energies read from record       7000.2  Type=PAPT/CANONICAL (state 1.1)

 Reference energy:                    -92.90807681

                        CORR.ENERGY   TOTAL ENERGY   ENERGY CHANGE
 MP2:                   -0.34908275   -93.25715957    -0.34908275

 SCS-MP2 correlation energy:           -0.34686967   (PS=  1.200000  PT=  0.333333)
 SCS-MP2 total energy:                -93.25494648

 MP3(D):                -0.34891852   -93.25699533     0.00016424



 RESULTS
 =======

  Reference energy                    -92.908076814514
  MP3 singlet pair energy              -0.235893565409
  MP3 triplet pair energy              -0.113024952637
  MP3 correlation energy               -0.348918518046

 !MP3 total energy                    -93.256995332560

 Timing summary (sec):

 STEP                 CPU(USER)    SYS     CPU(TOT)    WALL
 Transformation          0.03      0.01      0.04      0.09
 CCSD iterations         0.83      0.00      0.83      0.08

 Program statistics:

 Available memory in ccsd:               805306261
 Min. memory needed in ccsd:                230499
 Max. memory used in ccsd:                  270789
 Max. memory used in cckext:                224923 ( 1 integral passes)



 **********************************************************************************************************************************
 DATASETS  * FILE   NREC   LENGTH (MB)   RECORD NAMES
              1      21       34.16       500      610      700      900      950      970     1000      129      960     1100   
                                          VAR    BASINP    GEOM    SYMINP    ZMAT    AOBASIS   BASIS     P2S    ABASIS      S 
                                         1400     1410     1200     1210     1080     1600     1650     1300     1700     1380   
                                           T        V       H0       H01     AOSYM     SMH    MOLCAS    ERIS     OPER     JKOP   
                                         7000   
                                        PAPT AO    

              2       6        0.97       700     1000      520     2100     2101     7000   
                                         GEOM     BASIS   MCVARS     RHF      RHF     PAPT   

 PROGRAMS   *        TOTAL       MP3      PAPT    HF-SCF    HF-SCF       INT
 CPU TIMES  *         0.77      0.09      0.14      0.04      0.17      0.24
 REAL TIME  *         1.63 SEC
 DISK USED  *        47.25 MB
 **********************************************************************************************************************************

 Dump information in style XML to xml output                                                                      

 Orbitals will not be exported.

 **********************************************************************************************************************************

 MP3/cc-pVTZ energy=    -93.256995332560

             MP3            PAPT          HF-SCF          HF-SCF
    -93.25699533    -93.25247404    -92.90807681    -92.90807681
 **********************************************************************************************************************************
 Molpro calculation terminated
