
 Working directory              : /var/folders/2v/xbgp75_9785319ghcgb4zr4r0000gp/T//molpro.srJHGHuZCP/
 Global scratch directory       : /var/folders/2v/xbgp75_9785319ghcgb4zr4r0000gp/T//molpro.srJHGHuZCP/
 Wavefunction directory         : /Users/sacpjk/wfu/
 Main file repository           : /var/folders/2v/xbgp75_9785319ghcgb4zr4r0000gp/T//molpro.srJHGHuZCP/

 id        : peterk

 Nodes                        nprocs
 Cardiff-University-G34YLXT77Y    1
 GA implementation: MPI file
 GA implementation (serial work in mppx): MPI file

 Using customized tuning parameters: mindgm=1; mindgv=20; mindgc=4; mindgr=1; noblas=0; minvec=7
 default implementation of scratch files=df  


 Variables initialized (1032), CPU time= 0.01 sec
 
 symmetry,nosym
 
 
 geometry={
 6
  o          0.220790846086    1.075092987171   -0.006674360761
  h          1.185059642311    1.042620442310   -0.006320630642
  c         -0.240638072874   -0.260358989868    0.001598379350
  h         -1.326924574928   -0.228972553793    0.000735958021
  h          0.081387122301   -0.819843549718   -0.879930624021
  h          0.080325037105   -0.808538336101    0.890591278054
 }
 basis=aug-cc-pVTZ
 
 
 
 hf; mp3
 
 
 
 {put,xml;noorbitals,nobasis}
 Commands initialized (841), CPU time= 0.00 sec, 704 directives.
 Default parameters read. Elapsed time= 0.08 sec

 Checking input...
 Passed
1


                                         ***  PROGRAM SYSTEM MOLPRO  ***
                                       Copyright, TTI GmbH Stuttgart, 2015
                                    Version 2023.1 linked Tue Jun  6 09:54:11 2023


 **********************************************************************************************************************************
 LABEL *                                                                                                                                                                 
  64 bit serial version                                                                  DATE: 08-Jun-23          TIME: 23:42:33  
 **********************************************************************************************************************************

 SHA1:             8ebb0dd001088a5c915591db1a321413035db0b1
 **********************************************************************************************************************************

 Memory per process:       805 MW
 Total memory per node:   1074 MW
 Total GA space:           268 MW

 GA preallocation disabled
 GA check enabled

 Variable memory set to 805.3 MW

 ZSYMEL=NOSYM


 Geometry recognized as XYZ

 SETTING BASIS          =    AUG-CC-PVTZ


 Recomputing integrals since basis changed


 Using spherical harmonics

 Library entry O      S aug-cc-pVTZ          selected for orbital group  1
 Library entry O      P aug-cc-pVTZ          selected for orbital group  1
 Library entry O      D aug-cc-pVTZ          selected for orbital group  1
 Library entry O      F aug-cc-pVTZ          selected for orbital group  1
 Library entry H      S aug-cc-pVTZ          selected for orbital group  2
 Library entry H      P aug-cc-pVTZ          selected for orbital group  2
 Library entry H      D aug-cc-pVTZ          selected for orbital group  2
 Library entry C      S aug-cc-pVTZ          selected for orbital group  3
 Library entry C      P aug-cc-pVTZ          selected for orbital group  3
 Library entry C      D aug-cc-pVTZ          selected for orbital group  3
 Library entry C      F aug-cc-pVTZ          selected for orbital group  3


 PROGRAM * SEWARD (Integral evaluation for generally contracted gaussian basis sets)     Author: Roland Lindh, 1990

 Geometry written to block  1 of record 700


 Point group  C1  



 ATOMIC COORDINATES

 NR  ATOM    CHARGE       X              Y              Z

   1  O       8.00    0.417234230    2.031631304   -0.012612714
   2  H       1.00    2.239438165    1.970267088   -0.011944261
   3  C       6.00   -0.454740053   -0.492007185    0.003020499
   4  H       1.00   -2.507524035   -0.432695417    0.001390759
   5  H       1.00    0.153799371   -1.549279774   -1.662827888
   6  H       1.00    0.151792321   -1.527916016    1.682973605

 Bond lengths in Bohr (Angstrom)

 1-2  1.823237010  1-3  2.670081417  3-4  2.053641307  3-5  2.064750931  3-6  2.064759323
     ( 0.964815476)     ( 1.412946237)     ( 1.086740179)     ( 1.092619139)     ( 1.092623580)

 Bond angles

  1-3-4  107.40559297   1-3-5  112.51964703   1-3-6  112.52114045   2-1-3  107.13200477

  4-3-5  107.98411746   4-3-6  107.98497415   5-3-6  108.23763290

 NUCLEAR CHARGE:                   18
 NUMBER OF PRIMITIVE AOS:         242
 NUMBER OF SYMMETRY AOS:          216
 NUMBER OF CONTRACTIONS:          184   (  184A   )
 NUMBER OF INNER CORE ORBITALS:     0   (    0A   )
 NUMBER OF OUTER CORE ORBITALS:     2   (    2A   )
 NUMBER OF VALENCE ORBITALS:       12   (   12A   )


 NUCLEAR REPULSION ENERGY   40.42326360

 Eigenvalues of metric

         1 0.612E-04 0.727E-04 0.888E-04 0.203E-03 0.396E-03 0.482E-03 0.755E-03 0.769E-03


 Contracted 2-electron integrals neglected if value below      1.0D-11
 AO integral compression algorithm  1   Integral accuracy      1.0D-11

     714.867 MB (compressed) written to integral file ( 52.6%)


 NUMBER OF SORTED TWO-ELECTRON INTEGRALS:  144848710.     BUFFER LENGTH:  32768
 NUMBER OF SEGMENTS:  10  SEGMENT LENGTH:   15999503      RECORD LENGTH: 524288

 Memory used in sort:      16.56 MW

 SORT1 READ   170053774. AND WROTE   143565468. INTEGRALS IN    414 RECORDS. CPU TIME:     1.03 SEC, REAL TIME:     1.59 SEC
 SORT2 READ   143565468. AND WROTE   144848710. INTEGRALS IN   2727 RECORDS. CPU TIME:     0.83 SEC, REAL TIME:     1.21 SEC

 FILE SIZES:   FILE 1:   746.2 MBYTE,  FILE 4:  1736.5 MBYTE,   TOTAL:   2482.7 MBYTE

 OPERATOR DM      FOR CENTER  0  COORDINATES:    0.000000    0.000000    0.000000


 **********************************************************************************************************************************
 DATASETS  * FILE   NREC   LENGTH (MB)   RECORD NAMES
              1      19      625.85       500      610      700      900      950      970     1000      129      960     1100   
                                          VAR    BASINP    GEOM    SYMINP    ZMAT    AOBASIS   BASIS     P2S    ABASIS      S 
                                         1400     1410     1200     1210     1080     1600     1650     1300     1700   
                                           T        V       H0       H01     AOSYM     SMH    MOLCAS    ERIS     OPER   

 PROGRAMS   *        TOTAL       INT
 CPU TIMES  *         4.90      4.80
 REAL TIME  *         7.27 SEC
 DISK USED  *         2.31 GB
 **********************************************************************************************************************************


 Program * Restricted Hartree-Fock

 Orbital guess generated from atomic densities. Full valence occupancy:   14

 Initial occupancy:   9

 NELEC=   18   SYM=1   MS2= 0   THRE=1.0D-08   THRD=3.2D-06   THRG=3.2D-06  HFMA2=F  DIIS_START=2   DIIS_MAX=10   DIIS_INCORE=F

 Level shifts:    0.00 (CLOSED)    0.00 (OPEN)    0.30 (GAP_MIN)

 ITER           ETOT              DE          GRAD        DDIFF     DIIS  NEXP   TIME(IT)  TIME(TOT)  DIAG
   1     -115.05602768    -115.05602768     0.00D+00     0.46D-01     0     0       0.64      1.29    start
   2     -115.08413415      -0.02810647     0.49D-02     0.53D-02     1     0       0.58      1.87    diag
   3     -115.09133375      -0.00719960     0.27D-02     0.17D-02     2     0       0.57      2.44    diag
   4     -115.09186583      -0.00053208     0.53D-03     0.45D-03     3     0       0.62      3.06    diag
   5     -115.09189909      -0.00003326     0.11D-03     0.10D-03     4     0       0.61      3.67    diag
   6     -115.09190064      -0.00000155     0.20D-04     0.28D-04     5     0       0.61      4.28    diag
   7     -115.09190072      -0.00000007     0.42D-05     0.65D-05     6     0       0.65      4.93    diag
   8     -115.09190072      -0.00000000     0.11D-05     0.17D-05     7     0       0.60      5.53    fixocc
   9     -115.09190072      -0.00000000     0.33D-06     0.38D-06     0     0       0.59      6.12    diag

 Final occupancy:   9

 !RHF STATE 1.1 Energy               -115.091900720264
  RHF One-electron energy            -237.066924969998
  RHF Two-electron energy              81.551760645182
  RHF Kinetic energy                  114.926621347969
  RHF Nuclear energy                   40.423263604553
  RHF Virial quotient                  -1.001438129568

 !RHF STATE 1.1 Dipole moment           0.40261795    -0.58469487     0.00369809
 Dipole moment /Debye                   1.02335274    -1.48614613     0.00939961

 Orbital energies:

           1.1          2.1          3.1          4.1          5.1          6.1          7.1          8.1          9.1         10.1
    -20.560884   -11.270252    -1.360461    -0.925330    -0.692642    -0.620920    -0.595472    -0.504424    -0.451276     0.028420

          11.1
      0.042885


 HOMO      9.1    -0.451276 =     -12.2798eV
 LUMO     10.1     0.028420 =       0.7734eV
 LUMO-HOMO         0.479696 =      13.0532eV

 Orbitals saved in record  2100.2


 **********************************************************************************************************************************
 DATASETS  * FILE   NREC   LENGTH (MB)   RECORD NAMES
              1      19      625.85       500      610      700      900      950      970     1000      129      960     1100   
                                          VAR    BASINP    GEOM    SYMINP    ZMAT    AOBASIS   BASIS     P2S    ABASIS      S 
                                         1400     1410     1200     1210     1080     1600     1650     1300     1700   
                                           T        V       H0       H01     AOSYM     SMH    MOLCAS    ERIS     OPER   

              2       4        1.00       700     1000      520     2100   
                                         GEOM     BASIS   MCVARS     RHF  

 PROGRAMS   *        TOTAL    HF-SCF       INT
 CPU TIMES  *        11.02      6.13      4.80
 REAL TIME  *        15.21 SEC
 DISK USED  *         2.31 GB
 **********************************************************************************************************************************


 PROGRAM * MP3 (Closed-shell)     Authors: C. Hampel, H.-J. Werner, 1991, M. Deegan, P.J. Knowles, 1992


 Convergence thresholds:  THRVAR = 1.00D-08  THRDEN = 1.00D-06

 Number of core orbitals:           2 (   2 )
 Number of closed-shell orbitals:   7 (   7 )
 Number of external orbitals:     175 ( 175 )

 Molecular orbitals read from record     2100.2  Type=RHF/CANONICAL  

 Number of N-1 electron functions:               7
 Number of N-2 electron functions:              28
 Number of singly external CSFs:              1225
 Number of doubly external CSFs:            750925
 Total number of CSFs:                      752151

 Length of J-op  integral file:               0.00 MB
 Length of K-op  integral file:               2.39 MB

 Integral transformation finished. Total CPU:   0.89 sec, npass=  1  Memory used:   2.33 MW

 Reference energy:                   -115.09190072

                        CORR.ENERGY   TOTAL ENERGY   ENERGY CHANGE
 MP2:                   -0.43695736  -115.52885808    -0.43695736

 SCS-MP2 correlation energy:           -0.43760128   (PS=  1.200000  PT=  0.333333)
 SCS-MP2 total energy:               -115.52950200

 MP3(D):                -0.45116540  -115.54306612    -0.01420804



 RESULTS
 =======

  Reference energy                   -115.091900720264
  MP3 singlet pair energy              -0.311215672917
  MP3 triplet pair energy              -0.139949723065
  MP3 correlation energy               -0.451165395982

 !MP3 total energy                   -115.543066116246

 Timing summary (sec):

 STEP                 CPU(USER)    SYS     CPU(TOT)    WALL
 Transformation          0.93      0.10      1.03      1.75
 CCSD iterations        12.58      0.09     12.67      1.89

 Program statistics:

 Available memory in ccsd:               805306163
 Min. memory needed in ccsd:               2385617
 Max. memory used in ccsd:                 3007350
 Max. memory used in cckext:               2163954 ( 1 integral passes)



 **********************************************************************************************************************************
 DATASETS  * FILE   NREC   LENGTH (MB)   RECORD NAMES
              1      20      637.24       500      610      700      900      950      970     1000      129      960     1100   
                                          VAR    BASINP    GEOM    SYMINP    ZMAT    AOBASIS   BASIS     P2S    ABASIS      S 
                                         1400     1410     1200     1210     1080     1600     1650     1300     1700     1380   
                                           T        V       H0       H01     AOSYM     SMH    MOLCAS    ERIS     OPER     JKOP   

              2       4        1.00       700     1000      520     2100   
                                         GEOM     BASIS   MCVARS     RHF  

 PROGRAMS   *        TOTAL       MP3    HF-SCF       INT
 CPU TIMES  *        13.41      2.38      6.13      4.80
 REAL TIME  *        18.98 SEC
 DISK USED  *         2.31 GB
 **********************************************************************************************************************************

 Dump information in style XML to xml output                                                                      

 Orbitals will not be exported.

 **********************************************************************************************************************************

 MP3/aug-cc-pVTZ energy=   -115.543066116246

             MP3          HF-SCF
   -115.54306612   -115.09190072
 **********************************************************************************************************************************
 Molpro calculation terminated
