
 Working directory              : /var/folders/2v/xbgp75_9785319ghcgb4zr4r0000gp/T//molpro.067yJL4FYO/
 Global scratch directory       : /var/folders/2v/xbgp75_9785319ghcgb4zr4r0000gp/T//molpro.067yJL4FYO/
 Wavefunction directory         : /Users/sacpjk/wfu/
 Main file repository           : /var/folders/2v/xbgp75_9785319ghcgb4zr4r0000gp/T//molpro.067yJL4FYO/

 id        : peterk

 Nodes                        nprocs
 Cardiff-University-G34YLXT77Y    1
 GA implementation: MPI file
 GA implementation (serial work in mppx): MPI file

 Using customized tuning parameters: mindgm=1; mindgv=20; mindgc=4; mindgr=1; noblas=0; minvec=7
 default implementation of scratch files=df  


 Variables initialized (1032), CPU time= 0.00 sec
 
 symmetry,nosym
 
 
 geometry={
           16
     H         -1.96835664      1.06706638      1.34307148
     C         -1.11416533      1.01457636      0.68421724
     C          0.22922214      0.72932626      1.09945039
     C         -1.11416533      1.01457636     -0.68421724
     H          1.98243777      0.70630025      0.00000000
     N          1.03477843      1.05782238      0.00000000
     C          0.22922214     -1.33411348      0.70659725
     H          0.61593228      0.86963631      2.10018875
     C          0.22922214     -1.33411348     -0.70659725
     H         -1.96835664      1.06706638     -1.34307148
     C          0.22922214      0.72932626     -1.09945039
     H          0.61593228      0.86963631     -2.10018875
     H         -0.65530617     -1.66353059     -1.23801644
     H         -0.65530617     -1.66353059      1.23801644
     H          1.15484347     -1.56502256      1.22577544
     H          1.15484347     -1.56502256     -1.22577544
 }
 basis=cc-pVTZ
 
 
 
 hf; hf; papt; mp3
 
 
 
 {put,xml;noorbitals,nobasis}
 Commands initialized (841), CPU time= 0.01 sec, 704 directives.
 Default parameters read. Elapsed time= 0.96 sec

 Checking input...
 Passed
1


                                         ***  PROGRAM SYSTEM MOLPRO  ***
                                       Copyright, TTI GmbH Stuttgart, 2015
                                    Version 2023.1 linked Tue Jun  6 09:54:11 2023


 **********************************************************************************************************************************
 LABEL *                                                                                                                                                                 
  64 bit serial version                                                                  DATE: 11-Jun-23          TIME: 12:54:28  
 **********************************************************************************************************************************

 SHA1:             8ebb0dd001088a5c915591db1a321413035db0b1
 **********************************************************************************************************************************

 Memory per process:       393 MW
 Total memory per node:    524 MW
 Total GA space:           131 MW

 GA preallocation disabled
 GA check enabled

 Variable memory set to 393.2 MW

 ZSYMEL=NOSYM


 Geometry recognized as XYZ

 SETTING BASIS          =    CC-PVTZ


 Recomputing integrals since basis changed


 Using spherical harmonics

 Library entry H      S cc-pVTZ              selected for orbital group  1
 Library entry H      P cc-pVTZ              selected for orbital group  1
 Library entry H      D cc-pVTZ              selected for orbital group  1
 Library entry C      S cc-pVTZ              selected for orbital group  2
 Library entry C      P cc-pVTZ              selected for orbital group  2
 Library entry C      D cc-pVTZ              selected for orbital group  2
 Library entry C      F cc-pVTZ              selected for orbital group  2
 Library entry N      S cc-pVTZ              selected for orbital group  4
 Library entry N      P cc-pVTZ              selected for orbital group  4
 Library entry N      D cc-pVTZ              selected for orbital group  4
 Library entry N      F cc-pVTZ              selected for orbital group  4


 PROGRAM * SEWARD (Integral evaluation for generally contracted gaussian basis sets)     Author: Roland Lindh, 1990

 Geometry written to block  1 of record 700


 Point group  C1  



 ATOMIC COORDINATES

 NR  ATOM    CHARGE       X              Y              Z

   1  H       1.00   -3.719654965    2.016463215    2.538037263
   2  C       6.00   -2.105467331    1.917271453    1.292983193
   3  C       6.00    0.433167066    1.378226887    2.077660125
   4  C       6.00   -2.105467331    1.917271453   -1.292983193
   5  H       1.00    3.746264444    1.334714034    0.000000000
   6  N       7.00    1.955447832    1.998994587    0.000000000
   7  C       6.00    0.433167066   -2.521109096    1.335275283
   8  H       1.00    1.163943321    1.643374454    3.968781548
   9  C       6.00    0.433167066   -2.521109096   -1.335275283
  10  H       1.00   -3.719654965    2.016463215   -2.538037263
  11  C       6.00    0.433167066    1.378226887   -2.077660125
  12  H       1.00    1.163943321    1.643374454   -3.968781548
  13  H       1.00   -1.238349189   -3.143617215   -2.339512009
  14  H       1.00   -1.238349189   -3.143617215    2.339512009
  15  H       1.00    2.182337875   -2.957464017    2.316379872
  16  H       1.00    2.182337875   -2.957464017   -2.316379872

 Bond lengths in Bohr (Angstrom)

 1-2  2.040980245  2-3  2.711263826  2-4  2.585966387  3-6  2.649408021  3-7  3.969377327
     ( 1.080040233)     ( 1.434739030)     ( 1.368434480)     ( 1.402006347)     ( 2.100504023)

  3- 8  2.044670487   4-10  2.040980245   4-11  2.711263826   5- 6  1.910050468   6-11  2.649408021
       ( 1.081993026)       ( 1.080040233)       ( 1.434739030)       ( 1.010755179)       ( 1.402006347)

  7- 9  2.670550566   7-14  2.046942684   7-15  2.052454713   9-11  3.969377327   9-13  2.046942684
       ( 1.413194500)       ( 1.083195421)       ( 1.086112261)       ( 2.100504023)       ( 1.083195421)

  9-16  2.052454713  11-12  2.044670487
       ( 1.086112261)       ( 1.081993026)

 Bond angles

  1-2-3  125.00471058   1-2-4  127.59149119   2-3-6  105.33420794   2-3-7   98.11613532

  2- 3- 8  125.20800467   2- 4-10  127.59149119   2- 4-11  106.82285915   3- 2- 4  106.82285915

  3- 6- 5  117.20784605   3- 6-11  103.29310343   3- 7- 9  100.77939428   3- 7-14  101.94620578

  3- 7-15   96.86023435   4-11- 6  105.33420794   4-11- 9   98.11613532   4-11-12  125.20800467

  5- 6-11  117.20784605   6- 3- 7   94.78994231   6- 3- 8  119.31212562   6-11- 9   94.78994231

  6-11-12  119.31212562   7- 3- 8  107.47994432   7- 9-11  100.77939428   7- 9-13  119.38023894

  7- 9-16  118.55585287   9- 7-14  119.38023894   9- 7-15  118.55585287   9-11-12  107.47994432

 10- 4-11  125.00471058  11- 9-13  101.94620578  11- 9-16   96.86023435  13- 9-16  113.37550239

 14- 7-15  113.37550239

 NUCLEAR CHARGE:                   52
 NUMBER OF PRIMITIVE AOS:         482
 NUMBER OF SYMMETRY AOS:          438
 NUMBER OF CONTRACTIONS:          336   (  336A   )
 NUMBER OF INNER CORE ORBITALS:     0   (    0A   )
 NUMBER OF OUTER CORE ORBITALS:     7   (    7A   )
 NUMBER OF VALENCE ORBITALS:       37   (   37A   )


 NUCLEAR REPULSION ENERGY  301.85518202


 Eigenvalues of metric

         1 0.807E-04 0.283E-03 0.431E-03 0.681E-03 0.730E-03 0.857E-03 0.995E-03 0.111E-02


 Contracted 2-electron integrals neglected if value below      1.0D-11
 AO integral compression algorithm  1   Integral accuracy      1.0D-11

     5460.197 MB (compressed) written to integral file ( 40.8%)


 NUMBER OF SORTED TWO-ELECTRON INTEGRALS: 1602714036.     BUFFER LENGTH:  32768
 NUMBER OF SEGMENTS:  51  SEGMENT LENGTH:   31998710      RECORD LENGTH: 524288

 Memory used in sort:      32.56 MW

 SORT1 READ  1673571448. AND WROTE  1411082069. INTEGRALS IN   4065 RECORDS. CPU TIME:    13.67 SEC, REAL TIME:    19.51 SEC
 SORT2 READ  1411082069. AND WROTE  1602714036. INTEGRALS IN  20829 RECORDS. CPU TIME:     9.39 SEC, REAL TIME:    21.52 SEC

 FILE SIZES:   FILE 1:  5494.6 MBYTE,  FILE 4: 17049.9 MBYTE,   TOTAL:  22544.5 MBYTE

 OPERATOR DM      FOR CENTER  0  COORDINATES:    0.000000    0.000000    0.000000


 **********************************************************************************************************************************
 DATASETS  * FILE   NREC   LENGTH (MB)   RECORD NAMES
              1      19     4917.95       500      610      700      900      950      970     1000      129      960     1100   
                                          VAR    BASINP    GEOM    SYMINP    ZMAT    AOBASIS   BASIS     P2S    ABASIS      S 
                                         1400     1410     1200     1210     1080     1600     1650     1300     1700   
                                           T        V       H0       H01     AOSYM     SMH    MOLCAS    ERIS     OPER   

 PROGRAMS   *        TOTAL       INT
 CPU TIMES  *        58.76     58.66
 REAL TIME  *        84.15 SEC
 DISK USED  *        21.00 GB
 **********************************************************************************************************************************


 Program * Restricted Hartree-Fock

 Orbital guess generated from atomic densities. Full valence occupancy:   44

 Initial occupancy:  26

 NELEC=   52   SYM=1   MS2= 0   THRE=1.0D-08   THRD=3.2D-06   THRG=3.2D-06  HFMA2=F  DIIS_START=2   DIIS_MAX=10   DIIS_INCORE=F

 Level shifts:    0.00 (CLOSED)    0.00 (OPEN)    0.30 (GAP_MIN)

 ITER           ETOT              DE          GRAD        DDIFF     DIIS  NEXP   TIME(IT)  TIME(TOT)  DIAG
   1     -286.78125122    -286.78125122     0.00D+00     0.41D-01     0     0       7.84     14.91    start
   2     -286.85139008      -0.07013886     0.27D-02     0.40D-02     1     0       8.19     23.10    diag
   3     -286.86317393      -0.01178386     0.12D-02     0.13D-02     2     0       8.06     31.16    diag
   4     -286.86488214      -0.00170821     0.36D-03     0.52D-03     3     0       7.89     39.05    diag
   5     -286.86498394      -0.00010180     0.92D-04     0.12D-03     4     0       8.11     47.16    diag
   6     -286.86501187      -0.00002793     0.33D-04     0.70D-04     5     0       7.84     55.00    diag
   7     -286.86501831      -0.00000643     0.14D-04     0.31D-04     6     0       7.26     62.26    diag
   8     -286.86501975      -0.00000145     0.56D-05     0.18D-04     7     0       7.48     69.74    fixocc
   9     -286.86501990      -0.00000014     0.20D-05     0.49D-05     8     0       7.39     77.13    diag
  10     -286.86501992      -0.00000002     0.78D-06     0.20D-05     9     0       7.33     84.46    diag/orth
  11     -286.86501992      -0.00000000     0.23D-06     0.61D-06     9     0       7.16     91.62    diag
  12     -286.86501992      -0.00000000     0.80D-07     0.13D-06     0     0       7.49     99.11    diag

 Final occupancy:  26

 !RHF STATE 1.1 Energy               -286.865019922923
  RHF One-electron energy            -985.951169894841
  RHF Two-electron energy             397.230967953244
  RHF Kinetic energy                  286.364711068599
  RHF Nuclear energy                  301.855182018674
  RHF Virial quotient                  -1.001747103728

 !RHF STATE 1.1 Dipole moment           0.25657704    -0.06924255    -0.00000000
 Dipole moment /Debye                   0.65215378    -0.17599700    -0.00000000

 Orbital energies:

           1.1          2.1          3.1          4.1          5.1          6.1          7.1          8.1          9.1         10.1
    -15.570537   -11.270358   -11.270318   -11.219375   -11.217953   -11.213041   -11.211940    -1.275238    -1.047704    -0.999553

          11.1         12.1         13.1         14.1         15.1         16.1         17.1         18.1         19.1         20.1
     -0.966691    -0.790885    -0.781995    -0.749965    -0.727607    -0.613350    -0.598107    -0.577507    -0.559050    -0.543417

          21.1         22.1         23.1         24.1         25.1         26.1         27.1         28.1
     -0.536049    -0.531705    -0.484025    -0.370825    -0.318423    -0.298978     0.130312     0.145166


 HOMO     26.1    -0.298978 =      -8.1356eV
 LUMO     27.1     0.130312 =       3.5460eV
 LUMO-HOMO         0.429291 =      11.6816eV

 Orbitals saved in record  2100.2


 **********************************************************************************************************************************
 DATASETS  * FILE   NREC   LENGTH (MB)   RECORD NAMES
              1      19     4917.95       500      610      700      900      950      970     1000      129      960     1100   
                                          VAR    BASINP    GEOM    SYMINP    ZMAT    AOBASIS   BASIS     P2S    ABASIS      S 
                                         1400     1410     1200     1210     1080     1600     1650     1300     1700   
                                           T        V       H0       H01     AOSYM     SMH    MOLCAS    ERIS     OPER   

              2       4        2.40       700     1000      520     2100   
                                         GEOM     BASIS   MCVARS     RHF  

 PROGRAMS   *        TOTAL    HF-SCF       INT
 CPU TIMES  *       157.88     99.12     58.66
 REAL TIME  *       196.91 SEC
 DISK USED  *        21.00 GB
 **********************************************************************************************************************************


 Program * Restricted Hartree-Fock

 Molecular orbitals read from record     2100.2  Type=RHF/CANONICAL  

 Initial occupancy:  26

 NELEC=   52   SYM=1   MS2= 0   THRE=1.0D-08   THRD=3.2D-06   THRG=3.2D-06  HFMA2=F  DIIS_START=2   DIIS_MAX=10   DIIS_INCORE=F

 Level shifts:    0.00 (CLOSED)    0.00 (OPEN)    0.30 (GAP_MIN)

 ITER           ETOT              DE          GRAD        DDIFF     DIIS  NEXP   TIME(IT)  TIME(TOT)  DIAG
   1     -286.86501992    -286.86501992     0.00D+00     0.41D-01     0     0       7.84      7.85    start
   2     -286.86501992      -0.00000000     0.42D-07     0.73D-07     1     0       7.68     15.53    diag

 Final occupancy:  26

 !RHF STATE 1.1 Energy               -286.865019922968
  RHF One-electron energy            -985.951193049400
  RHF Two-electron energy             397.230991107758
  RHF Kinetic energy                  286.364717781316
  RHF Nuclear energy                  301.855182018674
  RHF Virial quotient                  -1.001747080246

 !RHF STATE 1.1 Dipole moment           0.25656770    -0.06922469     0.00000000
 Dipole moment /Debye                   0.65213006    -0.17595161     0.00000000

 Orbital energies:

           1.1          2.1          3.1          4.1          5.1          6.1          7.1          8.1          9.1         10.1
    -15.570538   -11.270360   -11.270320   -11.219373   -11.217951   -11.213045   -11.211944    -1.275239    -1.047704    -0.999555

          11.1         12.1         13.1         14.1         15.1         16.1         17.1         18.1         19.1         20.1
     -0.966692    -0.790885    -0.781996    -0.749965    -0.727608    -0.613352    -0.598107    -0.577507    -0.559051    -0.543419

          21.1         22.1         23.1         24.1         25.1         26.1         27.1         28.1
     -0.536049    -0.531705    -0.484027    -0.370825    -0.318424    -0.298979     0.130312     0.145166


 HOMO     26.1    -0.298979 =      -8.1356eV
 LUMO     27.1     0.130312 =       3.5460eV
 LUMO-HOMO         0.429291 =      11.6816eV

 Orbitals saved in record  2101.2


 **********************************************************************************************************************************
 DATASETS  * FILE   NREC   LENGTH (MB)   RECORD NAMES
              1      19     4917.95       500      610      700      900      950      970     1000      129      960     1100   
                                          VAR    BASINP    GEOM    SYMINP    ZMAT    AOBASIS   BASIS     P2S    ABASIS      S 
                                         1400     1410     1200     1210     1080     1600     1650     1300     1700   
                                           T        V       H0       H01     AOSYM     SMH    MOLCAS    ERIS     OPER   

              2       5        5.53       700     1000      520     2100     2101   
                                         GEOM     BASIS   MCVARS     RHF      RHF  

 PROGRAMS   *        TOTAL    HF-SCF    HF-SCF       INT
 CPU TIMES  *       173.43     15.55     99.12     58.66
 REAL TIME  *       215.38 SEC
 DISK USED  *        21.00 GB
 **********************************************************************************************************************************


 PROGRAM * PAPT (Closed-shell)     Authors: C. Hampel, H.-J. Werner, 1991, P.J. Knowles, 2021


 Convergence thresholds:  THRVAR = 1.00D-08  THRDEN = 1.00D-06

 Number of core orbitals:           7 (   7 )
 Number of closed-shell orbitals:  19 (  19 )
 Number of external orbitals:     310 ( 310 )

 Molecular orbitals read from record     2101.2  Type=RHF/CANONICAL  

 Number of N-1 electron functions:              19
 Number of N-2 electron functions:             190
 Number of singly external CSFs:              5890
 Number of doubly external CSFs:          17348995
 Total number of CSFs:                    17354886

 Length of J-op  integral file:               0.00 MB
 Length of K-op  integral file:               7.81 MB

 Integral transformation finished. Total CPU:  24.10 sec, npass=  1  Memory used:  37.25 MW

 Reference energy:                   -286.86501992

                        CORR.ENERGY   TOTAL ENERGY   ENERGY CHANGE
 MP2:                   -1.23368462  -288.09870454    -1.23368462

 SCS-MP2 correlation energy:           -1.21285947   (PS=  1.200000  PT=  0.333333)
 SCS-MP2 total energy:               -288.07787939
 Iteration:   1     0.2940D+00
 Iteration:   2     0.5118D+00
 Iteration:   3     0.8100D-01
 Iteration:   4     0.1161D+00
 Iteration:   5     0.3329D-01
 Iteration:   6     0.2034D-01
 Iteration:   7     0.4441D-01
 Iteration:   8     0.5006D-02
 Iteration:   9     0.5807D-02
 Iteration:  10     0.2778D-02
 Iteration:  11     0.8708D-03
 Iteration:  12     0.3339D-02
 Iteration:  13     0.3204D-03
 Iteration:  14     0.3798D-03
 Iteration:  15     0.3057D-03
 Iteration:  16     0.1823D-03
 Iteration:  17     0.4509D-03
 Iteration:  18     0.5058D-04
 PAPT operator written to  7000.1
 PAPT orbitals and eigenvalues written to  7000.2

 MP3(D):                -1.25572427  -288.12074419    -0.02203965



 RESULTS
 =======

  Reference energy                   -286.865019922970
  MP3 singlet pair energy              -0.833651478572
  MP3 triplet pair energy              -0.422072790661
  MP3 correlation energy               -1.255724269233

 !MP3 total energy                   -288.120744192202

 Timing summary (sec):

 STEP                 CPU(USER)    SYS     CPU(TOT)    WALL
 Transformation         25.37      2.74     28.11     28.29
 CCSD iterations       346.42      6.15    352.57    167.47

 Program statistics:

 Available memory in ccsd:               393214530
 Min. memory needed in ccsd:              41156838
 Max. memory used in ccsd:                57276704
 Max. memory used in cckext:              44068198 ( 1 integral passes)



 **********************************************************************************************************************************
 DATASETS  * FILE   NREC   LENGTH (MB)   RECORD NAMES
              1      21     5165.83       500      610      700      900      950      970     1000      129      960     1100   
                                          VAR    BASINP    GEOM    SYMINP    ZMAT    AOBASIS   BASIS     P2S    ABASIS      S 
                                         1400     1410     1200     1210     1080     1600     1650     1300     1700     1380   
                                           T        V       H0       H01     AOSYM     SMH    MOLCAS    ERIS     OPER     JKOP   
                                         7000   
                                        PAPT AO    

              2       6        8.22       700     1000      520     2100     2101     7000   
                                         GEOM     BASIS   MCVARS     RHF      RHF     PAPT   

 PROGRAMS   *        TOTAL      PAPT    HF-SCF    HF-SCF       INT
 CPU TIMES  *       371.69    198.26     15.55     99.12     58.66
 REAL TIME  *       411.52 SEC
 DISK USED  *        21.00 GB
 **********************************************************************************************************************************


 PROGRAM * MP3 (Closed-shell)     Authors: C. Hampel, H.-J. Werner, 1991, M. Deegan, P.J. Knowles, 1992


 Convergence thresholds:  THRVAR = 1.00D-08  THRDEN = 1.00D-06

 Number of core orbitals:           7 (   7 )
 Number of closed-shell orbitals:  19 (  19 )
 Number of external orbitals:     310 ( 310 )

 Molecular orbitals read from record     7000.2  Type=PAPT/CANONICAL (state 1.1)

 Number of N-1 electron functions:              19
 Number of N-2 electron functions:             190
 Number of singly external CSFs:              5890
 Number of doubly external CSFs:          17348995
 Total number of CSFs:                    17354886

 Length of J-op  integral file:               0.00 MB
 Length of K-op  integral file:               7.81 MB

 Integral transformation finished. Total CPU:  18.75 sec, npass=  1  Memory used:  37.25 MW
 Orbital energies read from record       7000.2  Type=PAPT/CANONICAL (state 1.1)

 Reference energy:                   -286.86501992

                        CORR.ENERGY   TOTAL ENERGY   ENERGY CHANGE
 MP2:                   -1.26752962  -288.13254954    -1.26752962

 SCS-MP2 correlation energy:           -1.25378502   (PS=  1.200000  PT=  0.333333)
 SCS-MP2 total energy:               -288.11880495

 MP3(D):                -1.26784040  -288.13286032    -0.00031078



 RESULTS
 =======

  Reference energy                   -286.865019922970
  MP3 singlet pair energy              -0.844444497488
  MP3 triplet pair energy              -0.423395901948
  MP3 correlation energy               -1.267840399436

 !MP3 total energy                   -288.132860322406

 Timing summary (sec):

 STEP                 CPU(USER)    SYS     CPU(TOT)    WALL
 Transformation         26.87      3.03     29.90     30.13
 CCSD iterations       464.34      5.03    469.37     87.90

 Program statistics:

 Available memory in ccsd:               393214530
 Min. memory needed in ccsd:              41156838
 Max. memory used in ccsd:                57276704
 Max. memory used in cckext:              44068198 ( 1 integral passes)



 **********************************************************************************************************************************
 DATASETS  * FILE   NREC   LENGTH (MB)   RECORD NAMES
              1      21     5165.83       500      610      700      900      950      970     1000      129      960     1100   
                                          VAR    BASINP    GEOM    SYMINP    ZMAT    AOBASIS   BASIS     P2S    ABASIS      S 
                                         1400     1410     1200     1210     1080     1600     1650     1300     1700     1380   
                                           T        V       H0       H01     AOSYM     SMH    MOLCAS    ERIS     OPER     JKOP   
                                         7000   
                                        PAPT AO    

              2       6        8.22       700     1000      520     2100     2101     7000   
                                         GEOM     BASIS   MCVARS     RHF      RHF     PAPT   

 PROGRAMS   *        TOTAL       MP3      PAPT    HF-SCF    HF-SCF       INT
 CPU TIMES  *       491.11    119.42    198.26     15.55     99.12     58.66
 REAL TIME  *       530.10 SEC
 DISK USED  *        21.00 GB
 **********************************************************************************************************************************

 Dump information in style XML to xml output                                                                      

 Orbitals will not be exported.

 **********************************************************************************************************************************

 MP3/cc-pVTZ energy=   -288.132860322406

             MP3            PAPT          HF-SCF          HF-SCF
   -288.13286032   -288.12074419   -286.86501992   -286.86501992
 **********************************************************************************************************************************
 Molpro calculation terminated
