
 Working directory              : /var/folders/2v/xbgp75_9785319ghcgb4zr4r0000gp/T//molpro.lgcXfp3Vt5/
 Global scratch directory       : /var/folders/2v/xbgp75_9785319ghcgb4zr4r0000gp/T//molpro.lgcXfp3Vt5/
 Wavefunction directory         : /Users/sacpjk/wfu/
 Main file repository           : /var/folders/2v/xbgp75_9785319ghcgb4zr4r0000gp/T//molpro.lgcXfp3Vt5/

 id        : peterk

 Nodes                        nprocs
 Cardiff-University-G34YLXT77Y    1
 GA implementation: MPI file
 GA implementation (serial work in mppx): MPI file

 Using customized tuning parameters: mindgm=1; mindgv=20; mindgc=4; mindgr=1; noblas=0; minvec=7
 default implementation of scratch files=df  


 Variables initialized (1032), CPU time= 0.00 sec
 
 core,small
 angstrom
 
 geometry={
 F;F,F,1.41134168
 }
 basis=cc-pCVQZ
 
 
 
 hf; hf; papt; mp4
 
 
 
 {put,xml;noorbitals,nobasis}
 Commands initialized (841), CPU time= 0.01 sec, 704 directives.
 Default parameters read. Elapsed time= 3.38 sec

 Checking input...
 Passed
1


                                         ***  PROGRAM SYSTEM MOLPRO  ***
                                       Copyright, TTI GmbH Stuttgart, 2015
                                    Version 2023.1 linked Tue Jun  6 09:54:11 2023


 **********************************************************************************************************************************
 LABEL *                                                                                                                                                                 
  64 bit serial version                                                                  DATE: 12-Jun-23          TIME: 10:52:12  
 **********************************************************************************************************************************

 SHA1:             8ebb0dd001088a5c915591db1a321413035db0b1
 **********************************************************************************************************************************

 Memory per process:       393 MW
 Total memory per node:    524 MW
 Total GA space:           131 MW

 GA preallocation disabled
 GA check enabled

 Variable memory set to 393.2 MW

 ZUNIT=ANG

 SETTING BASIS          =    CC-PCVQZ


 Recomputing integrals since basis changed


 Using spherical harmonics

 Library entry F      S cc-pCVQZ             selected for orbital group  1
 Library entry F      P cc-pCVQZ             selected for orbital group  1
 Library entry F      D cc-pCVQZ             selected for orbital group  1
 Library entry F      F cc-pCVQZ             selected for orbital group  1
 Library entry F      G cc-pCVQZ             selected for orbital group  1


 PROGRAM * SEWARD (Integral evaluation for generally contracted gaussian basis sets)     Author: Roland Lindh, 1990

 Geometry written to block  1 of record 700

 Orientation using atomic masses  
 Molecule type: Linear
 Symmetry elements: X,Y,Z
 Rotational constants:      26.7094998     26.7094998      0.0000000 GHz  (calculated with average atomic masses)

 Point group  D2h 



 ATOMIC COORDINATES

 NR  ATOM    CHARGE       X              Y              Z

   1  F       9.00    0.000000000    0.000000000   -1.333524622
   2  F       9.00    0.000000000    0.000000000    1.333524622

 Bond lengths in Bohr (Angstrom)

 1-2  2.667049243
     ( 1.411341680)

 NUCLEAR CHARGE:                   18
 NUMBER OF PRIMITIVE AOS:         234
 NUMBER OF SYMMETRY AOS:          194
 NUMBER OF CONTRACTIONS:          168   (   34Ag  +   20B3u +   20B2u +   10B1g +   34B1u +   20B2g +   20B3g +   10Au  )
 NUMBER OF INNER CORE ORBITALS:     0   (    0Ag  +    0B3u +    0B2u +    0B1g +    0B1u +    0B2g +    0B3g +    0Au  )
 NUMBER OF OUTER CORE ORBITALS:     2   (    1Ag  +    0B3u +    0B2u +    0B1g +    1B1u +    0B2g +    0B3g +    0Au  )
 NUMBER OF VALENCE ORBITALS:        8   (    2Ag  +    1B3u +    1B2u +    0B1g +    2B1u +    1B2g +    1B3g +    0Au  )


 NUCLEAR REPULSION ENERGY   30.37064284

 EXTRA SYMMETRY OF AOS IN SYMMETRY 1:   1 1 1 1 1 1 1 1 1 1   1 1 1 1 1 1 2 1 2 1   2 1 2 1 2 1 2 1 2 1   2 1 3 2
 EXTRA SYMMETRY OF AOS IN SYMMETRY 2:   1 1 1 1 1 1 1 1 1 1   1 1 1 2 1 2 1 2 1 2
 EXTRA SYMMETRY OF AOS IN SYMMETRY 3:   1 1 1 1 1 1 1 1 1 1   1 1 1 2 1 2 1 2 1 2
 EXTRA SYMMETRY OF AOS IN SYMMETRY 4:   1 1 1 1 1 1 1 1 1 2
 EXTRA SYMMETRY OF AOS IN SYMMETRY 5:   1 1 1 1 1 1 1 1 1 1   1 1 1 1 1 1 2 1 2 1   2 1 2 1 2 1 2 1 2 1   2 1 3 2
 EXTRA SYMMETRY OF AOS IN SYMMETRY 6:   1 1 1 1 1 1 1 1 1 1   1 1 1 2 1 2 1 2 1 2
 EXTRA SYMMETRY OF AOS IN SYMMETRY 7:   1 1 1 1 1 1 1 1 1 1   1 1 1 2 1 2 1 2 1 2
 EXTRA SYMMETRY OF AOS IN SYMMETRY 8:   1 1 1 1 1 1 1 1 1 2

 Eigenvalues of metric

         1 0.265E-04 0.161E-02 0.265E-02 0.275E-01 0.556E-01 0.938E-01 0.123E+00 0.162E+00
         2 0.277E-02 0.114E+00 0.158E+00 0.166E+00 0.433E+00 0.485E+00 0.519E+00 0.634E+00
         3 0.277E-02 0.114E+00 0.158E+00 0.166E+00 0.433E+00 0.485E+00 0.519E+00 0.634E+00
         4 0.167E+00 0.431E+00 0.516E+00 0.861E+00 0.993E+00 0.100E+01 0.103E+01 0.147E+01
         5 0.260E-04 0.139E-02 0.232E-02 0.518E-02 0.200E-01 0.490E-01 0.924E-01 0.134E+00
         6 0.271E-02 0.919E-01 0.981E-01 0.142E+00 0.230E+00 0.415E+00 0.471E+00 0.487E+00
         7 0.271E-02 0.919E-01 0.981E-01 0.142E+00 0.230E+00 0.415E+00 0.471E+00 0.487E+00
         8 0.154E+00 0.387E+00 0.441E+00 0.786E+00 0.968E+00 0.994E+00 0.100E+01 0.140E+01


 Contracted 2-electron integrals neglected if value below      1.0D-12
 AO integral compression algorithm  1   Integral accuracy      1.0D-12

     99.877 MB (compressed) written to integral file ( 50.9%)


 NUMBER OF SORTED TWO-ELECTRON INTEGRALS:   13085170.     BUFFER LENGTH:  32768
 NUMBER OF SEGMENTS:   1  SEGMENT LENGTH:   13085170      RECORD LENGTH: 524288

 Memory used in sort:      13.64 MW

 SORT1 READ    24541824. AND WROTE    10366967. INTEGRALS IN     30 RECORDS. CPU TIME:     0.35 SEC, REAL TIME:     0.39 SEC
 SORT2 READ    10366967. AND WROTE    13085170. INTEGRALS IN    381 RECORDS. CPU TIME:     0.26 SEC, REAL TIME:     0.29 SEC

 FILE SIZES:   FILE 1:   130.6 MBYTE,  FILE 4:   125.9 MBYTE,   TOTAL:    256.5 MBYTE

 OPERATOR DM      FOR CENTER  0  COORDINATES:    0.000000    0.000000    0.000000


 **********************************************************************************************************************************
 DATASETS  * FILE   NREC   LENGTH (MB)   RECORD NAMES
              1      19       81.27       500      610      700      900      950      970     1000      129      960     1100   
                                          VAR    BASINP    GEOM    SYMINP    ZMAT    AOBASIS   BASIS     P2S    ABASIS      S 
                                         1400     1410     1200     1210     1080     1600     1650     1300     1700   
                                           T        V       H0       H01     AOSYM     SMH    MOLCAS    ERIS     OPER   

 PROGRAMS   *        TOTAL       INT
 CPU TIMES  *         2.03      1.93
 REAL TIME  *         8.72 SEC
 DISK USED  *       244.95 MB
 **********************************************************************************************************************************


 Program * Restricted Hartree-Fock

 Orbital guess generated from atomic densities. Full valence occupancy:    3   1   1   0   3   1   1   0


 Initial occupancy:   3   1   1   0   2   1   1   0

 NELEC=   18   SYM=1   MS2= 0   THRE=1.0D-08   THRD=3.2D-06   THRG=3.2D-06  HFMA2=F  DIIS_START=2   DIIS_MAX=10   DIIS_INCORE=F

 Level shifts:    0.00 (CLOSED)    0.00 (OPEN)    0.30 (GAP_MIN)

 ITER           ETOT              DE          GRAD        DDIFF     DIIS  NEXP   TIME(IT)  TIME(TOT)  DIAG
   1     -198.74201395    -198.74201395     0.00D+00     0.13D+00     0     0       0.01      0.03    start
   2     -198.76598665      -0.02397270     0.15D-01     0.84D-02     1     0       0.02      0.05    diag
   3     -198.76844860      -0.00246194     0.51D-02     0.25D-02     2     0       0.01      0.06    diag
   4     -198.76855310      -0.00010451     0.74D-03     0.60D-03     3     0       0.02      0.08    diag
   5     -198.76855993      -0.00000682     0.19D-03     0.13D-03     4     0       0.02      0.10    diag
   6     -198.76856021      -0.00000028     0.37D-04     0.25D-04     5     0       0.01      0.11    diag
   7     -198.76856022      -0.00000001     0.62D-05     0.35D-05     6     0       0.02      0.13    diag
   8     -198.76856022      -0.00000000     0.40D-06     0.26D-06     7     0       0.02      0.15    fixocc
   9     -198.76856022       0.00000000     0.45D-07     0.33D-07     0     0       0.01      0.16    diag

 Final occupancy:   3   1   1   0   2   1   1   0

 !RHF STATE 1.1 Energy               -198.768560217027
  RHF One-electron energy            -338.637862671050
  RHF Two-electron energy             109.498659617808
  RHF Kinetic energy                  198.580223882156
  RHF Nuclear energy                   30.370642836215
  RHF Virial quotient                  -1.000948414355

 !RHF STATE 1.1 Dipole moment           0.00000000     0.00000000     0.00000000
 Dipole moment /Debye                   0.00000000     0.00000000     0.00000000

 Orbital energies:

           1.1          2.1          3.1          4.1          5.1
    -26.427547    -1.764362    -0.751203     0.685625     0.783360

           1.2          2.2          3.2
     -0.810661     0.640992     1.418784

           1.3          2.3          3.3
     -0.810661     0.640992     1.418784

           1.4          2.4
      1.434155     4.122748

           1.5          2.5          3.5          4.5
    -26.427300    -1.496850     0.088272     0.578168

           1.6          2.6          3.6
     -0.665844     0.753221     2.200430

           1.7          2.7          3.7
     -0.665844     0.753221     2.200430

           1.8          2.8
      1.730868     4.915491


 HOMO      1.7    -0.665844 =     -18.1185eV
 LUMO      3.5     0.088272 =       2.4020eV
 LUMO-HOMO         0.754116 =      20.5206eV

 Orbitals saved in record  2100.2


 **********************************************************************************************************************************
 DATASETS  * FILE   NREC   LENGTH (MB)   RECORD NAMES
              1      19       81.27       500      610      700      900      950      970     1000      129      960     1100   
                                          VAR    BASINP    GEOM    SYMINP    ZMAT    AOBASIS   BASIS     P2S    ABASIS      S 
                                         1400     1410     1200     1210     1080     1600     1650     1300     1700   
                                           T        V       H0       H01     AOSYM     SMH    MOLCAS    ERIS     OPER   

              2       4        0.47       700     1000      520     2100   
                                         GEOM     BASIS   MCVARS     RHF  

 PROGRAMS   *        TOTAL    HF-SCF       INT
 CPU TIMES  *         2.20      0.17      1.93
 REAL TIME  *         9.59 SEC
 DISK USED  *       244.95 MB
 **********************************************************************************************************************************


 Program * Restricted Hartree-Fock

 Molecular orbitals read from record     2100.2  Type=RHF/CANONICAL  

 Initial occupancy:   3   1   1   0   2   1   1   0

 NELEC=   18   SYM=1   MS2= 0   THRE=1.0D-08   THRD=3.2D-06   THRG=3.2D-06  HFMA2=F  DIIS_START=2   DIIS_MAX=10   DIIS_INCORE=F

 Level shifts:    0.00 (CLOSED)    0.00 (OPEN)    0.30 (GAP_MIN)

 ITER           ETOT              DE          GRAD        DDIFF     DIIS  NEXP   TIME(IT)  TIME(TOT)  DIAG
   1     -198.76856022    -198.76856022     0.00D+00     0.13D+00     0     0       0.02      0.02    start
   2     -198.76856022       0.00000000     0.13D-07     0.86D-08     1     0       0.01      0.03    diag

 Final occupancy:   3   1   1   0   2   1   1   0

 !RHF STATE 1.1 Energy               -198.768560217028
  RHF One-electron energy            -338.637863048362
  RHF Two-electron energy             109.498659995119
  RHF Kinetic energy                  198.580224778026
  RHF Nuclear energy                   30.370642836215
  RHF Virial quotient                  -1.000948409839

 !RHF STATE 1.1 Dipole moment           0.00000000     0.00000000     0.00000000
 Dipole moment /Debye                   0.00000000     0.00000000     0.00000000

 Orbital energies:

           1.1          2.1          3.1          4.1          5.1
    -26.427547    -1.764362    -0.751203     0.685625     0.783360

           1.2          2.2          3.2
     -0.810661     0.640992     1.418784

           1.3          2.3          3.3
     -0.810661     0.640992     1.418784

           1.4          2.4
      1.434155     4.122748

           1.5          2.5          3.5          4.5
    -26.427300    -1.496850     0.088272     0.578168

           1.6          2.6          3.6
     -0.665844     0.753221     2.200430

           1.7          2.7          3.7
     -0.665844     0.753221     2.200430

           1.8          2.8
      1.730868     4.915491


 HOMO      1.7    -0.665844 =     -18.1185eV
 LUMO      3.5     0.088272 =       2.4020eV
 LUMO-HOMO         0.754116 =      20.5205eV

 Orbitals saved in record  2101.2


 **********************************************************************************************************************************
 DATASETS  * FILE   NREC   LENGTH (MB)   RECORD NAMES
              1      19       81.27       500      610      700      900      950      970     1000      129      960     1100   
                                          VAR    BASINP    GEOM    SYMINP    ZMAT    AOBASIS   BASIS     P2S    ABASIS      S 
                                         1400     1410     1200     1210     1080     1600     1650     1300     1700   
                                           T        V       H0       H01     AOSYM     SMH    MOLCAS    ERIS     OPER   

              2       5        0.68       700     1000      520     2100     2101   
                                         GEOM     BASIS   MCVARS     RHF      RHF  

 PROGRAMS   *        TOTAL    HF-SCF    HF-SCF       INT
 CPU TIMES  *         2.23      0.03      0.17      1.93
 REAL TIME  *         9.85 SEC
 DISK USED  *       244.95 MB
 **********************************************************************************************************************************


 PROGRAM * PAPT (Closed-shell)     Authors: C. Hampel, H.-J. Werner, 1991, P.J. Knowles, 2021


 CORETYPE=SMALL

 Convergence thresholds:  THRVAR = 1.00D-08  THRDEN = 1.00D-06

 Number of closed-shell orbitals:   9 (   3   1   1   0   2   1   1   0 )
 Number of external orbitals:     159 (  31  19  19  10  32  19  19  10 )

 Molecular orbitals read from record     2101.2  Type=RHF/CANONICAL  

 Number of N-1 electron functions:               9
 Number of N-2 electron functions:              45
 Number of singly external CSFs:               233
 Number of doubly external CSFs:            134482
 Total number of CSFs:                      134716

 Length of J-op  integral file:               0.00 MB
 Length of K-op  integral file:               0.34 MB

 Integral transformation finished. Total CPU:   0.05 sec, npass=  1  Memory used:   0.24 MW

 Reference energy:                   -198.76856022

                        CORR.ENERGY   TOTAL ENERGY   ENERGY CHANGE
 MP2:                   -0.69669179  -199.46525201    -0.69669179

 SCS-MP2 correlation energy:           -0.69995970   (PS=  1.200000  PT=  0.333333)
 SCS-MP2 total energy:               -199.46851991
 Iteration:   1     0.4730D+00
 Iteration:   2     0.7588D+00
 Iteration:   3     0.1308D+00
 Iteration:   4     0.1886D+00
 Iteration:   5     0.1427D+00
 Iteration:   6     0.4471D-01
 Iteration:   7     0.1410D+01
 Iteration:   8     0.7166D-02
 Iteration:   9     0.1353D-01
 Iteration:  10     0.2044D-02
 Iteration:  11     0.8631D-03
 Iteration:  12     0.9100D-03
 Iteration:  13     0.7700D-03
 Iteration:  14     0.1290D-03
 Iteration:  15     0.9899D-04
 PAPT operator written to  7000.1
 PAPT orbitals and eigenvalues written to  7000.2

 MP3(D):                -0.69354526  -199.46210547     0.00314653



 RESULTS
 =======

  Reference energy                   -198.768560217028

  Correlated core orbitals:             1.1       1.5
  Orbital energies:                   -26.4275  -26.4273

  MP3 core-core energy                 -0.078867553712
  MP3 core-valence energy              -0.045530710774
  MP3 valence correlation energy       -0.569146992071

  MP3 singlet pair energy              -0.481241708590
  MP3 triplet pair energy              -0.212303547967
  MP3 correlation energy               -0.693545256557

 !MP3 total energy                   -199.462105473585

 Timing summary (sec):

 STEP                 CPU(USER)    SYS     CPU(TOT)    WALL
 Transformation          0.06      0.00      0.06      0.27
 CCSD iterations         2.55      0.05      2.60      4.48

 Program statistics:

 Available memory in ccsd:               393215673
 Min. memory needed in ccsd:                393834
 Max. memory used in ccsd:                  509524
 Max. memory used in cckext:                435511 ( 1 integral passes)



 **********************************************************************************************************************************
 DATASETS  * FILE   NREC   LENGTH (MB)   RECORD NAMES
              1      21       83.29       500      610      700      900      950      970     1000      129      960     1100   
                                          VAR    BASINP    GEOM    SYMINP    ZMAT    AOBASIS   BASIS     P2S    ABASIS      S 
                                         1400     1410     1200     1210     1080     1600     1650     1300     1700     1380   
                                           T        V       H0       H01     AOSYM     SMH    MOLCAS    ERIS     OPER     JKOP   
                                         7000   
                                        PAPT AO    

              2       6        0.88       700     1000      520     2100     2101     7000   
                                         GEOM     BASIS   MCVARS     RHF      RHF     PAPT   

 PROGRAMS   *        TOTAL      PAPT    HF-SCF    HF-SCF       INT
 CPU TIMES  *         2.52      0.28      0.03      0.17      1.93
 REAL TIME  *        14.74 SEC
 DISK USED  *       244.95 MB
 **********************************************************************************************************************************


 PROGRAM * MP4 (Closed-shell)     Authors: C. Hampel, H.-J. Werner, 1991, M. Deegan, P.J. Knowles, 1992


 CORETYPE=SMALL

 Convergence thresholds:  THRVAR = 1.00D-08  THRDEN = 1.00D-06

 MP4(T)     terms to be evaluated (factor= 0.000)


 Number of closed-shell orbitals:   9 (   3   1   1   0   2   1   1   0 )
 Number of external orbitals:     159 (  31  19  19  10  32  19  19  10 )

 Molecular orbitals read from record     7000.2  Type=PAPT/CANONICAL (state 1.1)

 Number of N-1 electron functions:               9
 Number of N-2 electron functions:              45
 Number of singly external CSFs:               233
 Number of doubly external CSFs:            134482
 Total number of CSFs:                      134716

 Length of J-op  integral file:               0.00 MB
 Length of K-op  integral file:               0.34 MB

 Memory could be reduced to 5.94 Mwords without degradation in triples

 Integral transformation finished. Total CPU:   0.09 sec, npass=  1  Memory used:   1.82 MW
 Orbital energies read from record       7000.2  Type=PAPT/CANONICAL (state 1.1)

 Reference energy:                   -198.76856022

                        CORR.ENERGY   TOTAL ENERGY   ENERGY CHANGE
 MP2:                   -0.69791137  -199.46647158    -0.69791137

 SCS-MP2 correlation energy:           -0.70408580   (PS=  1.200000  PT=  0.333333)
 SCS-MP2 total energy:               -199.47264602

 MP3(D):                -0.69830059  -199.46686081    -0.00038922
 MP4(DQ):               -0.69163119  -199.46019140     0.00666940
 MP4(SDQ):              -0.69765865  -199.46621887    -0.00602747

 Norm of t1 vector:      0.04907319      S-energy:    -0.00602747      T1 diagnostic:  0.00817886

 Largest off-diagonal element in interal  block of Fock matrix:  0.21D+00
 Largest off-diagonal element in external block of Fock matrix:  0.33D+01


 Total CPU time for triples:      1.16 sec


 RESULTS
 =======

  Reference energy                   -198.768560217028

  Correlated core orbitals:             1.1       1.5
  Orbital energies:                   -24.7126  -24.7395

  MP4(SDQ) core-core energy            -0.079319859560
  MP4(SDQ) core-valence energy         -0.045269392514
  MP4(SDQ) valence correlation ener    -0.573069402182

  MP4(SDQ) singlet pair energy         -0.477840032087
  MP4(SDQ) triplet pair energy         -0.213791154905
  MP4(SDQ) correlation energy          -0.697658654256

  Triples contribution                 -0.023383901540
  Total correlation energy             -0.721042555796

  MP4(SDQ) total energy              -199.466218871284
 !MP4(SDTQ) total energy             -199.489602772824

 Timing summary (sec):

 STEP                 CPU(USER)    SYS     CPU(TOT)    WALL
 Transformation          0.11      0.02      0.13      0.54
 CCSD iterations         2.78      0.02      2.80      0.40
 Triples                 1.16      0.08      1.24      1.27

 Program statistics:

 Available memory in ccsd:               393215673
 Min. memory needed in ccsd:                393834
 Max. memory used in ccsd:                  509524
 Max. memory used in cckext:                435511 ( 1 integral passes)



 **********************************************************************************************************************************
 DATASETS  * FILE   NREC   LENGTH (MB)   RECORD NAMES
              1      22      101.07       500      610      700      900      950      970     1000      129      960     1100   
                                          VAR    BASINP    GEOM    SYMINP    ZMAT    AOBASIS   BASIS     P2S    ABASIS      S 
                                         1400     1410     1200     1210     1080     1600     1650     1300     1700     1380   
                                           T        V       H0       H01     AOSYM     SMH    MOLCAS    ERIS     OPER     JKOP   
                                         7000     1380(1)
                                        PAPT AO   JKOP   

              2       6        0.88       700     1000      520     2100     2101     7000   
                                         GEOM     BASIS   MCVARS     RHF      RHF     PAPT   

 PROGRAMS   *        TOTAL       MP4      PAPT    HF-SCF    HF-SCF       INT
 CPU TIMES  *         3.95      1.42      0.28      0.03      0.17      1.93
 REAL TIME  *        17.38 SEC
 DISK USED  *       244.95 MB
 **********************************************************************************************************************************

 Dump information in style XML to xml output                                                                      

 Orbitals will not be exported.

 **********************************************************************************************************************************

 MP4/cc-pCVQZ energy=   -199.489602772824

             MP4            PAPT          HF-SCF          HF-SCF
   -199.48960277   -199.46210547   -198.76856022   -198.76856022
 **********************************************************************************************************************************
 Molpro calculation terminated
