
 Working directory              : /tmp/peterk/molpro.FcF6YTD0zN/
 Global scratch directory       : /tmp/peterk/molpro.FcF6YTD0zN/
 Wavefunction directory         : /home/peterk/wfu/
 Main file repository           : /tmp/peterk/molpro.FcF6YTD0zN/

 id        : peterk

 Nodes     nprocs
 marat        1
 GA implementation: MPI file
 GA implementation (serial work in mppx): MPI file

 Using customized tuning parameters: mindgm=1; mindgv=20; mindgc=4; mindgr=1; noblas=0; minvec=7
 default implementation of scratch files=df  


 Variables initialized (1032), CPU time= 0.00 sec
 
 symmetry,nosym
 
 
 geometry={
           17
     SI         0.00000000     -2.06141387     -0.87292226
     SI         0.00000000      0.00000000     -2.02977282
     SI         0.00000000      2.06141387     -0.87292226
     SI         0.00000000      2.04066436      1.47296712
     SI         0.00000000     -2.04066436      1.47296712
     H          1.19799593     -2.82548452     -1.31822012
     H         -1.19799593     -2.82548452     -1.31822012
     H         -1.19676843      0.00000000     -2.91518357
     H          1.19676843      0.00000000     -2.91518357
     H          1.19799593      2.82548452     -1.31822012
     H         -1.19799593      2.82548452     -1.31822012
     H          0.00000000      3.44041450      1.97229570
     H         -1.20608553      1.35278084      1.99746897
     H          1.20608553      1.35278084      1.99746897
     H          0.00000000     -3.44041450      1.97229570
     H          1.20608553     -1.35278084      1.99746897
     H         -1.20608553     -1.35278084      1.99746897
 }
 basis=cc-pVDZ
 
 
 
 hf; ccsd(t)
 
 
 
 {put,xml;noorbitals,nobasis}
 Commands initialized (841), CPU time= 0.01 sec, 708 directives.
 Default parameters read. Elapsed time= 0.05 sec

 Checking input...
 Passed
1


                                         ***  PROGRAM SYSTEM MOLPRO  ***
                                       Copyright, TTI GmbH Stuttgart, 2015
                                    Version 2023.1 linked Sat Jun 10 08:01:27 2023


 **********************************************************************************************************************************
 LABEL *                                                                                                                                                                 
  (16 PROC) 64 bit serial version                                                        DATE: 13-Jun-23          TIME: 11:34:52  
 **********************************************************************************************************************************

 SHA1:             8376d659ba1296ca7ee514c57770fe2c96af278c
 **********************************************************************************************************************************

 Memory per process:      1074 MW
 Total memory per node:   1074 MW

 GA preallocation disabled
 GA check disabled

 Variable memory set to 1073.7 MW

 ZSYMEL=NOSYM


 Geometry recognized as XYZ

 SETTING BASIS          =    CC-PVDZ


 Recomputing integrals since basis changed


 Using spherical harmonics

 Library entry SI     S cc-pVDZ              selected for orbital group  1
 Library entry SI     P cc-pVDZ              selected for orbital group  1
 Library entry SI     D cc-pVDZ              selected for orbital group  1
 Library entry H      S cc-pVDZ              selected for orbital group  2
 Library entry H      P cc-pVDZ              selected for orbital group  2


 PROGRAM * SEWARD (Integral evaluation for generally contracted gaussian basis sets)     Author: Roland Lindh, 1990

 Geometry written to block  1 of record 700


 Point group  C1  



 ATOMIC COORDINATES

 NR  ATOM    CHARGE       X              Y              Z

   1  SI     14.00    0.000000000   -3.895507644   -1.649583999
   2  SI     14.00    0.000000000    0.000000000   -3.835714725
   3  SI     14.00    0.000000000    3.895507644   -1.649583999
   4  SI     14.00    0.000000000    3.856296753    2.783504447
   5  SI     14.00    0.000000000   -3.856296753    2.783504447
   6  H       1.00    2.263884206   -5.339391912   -2.491074999
   7  H       1.00   -2.263884206   -5.339391912   -2.491074999
   8  H       1.00   -2.261564567    0.000000000   -5.508898550
   9  H       1.00    2.261564567    0.000000000   -5.508898550
  10  H       1.00    2.263884206    5.339391912   -2.491074999
  11  H       1.00   -2.263884206    5.339391912   -2.491074999
  12  H       1.00    0.000000000    6.501441160    3.727098710
  13  H       1.00   -2.279171335    2.556385294    3.774669296
  14  H       1.00    2.279171335    2.556385294    3.774669296
  15  H       1.00    0.000000000   -6.501441160    3.727098710
  16  H       1.00    2.279171335   -2.556385294    3.774669296
  17  H       1.00   -2.279171335   -2.556385294    3.774669296

 Bond lengths in Bohr (Angstrom)

 1-2  4.467006531  1-5  4.433261855  1-6  2.813908417  1-7  2.813908417  2-3  4.467006531
     ( 2.363838057)     ( 2.345981143)     ( 1.489056208)     ( 1.489056208)     ( 2.363838057)

  2- 8  2.813222068   2- 9  2.813222068   3- 4  4.433261855   3-10  2.813908417   3-11  2.813908417
       ( 1.488693008)       ( 1.488693008)       ( 2.345981143)       ( 1.489056208)       ( 1.489056208)

  4-12  2.808408636   4-13  2.804781547   4-14  2.804781547   5-15  2.808408636   5-16  2.804781547
       ( 1.486145849)       ( 1.484226476)       ( 1.484226476)       ( 1.486145849)       ( 1.484226476)

  5-17  2.804781547
       ( 1.484226476)

 Bond angles

  1- 2- 3  121.39834924   1- 2- 8  106.92209593   1- 2- 9  106.92209593   1- 5-15  109.12591571

  1- 5-16  110.94486070   1- 5-17  110.94486070   2- 1- 5  118.79405453   2- 1- 6  107.52512709

  2- 1- 7  107.52512709   2- 3- 4  118.79405453   2- 3-10  107.52512709   2- 3-11  107.52512709

  3- 2- 8  106.92209593   3- 2- 9  106.92209593   3- 4-12  109.12591571   3- 4-13  110.94486070

  3- 4-14  110.94486070   4- 3-10  107.67237964   4- 3-11  107.67237964   5- 1- 6  107.67237964

  5- 1- 7  107.67237964   6- 1- 7  107.13049617   8- 2- 9  107.00936217  10- 3-11  107.13049617

 12- 4-13  108.52911808  12- 4-14  108.52911808  13- 4-14  108.70189379  15- 5-16  108.52911808

 15- 5-17  108.52911808  16- 5-17  108.70189379

 NUCLEAR CHARGE:                   82
 NUMBER OF PRIMITIVE AOS:         294
 NUMBER OF SYMMETRY AOS:          289
 NUMBER OF CONTRACTIONS:          150   (  150A   )
 NUMBER OF INNER CORE ORBITALS:     5   (    5A   )
 NUMBER OF OUTER CORE ORBITALS:    20   (   20A   )
 NUMBER OF VALENCE ORBITALS:       32   (   32A   )


 NUCLEAR REPULSION ENERGY  478.56234912


 Eigenvalues of metric

         1 0.257E-02 0.330E-02 0.581E-02 0.627E-02 0.101E-01 0.125E-01 0.135E-01 0.201E-01


 Contracted 2-electron integrals neglected if value below      1.0D-11
 AO integral compression algorithm  1   Integral accuracy      1.0D-11

     186.384 MB (compressed) written to integral file ( 35.8%)


 NUMBER OF SORTED TWO-ELECTRON INTEGRALS:   64133475.     BUFFER LENGTH:  32768
 NUMBER OF SEGMENTS:   5  SEGMENT LENGTH:   15999503      RECORD LENGTH: 524288

 Memory used in sort:      16.56 MW

 SORT1 READ    65025657. AND WROTE    49071304. INTEGRALS IN    144 RECORDS. CPU TIME:     0.60 SEC, REAL TIME:     0.94 SEC
 SORT2 READ    49071304. AND WROTE    64133475. INTEGRALS IN    711 RECORDS. CPU TIME:     0.61 SEC, REAL TIME:     0.81 SEC

 FILE SIZES:   FILE 1:   217.5 MBYTE,  FILE 4:   604.0 MBYTE,   TOTAL:    821.6 MBYTE

 OPERATOR DM      FOR CENTER  0  COORDINATES:    0.000000    0.000000    0.000000


 **********************************************************************************************************************************
 DATASETS  * FILE   NREC   LENGTH (MB)   RECORD NAMES
              1      19      186.17       500      610      700      900      950      970     1000      129      960     1100   
                                          VAR    BASINP    GEOM    SYMINP    ZMAT    AOBASIS   BASIS     P2S    ABASIS      S 
                                         1400     1410     1200     1210     1080     1600     1650     1300     1700   
                                           T        V       H0       H01     AOSYM     SMH    MOLCAS    ERIS     OPER   

 PROGRAMS   *        TOTAL       INT
 CPU TIMES  *         5.71      5.60
 REAL TIME  *         7.20 SEC
 DISK USED  *       784.13 MB
 **********************************************************************************************************************************


 Program * Restricted Hartree-Fock

 Orbital guess generated from atomic densities. Full valence occupancy:   57

 Initial occupancy:  41

 NELEC=   82   SYM=1   MS2= 0   THRE=1.0D-08   THRD=3.2D-06   THRG=3.2D-06  HFMA2=F  DIIS_START=2   DIIS_MAX=10   DIIS_INCORE=F

 Level shifts:    0.00 (CLOSED)    0.00 (OPEN)    0.30 (GAP_MIN)

 ITER           ETOT              DE          GRAD        DDIFF     DIIS  NEXP   TIME(IT)  TIME(TOT)  DIAG
   1    -1451.56041025   -1451.56041025     0.00D+00     0.11D+00     0     0       0.37      0.75    start
   2    -1451.61620270      -0.05579245     0.21D-02     0.64D-02     1     0       0.40      1.15    diag
   3    -1451.62318745      -0.00698476     0.66D-03     0.23D-02     2     0       0.40      1.55    diag
   4    -1451.62346729      -0.00027983     0.15D-03     0.63D-03     3     0       0.40      1.95    diag
   5    -1451.62348702      -0.00001973     0.35D-04     0.20D-03     4     0       0.37      2.32    diag
   6    -1451.62348759      -0.00000058     0.58D-05     0.40D-04     5     0       0.37      2.69    diag
   7    -1451.62348762      -0.00000002     0.12D-05     0.83D-05     6     0       0.39      3.08    diag
   8    -1451.62348762      -0.00000000     0.22D-06     0.13D-05     7     0       0.40      3.48    fixocc
   9    -1451.62348762      -0.00000000     0.61D-07     0.25D-06     0     0       0.38      3.86    diag

 Final occupancy:  41

 !RHF STATE 1.1 Energy              -1451.623487617305
  RHF One-electron energy           -2966.990694412273
  RHF Two-electron energy            1036.804857671793
  RHF Kinetic energy                 1451.800249956505
  RHF Nuclear energy                  478.562349123174
  RHF Virial quotient                  -0.999878246102

 !RHF STATE 1.1 Dipole moment          -0.00000000    -0.00000000     0.07151417
 Dipole moment /Debye                  -0.00000000    -0.00000000     0.18177090

 Orbital energies:

           1.1          2.1          3.1          4.1          5.1          6.1          7.1          8.1          9.1         10.1
    -68.780601   -68.780600   -68.778738   -68.776862   -68.776862    -6.131836    -6.131816    -6.130497    -6.129073    -6.129061

          11.1         12.1         13.1         14.1         15.1         16.1         17.1         18.1         19.1         20.1
     -4.237612    -4.237612    -4.237578    -4.237577    -4.237518    -4.237516    -4.236098    -4.236061    -4.235962    -4.234669

          21.1         22.1         23.1         24.1         25.1         26.1         27.1         28.1         29.1         30.1
     -4.234666    -4.234515    -4.234506    -4.234466    -4.234421    -0.783200    -0.753982    -0.721885    -0.671359    -0.634377

          31.1         32.1         33.1         34.1         35.1         36.1         37.1         38.1         39.1         40.1
     -0.515887    -0.501106    -0.496716    -0.493633    -0.479758    -0.466370    -0.458266    -0.449902    -0.408134    -0.385521

          41.1         42.1         43.1
     -0.383672     0.098374     0.107750


 HOMO     41.1    -0.383672 =     -10.4403eV
 LUMO     42.1     0.098374 =       2.6769eV
 LUMO-HOMO         0.482047 =      13.1172eV

 Orbitals saved in record  2100.2


 **********************************************************************************************************************************
 DATASETS  * FILE   NREC   LENGTH (MB)   RECORD NAMES
              1      19      186.17       500      610      700      900      950      970     1000      129      960     1100   
                                          VAR    BASINP    GEOM    SYMINP    ZMAT    AOBASIS   BASIS     P2S    ABASIS      S 
                                         1400     1410     1200     1210     1080     1600     1650     1300     1700   
                                           T        V       H0       H01     AOSYM     SMH    MOLCAS    ERIS     OPER   

              2       4        1.01       700     1000      520     2100   
                                         GEOM     BASIS   MCVARS     RHF  

 PROGRAMS   *        TOTAL    HF-SCF       INT
 CPU TIMES  *         9.57      3.86      5.60
 REAL TIME  *        11.29 SEC
 DISK USED  *       784.13 MB
 **********************************************************************************************************************************


 PROGRAM * CCSD (Closed-shell coupled cluster)     Authors: C. Hampel, H.-J. Werner, 1991, M. Deegan, P.J. Knowles, 1992


 Convergence thresholds:  THRVAR = 1.00D-08  THRDEN = 1.00D-06

 CCSD(T)     terms to be evaluated (factor= 1.000)


 Number of core orbitals:          25 (  25 )
 Number of closed-shell orbitals:  16 (  16 )
 Number of external orbitals:     109 ( 109 )

 Molecular orbitals read from record     2100.2  Type=RHF/CANONICAL  

 Number of N-1 electron functions:              16
 Number of N-2 electron functions:             136
 Number of singly external CSFs:              1744
 Number of doubly external CSFs:           1521640
 Total number of CSFs:                     1523385

 Length of J-op  integral file:               0.00 MB
 Length of K-op  integral file:               1.61 MB
 Length of 3-ext integral record:             0.00 MB

 Memory could be reduced to 27.90 Mwords without degradation in triples

 Integral transformation finished. Total CPU:   2.72 sec, npass=  1  Memory used:  34.38 MW

 Reference energy:                  -1451.62348762

 MP2 singlet pair energy:              -0.39219819
 MP2 triplet pair energy:              -0.12343922
 MP2 correlation energy:               -0.51563741
 MP2 total energy:                  -1452.13912502

 SCS-MP2 correlation energy:           -0.54744445   (PS=  1.200000  PT=  0.333333)
 SCS-MP2 total energy:              -1452.17093207

 ITER.      SQ.NORM     CORR.ENERGY   TOTAL ENERGY   ENERGY CHANGE        DEN1      VAR(S)    VAR(P)  DIIS     TIME  TIME/IT
   1      1.33072298    -0.61871005 -1452.24219766    -0.10307264    -0.07482752  0.30D-02  0.76D-02  1  1    19.77     7.04
   2      1.37965290    -0.62720078 -1452.25068840    -0.00849073    -0.03326128  0.12D-03  0.37D-03  2  2    27.43     7.44
   3      1.38838538    -0.62731542 -1452.25080304    -0.00011464    -0.00275242  0.54D-04  0.24D-04  3  3    35.56     7.71
   4      1.39142336    -0.62737228 -1452.25085989    -0.00005686    -0.00065744  0.62D-05  0.26D-05  4  4    43.63     7.84
   5      1.39243788    -0.62735761 -1452.25084523     0.00001467    -0.00017570  0.30D-06  0.30D-06  5  5    51.63     7.90
   6      1.39261110    -0.62733969 -1452.25082730     0.00001793    -0.00002557  0.33D-07  0.29D-07  6  6    59.76     7.96
   7      1.39264951    -0.62733935 -1452.25082697     0.00000033    -0.00000275  0.18D-08  0.30D-08  6  1    67.65     7.97
   8      1.39265446    -0.62733933 -1452.25082695     0.00000002    -0.00000003  0.31D-09  0.27D-09  6  2    75.75     8.00

 Norm of t1 vector:      0.10845993      S-energy:     0.00000004      T1 diagnostic:  0.01355749
                                                                       D1 diagnostic:  0.03053165
                                                                       D2 diagnostic:  0.16399064 (internal)


 Total CPU time for triples:     73.45 sec


 RESULTS
 =======

  Reference energy                  -1451.623487617305
  CCSD singlet pair energy             -0.495325598063
  CCSD triplet pair energy             -0.132013775347
  CCSD correlation energy              -0.627339329668

  Triples (T) contribution             -0.017890829342
  Total correlation energy             -0.645230159011

  CCSD total energy                 -1452.250826946973
  CCSD[T] energy                    -1452.269203181326
  CCSD-T energy                     -1452.268518341095
 !CCSD(T) total energy              -1452.268717776315

 Timing summary (sec):

 STEP                 CPU(USER)    SYS     CPU(TOT)    WALL
 Transformation          2.82      0.27      3.09      3.09
 CCSD iterations        73.05      1.05     74.10     64.11
 Triples                73.45      1.79     75.24     75.25

 Program statistics:

 Available memory in ccsd:              1073740759
 Min. memory needed in ccsd:               4087167
 Max. memory used in ccsd:                 5344727
 Max. memory used in cckext:               6399971 ( 8 integral passes)



 **********************************************************************************************************************************
 DATASETS  * FILE   NREC   LENGTH (MB)   RECORD NAMES
              1      20      301.38       500      610      700      900      950      970     1000      129      960     1100   
                                          VAR    BASINP    GEOM    SYMINP    ZMAT    AOBASIS   BASIS     P2S    ABASIS      S 
                                         1400     1410     1200     1210     1080     1600     1650     1300     1700     1380   
                                           T        V       H0       H01     AOSYM     SMH    MOLCAS    ERIS     OPER     JKOP   

              2       4        1.01       700     1000      520     2100   
                                         GEOM     BASIS   MCVARS     RHF  

 PROGRAMS   *        TOTAL   CCSD(T)    HF-SCF       INT
 CPU TIMES  *       148.94    139.36      3.86      5.60
 REAL TIME  *       153.81 SEC
 DISK USED  *       784.13 MB
 **********************************************************************************************************************************

 Dump information in style XML to xml output                                                                      

 Orbitals will not be exported.

 **********************************************************************************************************************************

 CCSD(T)/cc-pVDZ energy=  -1452.268717776315

         CCSD(T)          HF-SCF
  -1452.26871778  -1451.62348762
 **********************************************************************************************************************************
 Molpro calculation terminated
