
 Working directory              : /var/folders/2v/xbgp75_9785319ghcgb4zr4r0000gp/T//molpro.sVBh5ohhPr/
 Global scratch directory       : /var/folders/2v/xbgp75_9785319ghcgb4zr4r0000gp/T//molpro.sVBh5ohhPr/
 Wavefunction directory         : /Users/sacpjk/wfu/
 Main file repository           : /var/folders/2v/xbgp75_9785319ghcgb4zr4r0000gp/T//molpro.sVBh5ohhPr/

 id        : peterk

 Nodes                        nprocs
 Cardiff-University-G34YLXT77Y    1
 GA implementation: MPI file
 GA implementation (serial work in mppx): MPI file

 Using customized tuning parameters: mindgm=1; mindgv=20; mindgc=4; mindgr=1; noblas=0; minvec=7
 default implementation of scratch files=df  


 Variables initialized (1032), CPU time= 0.01 sec
 
 symmetry,nosym
 
 
 geometry={
           11
     C         -1.03666222      1.00226747      0.00000000
     C         -0.99802842     -0.37323986      0.00000000
     C          1.15125899     -0.89785440      0.00000000
     N          1.59581209      0.37970345      0.00000000
     N          1.23898727      1.47513174      0.00000000
     H         -1.16993317      1.56007075     -0.91825218
     H         -1.16993317      1.56007075      0.91825218
     H         -1.19957230     -0.92033561     -0.91402853
     H         -1.19957230     -0.92033561      0.91402853
     H          1.39382161     -1.43273935      0.91491930
     H          1.39382161     -1.43273935     -0.91491930
 }
 basis=cc-pVDZ
 
 
 
 hf; mp3
 
 
 
 {put,xml;noorbitals,nobasis}
 Commands initialized (841), CPU time= 0.00 sec, 704 directives.
 Default parameters read. Elapsed time= 0.45 sec

 Checking input...
 Passed
1


                                         ***  PROGRAM SYSTEM MOLPRO  ***
                                       Copyright, TTI GmbH Stuttgart, 2015
                                    Version 2023.1 linked Tue Jun  6 09:54:11 2023


 **********************************************************************************************************************************
 LABEL *                                                                                                                                                                 
  64 bit serial version                                                                  DATE: 10-Jun-23          TIME: 16:25:04  
 **********************************************************************************************************************************

 SHA1:             8ebb0dd001088a5c915591db1a321413035db0b1
 **********************************************************************************************************************************

 Memory per process:       805 MW
 Total memory per node:   1074 MW
 Total GA space:           268 MW

 GA preallocation disabled
 GA check enabled

 Variable memory set to 805.3 MW

 ZSYMEL=NOSYM


 Geometry recognized as XYZ

 SETTING BASIS          =    CC-PVDZ


 Recomputing integrals since basis changed


 Using spherical harmonics

 Library entry C      S cc-pVDZ              selected for orbital group  1
 Library entry C      P cc-pVDZ              selected for orbital group  1
 Library entry C      D cc-pVDZ              selected for orbital group  1
 Library entry N      S cc-pVDZ              selected for orbital group  2
 Library entry N      P cc-pVDZ              selected for orbital group  2
 Library entry N      D cc-pVDZ              selected for orbital group  2
 Library entry H      S cc-pVDZ              selected for orbital group  3
 Library entry H      P cc-pVDZ              selected for orbital group  3


 PROGRAM * SEWARD (Integral evaluation for generally contracted gaussian basis sets)     Author: Roland Lindh, 1990

 Geometry written to block  1 of record 700


 Point group  C1  



 ATOMIC COORDINATES

 NR  ATOM    CHARGE       X              Y              Z

   1  C       6.00   -1.959007680    1.894011022    0.000000000
   2  C       6.00   -1.886000378   -0.705321114    0.000000000
   3  C       6.00    2.175564190   -1.696698916    0.000000000
   4  N       7.00    3.015647796    0.717535529    0.000000000
   5  N       7.00    2.341346612    2.787594986    0.000000000
   6  H       1.00   -2.210853275    2.948106453   -1.735245134
   7  H       1.00   -2.210853275    2.948106453    1.735245134
   8  H       1.00   -2.266863114   -1.739182246   -1.727263592
   9  H       1.00   -2.266863114   -1.739182246    1.727263592
  10  H       1.00    2.633941109   -2.707484979    1.728946903
  11  H       1.00    2.633941109   -2.707484979   -1.728946903

 Bond lengths in Bohr (Angstrom)

 1-2  2.600357210  1-6  2.045878553  1-7  2.045878553  2-8  2.048747124  2-9  2.048747124
     ( 1.376049776)     ( 1.082632307)     ( 1.082632307)     ( 1.084150289)     ( 1.084150289)

  3- 4  2.556221513   3-10  2.054520689   3-11  2.054520689   4- 5  2.177114660
       ( 1.352694170)       ( 1.087205528)       ( 1.087205528)       ( 1.152079464)

 Bond angles

  1-2-8  119.94792439   1-2-9  119.94792439   2-1-6  121.23046507   2-1-7  121.23046507

  3- 4- 5  142.77108279   4- 3-10  113.03738549   4- 3-11  113.03738549   6- 1- 7  116.02555382

  8- 2- 9  114.93421732  10- 3-11  114.60470712

 NUCLEAR CHARGE:                   38
 NUMBER OF PRIMITIVE AOS:         177
 NUMBER OF SYMMETRY AOS:          172
 NUMBER OF CONTRACTIONS:          100   (  100A   )
 NUMBER OF INNER CORE ORBITALS:     0   (    0A   )
 NUMBER OF OUTER CORE ORBITALS:     5   (    5A   )
 NUMBER OF VALENCE ORBITALS:       26   (   26A   )


 NUCLEAR REPULSION ENERGY  161.45551786


 Eigenvalues of metric

         1 0.281E-02 0.391E-02 0.660E-02 0.132E-01 0.147E-01 0.185E-01 0.272E-01 0.276E-01


 Contracted 2-electron integrals neglected if value below      1.0D-11
 AO integral compression algorithm  1   Integral accuracy      1.0D-11

     51.118 MB (compressed) written to integral file ( 45.2%)


 NUMBER OF SORTED TWO-ELECTRON INTEGRALS:   12753775.     BUFFER LENGTH:  32768
 NUMBER OF SEGMENTS:   1  SEGMENT LENGTH:   12753775      RECORD LENGTH: 524288

 Memory used in sort:      13.31 MW

 SORT1 READ    14147500. AND WROTE    11094550. INTEGRALS IN     32 RECORDS. CPU TIME:     0.09 SEC, REAL TIME:     0.11 SEC
 SORT2 READ    11094550. AND WROTE    12753775. INTEGRALS IN    195 RECORDS. CPU TIME:     0.13 SEC, REAL TIME:     0.16 SEC

 FILE SIZES:   FILE 1:    81.7 MBYTE,  FILE 4:   134.3 MBYTE,   TOTAL:    215.9 MBYTE

 OPERATOR DM      FOR CENTER  0  COORDINATES:    0.000000    0.000000    0.000000


 **********************************************************************************************************************************
 DATASETS  * FILE   NREC   LENGTH (MB)   RECORD NAMES
              1      19       72.82       500      610      700      900      950      970     1000      129      960     1100   
                                          VAR    BASINP    GEOM    SYMINP    ZMAT    AOBASIS   BASIS     P2S    ABASIS      S 
                                         1400     1410     1200     1210     1080     1600     1650     1300     1700   
                                           T        V       H0       H01     AOSYM     SMH    MOLCAS    ERIS     OPER   

 PROGRAMS   *        TOTAL       INT
 CPU TIMES  *         0.99      0.90
 REAL TIME  *         6.38 SEC
 DISK USED  *       206.45 MB
 **********************************************************************************************************************************


 Program * Restricted Hartree-Fock

 Orbital guess generated from atomic densities. Full valence occupancy:   31

 Initial occupancy:  19

 NELEC=   38   SYM=1   MS2= 0   THRE=1.0D-08   THRD=3.2D-06   THRG=3.2D-06  HFMA2=F  DIIS_START=2   DIIS_MAX=10   DIIS_INCORE=F

 Level shifts:    0.00 (CLOSED)    0.00 (OPEN)    0.30 (GAP_MIN)

 ITER           ETOT              DE          GRAD        DDIFF     DIIS  NEXP   TIME(IT)  TIME(TOT)  DIAG
   1     -225.74186792    -225.74186792     0.00D+00     0.11D+00     0     0       0.06      0.11    start
   2     -225.80479427      -0.06292635     0.69D-02     0.16D-01     1     0       0.06      0.17    diag
   3     -225.84167091      -0.03687664     0.50D-02     0.72D-02     2     0       0.05      0.22    diag
   4     -225.84352125      -0.00185034     0.84D-03     0.20D-02     3     0       0.06      0.28    diag
   5     -225.84402793      -0.00050668     0.51D-03     0.79D-03     4     0       0.05      0.33    diag
   6     -225.84415957      -0.00013164     0.16D-03     0.41D-03     5     0       0.06      0.39    diag
   7     -225.84421582      -0.00005624     0.80D-04     0.28D-03     6     0       0.05      0.44    diag
   8     -225.84424365      -0.00002783     0.51D-04     0.28D-03     7     0       0.06      0.50    fixocc
   9     -225.84424636      -0.00000271     0.16D-04     0.10D-03     8     0       0.05      0.55    diag
  10     -225.84424649      -0.00000013     0.51D-05     0.15D-04     9     0       0.06      0.61    diag/orth
  11     -225.84424652      -0.00000003     0.21D-05     0.77D-05     9     0       0.05      0.66    diag
  12     -225.84424652      -0.00000000     0.77D-06     0.26D-05     9     0       0.06      0.72    diag
  13     -225.84424652      -0.00000000     0.28D-06     0.64D-06     0     0       0.06      0.78    diag

 Final occupancy:  19

 !RHF STATE 1.1 Energy               -225.844246520603
  RHF One-electron energy            -624.653382486552
  RHF Two-electron energy             237.353618103579
  RHF Kinetic energy                  225.421317371333
  RHF Nuclear energy                  161.455517862370
  RHF Virial quotient                  -1.001876171935

 !RHF STATE 1.1 Dipole moment           0.20034480    -0.79984739     0.00000000
 Dipole moment /Debye                   0.50922569    -2.03300929     0.00000000

 Orbital energies:

           1.1          2.1          3.1          4.1          5.1          6.1          7.1          8.1          9.1         10.1
    -15.688125   -15.662338   -11.291109   -11.233041   -11.221421    -1.430129    -1.079096    -1.012871    -0.789337    -0.758293

          11.1         12.1         13.1         14.1         15.1         16.1         17.1         18.1         19.1         20.1
     -0.669310    -0.658070    -0.623498    -0.616036    -0.563186    -0.526529    -0.487157    -0.368412    -0.295087     0.129396

          21.1
      0.145336


 HOMO     19.1    -0.295087 =      -8.0297eV
 LUMO     20.1     0.129396 =       3.5210eV
 LUMO-HOMO         0.424483 =      11.5508eV

 Orbitals saved in record  2100.2


 **********************************************************************************************************************************
 DATASETS  * FILE   NREC   LENGTH (MB)   RECORD NAMES
              1      19       72.82       500      610      700      900      950      970     1000      129      960     1100   
                                          VAR    BASINP    GEOM    SYMINP    ZMAT    AOBASIS   BASIS     P2S    ABASIS      S 
                                         1400     1410     1200     1210     1080     1600     1650     1300     1700   
                                           T        V       H0       H01     AOSYM     SMH    MOLCAS    ERIS     OPER   

              2       4        0.71       700     1000      520     2100   
                                         GEOM     BASIS   MCVARS     RHF  

 PROGRAMS   *        TOTAL    HF-SCF       INT
 CPU TIMES  *         1.77      0.78      0.90
 REAL TIME  *         8.08 SEC
 DISK USED  *       206.45 MB
 **********************************************************************************************************************************


 PROGRAM * MP3 (Closed-shell)     Authors: C. Hampel, H.-J. Werner, 1991, M. Deegan, P.J. Knowles, 1992


 Convergence thresholds:  THRVAR = 1.00D-08  THRDEN = 1.00D-06

 Number of core orbitals:           5 (   5 )
 Number of closed-shell orbitals:  14 (  14 )
 Number of external orbitals:      81 (  81 )

 Molecular orbitals read from record     2100.2  Type=RHF/CANONICAL  

 Number of N-1 electron functions:              14
 Number of N-2 electron functions:             105
 Number of singly external CSFs:              1134
 Number of doubly external CSFs:            643545
 Total number of CSFs:                      644680

 Length of J-op  integral file:               0.00 MB
 Length of K-op  integral file:               0.75 MB

 Integral transformation finished. Total CPU:   0.15 sec, npass=  1  Memory used:   1.96 MW

 Reference energy:                   -225.84424652

                        CORR.ENERGY   TOTAL ENERGY   ENERGY CHANGE
 MP2:                   -0.78303798  -226.62728451    -0.78303798

 SCS-MP2 correlation energy:           -0.76430658   (PS=  1.200000  PT=  0.333333)
 SCS-MP2 total energy:               -226.60855310

 MP3(D):                -0.79624959  -226.64049611    -0.01321160



 RESULTS
 =======

  Reference energy                   -225.844246520603
  MP3 singlet pair energy              -0.527932476157
  MP3 triplet pair energy              -0.268317113342
  MP3 correlation energy               -0.796249589499

 !MP3 total energy                   -226.640496110102

 Timing summary (sec):

 STEP                 CPU(USER)    SYS     CPU(TOT)    WALL
 Transformation          0.16      0.02      0.18      0.40
 CCSD iterations         2.51      0.04      2.55      1.04

 Program statistics:

 Available memory in ccsd:               805305565
 Min. memory needed in ccsd:               1768432
 Max. memory used in ccsd:                 2318471
 Max. memory used in cckext:               2233634 ( 1 integral passes)



 **********************************************************************************************************************************
 DATASETS  * FILE   NREC   LENGTH (MB)   RECORD NAMES
              1      20       85.03       500      610      700      900      950      970     1000      129      960     1100   
                                          VAR    BASINP    GEOM    SYMINP    ZMAT    AOBASIS   BASIS     P2S    ABASIS      S 
                                         1400     1410     1200     1210     1080     1600     1650     1300     1700     1380   
                                           T        V       H0       H01     AOSYM     SMH    MOLCAS    ERIS     OPER     JKOP   

              2       4        0.71       700     1000      520     2100   
                                         GEOM     BASIS   MCVARS     RHF  

 PROGRAMS   *        TOTAL       MP3    HF-SCF       INT
 CPU TIMES  *         2.56      0.79      0.78      0.90
 REAL TIME  *        10.03 SEC
 DISK USED  *       206.45 MB
 **********************************************************************************************************************************

 Dump information in style XML to xml output                                                                      

 Orbitals will not be exported.

 **********************************************************************************************************************************

 MP3/cc-pVDZ energy=   -226.640496110102

             MP3          HF-SCF
   -226.64049611   -225.84424652
 **********************************************************************************************************************************
 Molpro calculation terminated
