
 Working directory              : /tmp/peterk/molpro.0ZuBeAy1vc/
 Global scratch directory       : /tmp/peterk/molpro.0ZuBeAy1vc/
 Wavefunction directory         : /home/peterk/wfu/
 Main file repository           : /tmp/peterk/molpro.0ZuBeAy1vc/

 id        : peterk

 Nodes     nprocs
 marat        1
 GA implementation: MPI file
 GA implementation (serial work in mppx): MPI file

 Using customized tuning parameters: mindgm=1; mindgv=20; mindgc=4; mindgr=1; noblas=0; minvec=7
 default implementation of scratch files=df  


 Variables initialized (1032), CPU time= 0.00 sec
 
 symmetry,nosym
 
 
 geometry={
            7
     F          2.24953292     -0.16163470     -0.00906451
     C          0.83989310      0.02030650      0.00310752
     H          0.35178382     -0.87134447     -0.36481550
     H          0.52242274      0.21318049      1.01958309
     H          0.60022397      0.86229312     -0.63454561
     O         -1.81896698     -0.15832046     -0.00598050
     H         -2.74488958      0.09551952     -0.00828450
 }
 basis=cc-pVQZ
 
 charge=-1
 
 hf; ccsd(t)
 
 
 
 {put,xml;noorbitals,nobasis}
 Commands initialized (841), CPU time= 0.01 sec, 708 directives.
 Default parameters read. Elapsed time= 0.05 sec

 Checking input...
 Passed
1


                                         ***  PROGRAM SYSTEM MOLPRO  ***
                                       Copyright, TTI GmbH Stuttgart, 2015
                                    Version 2023.1 linked Sat Jun 10 08:01:27 2023


 **********************************************************************************************************************************
 LABEL *                                                                                                                                                                 
  (16 PROC) 64 bit serial version                                                        DATE: 11-Jun-23          TIME: 20:54:24  
 **********************************************************************************************************************************

 SHA1:             8376d659ba1296ca7ee514c57770fe2c96af278c
 **********************************************************************************************************************************

 Memory per process:      1074 MW
 Total memory per node:   1074 MW

 GA preallocation disabled
 GA check disabled

 Variable memory set to 1073.7 MW

 ZSYMEL=NOSYM


 Geometry recognized as XYZ

 SETTING BASIS          =    CC-PVQZ
 SETTING CHARGE         =        -1.00000000                                  


 Recomputing integrals since basis changed


 Using spherical harmonics

 Library entry F      S cc-pVQZ              selected for orbital group  1
 Library entry F      P cc-pVQZ              selected for orbital group  1
 Library entry F      D cc-pVQZ              selected for orbital group  1
 Library entry F      F cc-pVQZ              selected for orbital group  1
 Library entry F      G cc-pVQZ              selected for orbital group  1
 Library entry C      S cc-pVQZ              selected for orbital group  2
 Library entry C      P cc-pVQZ              selected for orbital group  2
 Library entry C      D cc-pVQZ              selected for orbital group  2
 Library entry C      F cc-pVQZ              selected for orbital group  2
 Library entry C      G cc-pVQZ              selected for orbital group  2
 Library entry H      S cc-pVQZ              selected for orbital group  3
 Library entry H      P cc-pVQZ              selected for orbital group  3
 Library entry H      D cc-pVQZ              selected for orbital group  3
 Library entry H      F cc-pVQZ              selected for orbital group  3
 Library entry O      S cc-pVQZ              selected for orbital group  4
 Library entry O      P cc-pVQZ              selected for orbital group  4
 Library entry O      D cc-pVQZ              selected for orbital group  4
 Library entry O      F cc-pVQZ              selected for orbital group  4
 Library entry O      G cc-pVQZ              selected for orbital group  4


 PROGRAM * SEWARD (Integral evaluation for generally contracted gaussian basis sets)     Author: Roland Lindh, 1990

 Geometry written to block  1 of record 700


 Point group  C1  



 ATOMIC COORDINATES

 NR  ATOM    CHARGE       X              Y              Z

   1  F       9.00    4.251001127   -0.305445315   -0.017129441
   2  C       6.00    1.587167933    0.038373724    0.005872362
   3  H       1.00    0.664775075   -1.646602409   -0.689401381
   4  H       1.00    0.987235900    0.402852741    1.926732801
   5  H       1.00    1.134258917    1.629497836   -1.199117416
   6  O       8.00   -3.437349422   -0.299182309   -0.011301507
   7  H       1.00   -5.187089549    0.180505732   -0.015655436

 Bond lengths in Bohr (Angstrom)

 1-2  2.686028276  2-3  2.042880008  2-4  2.045108366  2-5  2.046656513  6-7  1.814307054
     ( 1.421384952)     ( 1.081045545)     ( 1.082224741)     ( 1.083043985)     ( 0.960089946)

 Bond angles

  1-2-3  109.83382105   1-2-4  108.77070472   1-2-5  108.29649717   3-2-4  109.52435453

  3-2-5  109.93347062   4-2-5  110.45808017

 NUCLEAR CHARGE:                   27
 NUMBER OF PRIMITIVE AOS:         397
 NUMBER OF SYMMETRY AOS:          332
 NUMBER OF CONTRACTIONS:          285   (  285A   )
 NUMBER OF INNER CORE ORBITALS:     0   (    0A   )
 NUMBER OF OUTER CORE ORBITALS:     3   (    3A   )
 NUMBER OF VALENCE ORBITALS:       16   (   16A   )


 NUCLEAR REPULSION ENERGY   67.43070998


 Eigenvalues of metric

         1 0.128E-03 0.254E-03 0.272E-03 0.280E-03 0.431E-03 0.492E-03 0.578E-03 0.108E-02


 Contracted 2-electron integrals neglected if value below      1.0D-11
 AO integral compression algorithm  1   Integral accuracy      1.0D-11

     2348.810 MB (compressed) written to integral file ( 33.5%)


 NUMBER OF SORTED TWO-ELECTRON INTEGRALS:  830505390.     BUFFER LENGTH:  32768
 NUMBER OF SEGMENTS:  52  SEGMENT LENGTH:   15999984      RECORD LENGTH: 262144

 Memory used in sort:      16.29 MW

 SORT1 READ   875429763. AND WROTE   587621527. INTEGRALS IN   3388 RECORDS. CPU TIME:     6.81 SEC, REAL TIME:    20.25 SEC
 SORT2 READ   587621527. AND WROTE   830505390. INTEGRALS IN   8960 RECORDS. CPU TIME:     5.83 SEC, REAL TIME:     8.37 SEC

 FILE SIZES:   FILE 1:  2381.9 MBYTE,  FILE 4:  7105.2 MBYTE,   TOTAL:   9487.1 MBYTE

 OPERATOR DM      FOR CENTER  0  COORDINATES:    0.000000    0.000000    0.000000


 **********************************************************************************************************************************
 DATASETS  * FILE   NREC   LENGTH (MB)   RECORD NAMES
              1      19     1993.27       500      610      700      900      950      970     1000      129      960     1100   
                                          VAR    BASINP    GEOM    SYMINP    ZMAT    AOBASIS   BASIS     P2S    ABASIS      S 
                                         1400     1410     1200     1210     1080     1600     1650     1300     1700   
                                           T        V       H0       H01     AOSYM     SMH    MOLCAS    ERIS     OPER   

 PROGRAMS   *        TOTAL       INT
 CPU TIMES  *        34.95     34.85
 REAL TIME  *        56.24 SEC
 DISK USED  *         8.84 GB
 **********************************************************************************************************************************


 Program * Restricted Hartree-Fock

 Orbital guess generated from atomic densities. Full valence occupancy:   19

 Initial occupancy:  14

 NELEC=   28   SYM=1   MS2= 0   THRE=1.0D-08   THRD=3.2D-06   THRG=3.2D-06  HFMA2=F  DIIS_START=2   DIIS_MAX=10   DIIS_INCORE=F

 Level shifts:    0.00 (CLOSED)    0.00 (OPEN)    0.30 (GAP_MIN)

 ITER           ETOT              DE          GRAD        DDIFF     DIIS  NEXP   TIME(IT)  TIME(TOT)  DIAG
   1     -214.38244193    -214.38244193     0.00D+00     0.37D-01     0     0       4.43      8.66    start
   2     -214.45480521      -0.07236327     0.67D-02     0.78D-02     1     0       4.42     13.08    diag
   3     -214.53020033      -0.07539513     0.55D-02     0.34D-02     2     0       4.35     17.43    diag
   4     -214.53079537      -0.00059504     0.34D-03     0.34D-03     3     0       4.47     21.90    diag
   5     -214.53086622      -0.00007084     0.14D-03     0.13D-03     4     0       4.39     26.29    diag
   6     -214.53087425      -0.00000803     0.45D-04     0.40D-04     5     0       4.37     30.66    diag
   7     -214.53087490      -0.00000066     0.10D-04     0.15D-04     6     0       4.39     35.05    diag
   8     -214.53087496      -0.00000006     0.25D-05     0.45D-05     7     0       4.35     39.40    fixocc
   9     -214.53087497      -0.00000001     0.84D-06     0.13D-05     8     0       4.42     43.82    diag
  10     -214.53087497      -0.00000000     0.24D-06     0.32D-06     0     0       4.41     48.23    diag/orth

 Final occupancy:  14

 !RHF STATE 1.1 Energy               -214.530874967243
  RHF One-electron energy            -437.653267988435
  RHF Two-electron energy             155.691683045783
  RHF Kinetic energy                  214.504300696464
  RHF Nuclear energy                   67.430709975409
  RHF Virial quotient                  -1.000123886890

 !RHF STATE 1.1 Dipole moment           1.53891179     0.47555579     0.01618333
 Dipole moment /Debye                   3.91152362     1.20874226     0.04113393

 Orbital energies:

           1.1          2.1          3.1          4.1          5.1          6.1          7.1          8.1          9.1         10.1
    -26.096820   -20.171716   -11.107031    -1.401238    -0.906623    -0.761073    -0.510548    -0.509228    -0.485499    -0.349462

          11.1         12.1         13.1         14.1         15.1         16.1
     -0.346621    -0.254514    -0.117593    -0.117010     0.282408     0.349022


 HOMO     14.1    -0.117010 =      -3.1840eV
 LUMO     15.1     0.282408 =       7.6847eV
 LUMO-HOMO         0.399418 =      10.8687eV

 Orbitals saved in record  2100.2


 **********************************************************************************************************************************
 DATASETS  * FILE   NREC   LENGTH (MB)   RECORD NAMES
              1      19     1993.27       500      610      700      900      950      970     1000      129      960     1100   
                                          VAR    BASINP    GEOM    SYMINP    ZMAT    AOBASIS   BASIS     P2S    ABASIS      S 
                                         1400     1410     1200     1210     1080     1600     1650     1300     1700   
                                           T        V       H0       H01     AOSYM     SMH    MOLCAS    ERIS     OPER   

              2       4        1.76       700     1000      520     2100   
                                         GEOM     BASIS   MCVARS     RHF  

 PROGRAMS   *        TOTAL    HF-SCF       INT
 CPU TIMES  *        83.19     48.24     34.85
 REAL TIME  *       107.96 SEC
 DISK USED  *         8.84 GB
 **********************************************************************************************************************************


 PROGRAM * CCSD (Closed-shell coupled cluster)     Authors: C. Hampel, H.-J. Werner, 1991, M. Deegan, P.J. Knowles, 1992


 Convergence thresholds:  THRVAR = 1.00D-08  THRDEN = 1.00D-06

 CCSD(T)     terms to be evaluated (factor= 1.000)


 Number of core orbitals:           3 (   3 )
 Number of closed-shell orbitals:  11 (  11 )
 Number of external orbitals:     271 ( 271 )

 Molecular orbitals read from record     2100.2  Type=RHF/CANONICAL  

 Number of N-1 electron functions:              11
 Number of N-2 electron functions:              66
 Number of singly external CSFs:              2981
 Number of doubly external CSFs:           4444671
 Total number of CSFs:                     4447653

 Length of J-op  integral file:               0.00 MB
 Length of K-op  integral file:               5.64 MB
 Length of 3-ext integral record:             0.00 MB

 Memory could be reduced to 280.53 Mwords without degradation in triples

 Integral transformation finished. Total CPU:  23.26 sec, npass=  1  Memory used: 150.09 MW

 Reference energy:                   -214.53087497

 MP2 singlet pair energy:              -0.49594355
 MP2 triplet pair energy:              -0.27187360
 MP2 correlation energy:               -0.76781716
 MP2 total energy:                   -215.29869212

 SCS-MP2 correlation energy:           -0.76429806   (PS=  1.200000  PT=  0.333333)
 SCS-MP2 total energy:               -215.29517303

 ITER.      SQ.NORM     CORR.ENERGY   TOTAL ENERGY   ENERGY CHANGE        DEN1      VAR(S)    VAR(P)  DIIS     TIME  TIME/IT
   1      1.17671478    -0.77639221  -215.30726718    -0.00857506     0.00944010  0.31D-02  0.32D-02  1  1   133.87    27.25
   2      1.18791695    -0.77660046  -215.30747543    -0.00020825    -0.01473546  0.32D-04  0.39D-03  2  2   163.13    28.69
   3      1.19220318    -0.77678021  -215.30765517    -0.00017974    -0.00276903  0.41D-04  0.20D-04  3  3   191.02    32.15
   4      1.19350954    -0.77670422  -215.30757919     0.00007599    -0.00066856  0.25D-05  0.32D-05  4  4   218.78    31.33
   5      1.19392024    -0.77670616  -215.30758113    -0.00000194    -0.00011747  0.12D-05  0.26D-06  5  5   246.67    31.25
   6      1.19403870    -0.77670074  -215.30757571     0.00000542    -0.00002034  0.29D-06  0.61D-07  6  6   274.74    31.46
   7      1.19409379    -0.77669699  -215.30757195     0.00000376    -0.00000829  0.62D-07  0.15D-07  6  2   303.35    31.19
   8      1.19411590    -0.77669643  -215.30757139     0.00000056    -0.00000068  0.93D-08  0.21D-08  6  1   332.56    31.07
   9      1.19412404    -0.77669616  -215.30757112     0.00000027     0.00000035  0.12D-08  0.34D-09  6  3   362.20    31.03

 Norm of t1 vector:      0.07018049      S-energy:     0.00000006      T1 diagnostic:  0.01058011
                                                                       D1 diagnostic:  0.02703768
                                                                       D2 diagnostic:  0.13701674 (internal)


 Total CPU time for triples:    611.52 sec


 RESULTS
 =======

  Reference energy                   -214.530874967244
  CCSD singlet pair energy             -0.534525262524
  CCSD triplet pair energy             -0.242170952436
  CCSD correlation energy              -0.776696156570

  Triples (T) contribution             -0.026564206000
  Total correlation energy             -0.803260362570

  CCSD total energy                  -215.307571123814
  CCSD[T] energy                     -215.335320694537
  CCSD-T energy                      -215.333584192623
 !CCSD(T) total energy               -215.334135329814

 Timing summary (sec):

 STEP                 CPU(USER)    SYS     CPU(TOT)    WALL
 Transformation         23.53      1.84     25.37     25.38
 CCSD iterations       339.01      7.01    346.02    279.79
 Triples               611.52      9.67    621.19    622.82

 Program statistics:

 Available memory in ccsd:              1073741326
 Min. memory needed in ccsd:              11746667
 Max. memory used in ccsd:                15703279
 Max. memory used in cckext:              11405581 ( 9 integral passes)



 **********************************************************************************************************************************
 DATASETS  * FILE   NREC   LENGTH (MB)   RECORD NAMES
              1      20     2894.16       500      610      700      900      950      970     1000      129      960     1100   
                                          VAR    BASINP    GEOM    SYMINP    ZMAT    AOBASIS   BASIS     P2S    ABASIS      S 
                                         1400     1410     1200     1210     1080     1600     1650     1300     1700     1380   
                                           T        V       H0       H01     AOSYM     SMH    MOLCAS    ERIS     OPER     JKOP   

              2       4        1.76       700     1000      520     2100   
                                         GEOM     BASIS   MCVARS     RHF  

 PROGRAMS   *        TOTAL   CCSD(T)    HF-SCF       INT
 CPU TIMES  *       973.74    890.55     48.24     34.85
 REAL TIME  *      1036.24 SEC
 DISK USED  *         8.84 GB
 **********************************************************************************************************************************

 Dump information in style XML to xml output                                                                      

 Orbitals will not be exported.

 **********************************************************************************************************************************

 CCSD(T)/cc-pVQZ energy=   -215.334135329814

         CCSD(T)          HF-SCF
   -215.33413533   -214.53087497
 **********************************************************************************************************************************
 Molpro calculation terminated
