
 Working directory              : /tmp/peterk/molpro.lzudD0fmBV/
 Global scratch directory       : /tmp/peterk/molpro.lzudD0fmBV/
 Wavefunction directory         : /home/peterk/wfu/
 Main file repository           : /tmp/peterk/molpro.lzudD0fmBV/

 id        : peterk

 Nodes     nprocs
 marat        1
 GA implementation: MPI file
 GA implementation (serial work in mppx): MPI file

 Using customized tuning parameters: mindgm=1; mindgv=20; mindgc=4; mindgr=1; noblas=0; minvec=7
 default implementation of scratch files=df  


 Variables initialized (1032), CPU time= 0.00 sec
 
 symmetry,nosym
 
 
 geometry={
           17
     SI         0.95111717     -2.34248323      0.00000000
     SI         2.89848985     -1.03325876      0.00000000
     SI        -0.99433708     -1.00453120      0.00000000
     SI        -0.50864801      1.29196677      0.00000000
     SI        -2.47062147      2.57854369      0.00000000
     H          0.94975038     -3.21957328     -1.20217863
     H          0.94975038     -3.21957328      1.20217863
     H         -1.81620882     -1.31657238      1.20081987
     H         -1.81620882     -1.31657238     -1.20081987
     H          0.30852143      1.61775107     -1.20050887
     H          0.30852143      1.61775107      1.20050887
     H         -2.17074349      4.03381275      0.00000000
     H         -3.27850228      2.26099322     -1.20543585
     H         -3.27850228      2.26099322      1.20543585
     H          4.11885639     -1.88075049      0.00000000
     H          2.92438262     -0.16424840     -1.20428156
     H          2.92438262     -0.16424840      1.20428156
 }
 basis=cc-pVDZ
 
 
 
 hf; ccsd(t)
 
 
 
 {put,xml;noorbitals,nobasis}
 Commands initialized (841), CPU time= 0.01 sec, 708 directives.
 Default parameters read. Elapsed time= 0.05 sec

 Checking input...
 Passed
1


                                         ***  PROGRAM SYSTEM MOLPRO  ***
                                       Copyright, TTI GmbH Stuttgart, 2015
                                    Version 2023.1 linked Sat Jun 10 08:01:27 2023


 **********************************************************************************************************************************
 LABEL *                                                                                                                                                                 
  (16 PROC) 64 bit serial version                                                        DATE: 13-Jun-23          TIME: 11:34:13  
 **********************************************************************************************************************************

 SHA1:             8376d659ba1296ca7ee514c57770fe2c96af278c
 **********************************************************************************************************************************

 Memory per process:      1074 MW
 Total memory per node:   1074 MW

 GA preallocation disabled
 GA check disabled

 Variable memory set to 1073.7 MW

 ZSYMEL=NOSYM


 Geometry recognized as XYZ

 SETTING BASIS          =    CC-PVDZ


 Recomputing integrals since basis changed


 Using spherical harmonics

 Library entry SI     S cc-pVDZ              selected for orbital group  1
 Library entry SI     P cc-pVDZ              selected for orbital group  1
 Library entry SI     D cc-pVDZ              selected for orbital group  1
 Library entry H      S cc-pVDZ              selected for orbital group  2
 Library entry H      P cc-pVDZ              selected for orbital group  2


 PROGRAM * SEWARD (Integral evaluation for generally contracted gaussian basis sets)     Author: Roland Lindh, 1990

 Geometry written to block  1 of record 700


 Point group  C1  



 ATOMIC COORDINATES

 NR  ATOM    CHARGE       X              Y              Z

   1  SI     14.00    1.797350964   -4.426651756    0.000000000
   2  SI     14.00    5.477351992   -1.952576072    0.000000000
   3  SI     14.00   -1.879024757   -1.898288852    0.000000000
   4  SI     14.00   -0.961205433    2.441463357    0.000000000
   5  SI     14.00   -4.668797936    4.872741374    0.000000000
   6  H       1.00    1.794768105   -6.084111737   -2.271788364
   7  H       1.00    1.794768105   -6.084111737    2.271788364
   8  H       1.00   -3.432137255   -2.487961221    2.269220679
   9  H       1.00   -3.432137255   -2.487961221   -2.269220679
  10  H       1.00    0.583021006    3.057106460   -2.268632974
  11  H       1.00    0.583021006    3.057106460    2.268632974
  12  H       1.00   -4.102110683    7.622801336    0.000000000
  13  H       1.00   -6.195471408    4.272657955   -2.277943617
  14  H       1.00   -6.195471408    4.272657955    2.277943617
  15  H       1.00    7.783510524   -3.554103335    0.000000000
  16  H       1.00    5.526282235   -0.310384492   -2.275762325
  17  H       1.00    5.526282235   -0.310384492    2.275762325

 Bond lengths in Bohr (Angstrom)

  1- 2  4.434349789   1- 3  4.461878239   1- 6  2.812152668   1- 7  2.812152668   2-15  2.807713794
       ( 2.346556854)       ( 2.361124282)       ( 1.488127106)       ( 1.488127106)       ( 1.485778154)

  2-16  2.806827660   2-17  2.806827660   3- 4  4.435745884   3- 8  2.812336116   3- 9  2.812336116
       ( 1.485309233)       ( 1.485309233)       ( 2.347295635)       ( 1.488224182)       ( 1.488224182)

  4- 5  4.433661575   4-10  2.812533964   4-11  2.812533964   5-12  2.807839780   5-13  2.807108677
       ( 2.346192667)       ( 1.488328879)       ( 1.488328879)       ( 1.485844824)       ( 1.485457940)

  5-14  2.807108677
       ( 1.485457940)

 Bond angles

  1- 2-15  111.30863625   1- 2-16  109.93158359   1- 2-17  109.93158359   1- 3- 4  112.57598178

  1-3-8  109.64640063   1-3-9  109.64640063   2-1-3  111.56937561   2-1-6  109.24475078

  2-1-7  109.24475078   3-1-6  109.46478162   3-1-7  109.46478162   3-4-5  111.31353681

  3- 4-10  109.13301168   3- 4-11  109.13301168   4- 3- 8  108.62690914   4- 3- 9  108.62690914

  4- 5-12  111.61152508   4- 5-13  109.72886965   4- 5-14  109.72886965   5- 4-10  109.82227336

  5- 4-11  109.82227336   6- 1- 7  107.77216476   8- 3- 9  107.58462000  10- 4-11  107.53308939

 12- 5-13  108.61075935  12- 5-14  108.61075935  13- 5-14  108.48373924  15- 2-16  108.62707412

 15- 2-17  108.62707412  16- 2-17  108.34739023

 NUCLEAR CHARGE:                   82
 NUMBER OF PRIMITIVE AOS:         294
 NUMBER OF SYMMETRY AOS:          289
 NUMBER OF CONTRACTIONS:          150   (  150A   )
 NUMBER OF INNER CORE ORBITALS:     5   (    5A   )
 NUMBER OF OUTER CORE ORBITALS:    20   (   20A   )
 NUMBER OF VALENCE ORBITALS:       32   (   32A   )


 NUCLEAR REPULSION ENERGY  469.02428364


 Eigenvalues of metric

         1 0.227E-02 0.381E-02 0.549E-02 0.688E-02 0.945E-02 0.124E-01 0.162E-01 0.208E-01


 Contracted 2-electron integrals neglected if value below      1.0D-11
 AO integral compression algorithm  1   Integral accuracy      1.0D-11

     176.161 MB (compressed) written to integral file ( 35.2%)


 NUMBER OF SORTED TWO-ELECTRON INTEGRALS:   64133475.     BUFFER LENGTH:  32768
 NUMBER OF SEGMENTS:   5  SEGMENT LENGTH:   15999503      RECORD LENGTH: 524288

 Memory used in sort:      16.56 MW

 SORT1 READ    62664794. AND WROTE    46168929. INTEGRALS IN    135 RECORDS. CPU TIME:     0.50 SEC, REAL TIME:     0.88 SEC
 SORT2 READ    46168929. AND WROTE    64133475. INTEGRALS IN    672 RECORDS. CPU TIME:     0.64 SEC, REAL TIME:     0.78 SEC

 FILE SIZES:   FILE 1:   207.3 MBYTE,  FILE 4:   566.3 MBYTE,   TOTAL:    773.6 MBYTE

 OPERATOR DM      FOR CENTER  0  COORDINATES:    0.000000    0.000000    0.000000


 **********************************************************************************************************************************
 DATASETS  * FILE   NREC   LENGTH (MB)   RECORD NAMES
              1      19      177.13       500      610      700      900      950      970     1000      129      960     1100   
                                          VAR    BASINP    GEOM    SYMINP    ZMAT    AOBASIS   BASIS     P2S    ABASIS      S 
                                         1400     1410     1200     1210     1080     1600     1650     1300     1700   
                                           T        V       H0       H01     AOSYM     SMH    MOLCAS    ERIS     OPER   

 PROGRAMS   *        TOTAL       INT
 CPU TIMES  *         5.30      5.18
 REAL TIME  *         6.78 SEC
 DISK USED  *       738.38 MB
 **********************************************************************************************************************************


 Program * Restricted Hartree-Fock

 Orbital guess generated from atomic densities. Full valence occupancy:   57

 Initial occupancy:  41

 NELEC=   82   SYM=1   MS2= 0   THRE=1.0D-08   THRD=3.2D-06   THRG=3.2D-06  HFMA2=F  DIIS_START=2   DIIS_MAX=10   DIIS_INCORE=F

 Level shifts:    0.00 (CLOSED)    0.00 (OPEN)    0.30 (GAP_MIN)

 ITER           ETOT              DE          GRAD        DDIFF     DIIS  NEXP   TIME(IT)  TIME(TOT)  DIAG
   1    -1451.56583250   -1451.56583250     0.00D+00     0.11D+00     0     0       0.38      0.74    start
   2    -1451.62150367      -0.05567118     0.21D-02     0.62D-02     1     0       0.37      1.11    diag
   3    -1451.62853668      -0.00703300     0.66D-03     0.23D-02     2     0       0.35      1.46    diag
   4    -1451.62875547      -0.00021879     0.13D-03     0.58D-03     3     0       0.37      1.83    diag
   5    -1451.62877213      -0.00001666     0.32D-04     0.18D-03     4     0       0.38      2.21    diag
   6    -1451.62877271      -0.00000058     0.61D-05     0.38D-04     5     0       0.37      2.58    diag
   7    -1451.62877274      -0.00000003     0.14D-05     0.86D-05     6     0       0.37      2.95    diag
   8    -1451.62877274      -0.00000000     0.27D-06     0.15D-05     7     0       0.37      3.32    fixocc
   9    -1451.62877274      -0.00000000     0.80D-07     0.29D-06     0     0       0.35      3.67    diag

 Final occupancy:  41

 !RHF STATE 1.1 Energy              -1451.628772739770
  RHF One-electron energy           -2947.978851245104
  RHF Two-electron energy            1027.325794864932
  RHF Kinetic energy                 1451.802243161943
  RHF Nuclear energy                  469.024283640402
  RHF Virial quotient                  -0.999880513739

 !RHF STATE 1.1 Dipole moment           0.00587828    -0.02563738     0.00000000
 Dipole moment /Debye                   0.01494111    -0.06516372     0.00000000

 Orbital energies:

           1.1          2.1          3.1          4.1          5.1          6.1          7.1          8.1          9.1         10.1
    -68.779947   -68.779318   -68.777382   -68.776352   -68.775550    -6.131094    -6.130494    -6.129390    -6.128549    -6.127914

          11.1         12.1         13.1         14.1         15.1         16.1         17.1         18.1         19.1         20.1
     -4.236868    -4.236847    -4.236798    -4.236277    -4.236257    -4.236209    -4.234986    -4.234960    -4.234923    -4.234157

          21.1         22.1         23.1         24.1         25.1         26.1         27.1         28.1         29.1         30.1
     -4.233995    -4.233913    -4.233516    -4.233364    -4.233314    -0.784743    -0.754356    -0.714041    -0.674312    -0.636801

          31.1         32.1         33.1         34.1         35.1         36.1         37.1         38.1         39.1         40.1
     -0.515367    -0.497854    -0.491569    -0.488456    -0.483998    -0.474184    -0.460467    -0.442872    -0.423085    -0.390239

          41.1         42.1         43.1
     -0.368920     0.102846     0.113126


 HOMO     41.1    -0.368920 =     -10.0388eV
 LUMO     42.1     0.102846 =       2.7986eV
 LUMO-HOMO         0.471765 =      12.8374eV

 Orbitals saved in record  2100.2


 **********************************************************************************************************************************
 DATASETS  * FILE   NREC   LENGTH (MB)   RECORD NAMES
              1      19      177.13       500      610      700      900      950      970     1000      129      960     1100   
                                          VAR    BASINP    GEOM    SYMINP    ZMAT    AOBASIS   BASIS     P2S    ABASIS      S 
                                         1400     1410     1200     1210     1080     1600     1650     1300     1700   
                                           T        V       H0       H01     AOSYM     SMH    MOLCAS    ERIS     OPER   

              2       4        1.01       700     1000      520     2100   
                                         GEOM     BASIS   MCVARS     RHF  

 PROGRAMS   *        TOTAL    HF-SCF       INT
 CPU TIMES  *         8.97      3.67      5.18
 REAL TIME  *        10.72 SEC
 DISK USED  *       738.38 MB
 **********************************************************************************************************************************


 PROGRAM * CCSD (Closed-shell coupled cluster)     Authors: C. Hampel, H.-J. Werner, 1991, M. Deegan, P.J. Knowles, 1992


 Convergence thresholds:  THRVAR = 1.00D-08  THRDEN = 1.00D-06

 CCSD(T)     terms to be evaluated (factor= 1.000)


 Number of core orbitals:          25 (  25 )
 Number of closed-shell orbitals:  16 (  16 )
 Number of external orbitals:     109 ( 109 )

 Molecular orbitals read from record     2100.2  Type=RHF/CANONICAL  

 Number of N-1 electron functions:              16
 Number of N-2 electron functions:             136
 Number of singly external CSFs:              1744
 Number of doubly external CSFs:           1521640
 Total number of CSFs:                     1523385

 Length of J-op  integral file:               0.00 MB
 Length of K-op  integral file:               1.61 MB
 Length of 3-ext integral record:             0.00 MB

 Memory could be reduced to 27.90 Mwords without degradation in triples

 Integral transformation finished. Total CPU:   2.73 sec, npass=  1  Memory used:  34.38 MW

 Reference energy:                  -1451.62877274

 MP2 singlet pair energy:              -0.39164365
 MP2 triplet pair energy:              -0.12320974
 MP2 correlation energy:               -0.51485339
 MP2 total energy:                  -1452.14362613

 SCS-MP2 correlation energy:           -0.54663622   (PS=  1.200000  PT=  0.333333)
 SCS-MP2 total energy:              -1452.17540896

 ITER.      SQ.NORM     CORR.ENERGY   TOTAL ENERGY   ENERGY CHANGE        DEN1      VAR(S)    VAR(P)  DIIS     TIME  TIME/IT
   1      1.32969799    -0.61758747 -1452.24636021    -0.10273408    -0.07458733  0.30D-02  0.75D-02  1  1    19.55     7.40
   2      1.37833802    -0.62605760 -1452.25483034    -0.00847013    -0.03319963  0.12D-03  0.36D-03  2  2    26.02     7.01
   3      1.38688372    -0.62617101 -1452.25494375    -0.00011341    -0.00269555  0.54D-04  0.24D-04  3  3    33.68     7.26
   4      1.38987498    -0.62622843 -1452.25500117    -0.00005742    -0.00065478  0.63D-05  0.25D-05  4  4    41.18     7.35
   5      1.39088383    -0.62621458 -1452.25498732     0.00001386    -0.00017718  0.30D-06  0.30D-06  5  5    48.62     7.40
   6      1.39105798    -0.62619683 -1452.25496957     0.00001775    -0.00002571  0.33D-07  0.29D-07  6  6    55.91     7.40
   7      1.39109827    -0.62619630 -1452.25496904     0.00000053    -0.00000362  0.16D-08  0.30D-08  6  1    63.55     7.45
   8      1.39110321    -0.62619627 -1452.25496901     0.00000003     0.00000004  0.27D-09  0.27D-09  6  2    71.34     7.52

 Norm of t1 vector:      0.10781007      S-energy:     0.00000005      T1 diagnostic:  0.01347626
                                                                       D1 diagnostic:  0.03033221
                                                                       D2 diagnostic:  0.16476687 (internal)


 Total CPU time for triples:     73.70 sec


 RESULTS
 =======

  Reference energy                  -1451.628772739768
  CCSD singlet pair energy             -0.494580633219
  CCSD triplet pair energy             -0.131615684173
  CCSD correlation energy              -0.626196267063

  Triples (T) contribution             -0.017740743211
  Total correlation energy             -0.643937010274

  CCSD total energy                 -1452.254969006832
  CCSD[T] energy                    -1452.273188303878
  CCSD-T energy                     -1452.272515305742
 !CCSD(T) total energy              -1452.272709750043

 Timing summary (sec):

 STEP                 CPU(USER)    SYS     CPU(TOT)    WALL
 Transformation          2.84      0.26      3.10      3.10
 CCSD iterations        68.61      1.06     69.67     60.26
 Triples                73.70      1.88     75.58     75.58

 Program statistics:

 Available memory in ccsd:              1073740759
 Min. memory needed in ccsd:               4087167
 Max. memory used in ccsd:                 5344727
 Max. memory used in cckext:               6399971 ( 8 integral passes)



 **********************************************************************************************************************************
 DATASETS  * FILE   NREC   LENGTH (MB)   RECORD NAMES
              1      20      292.34       500      610      700      900      950      970     1000      129      960     1100   
                                          VAR    BASINP    GEOM    SYMINP    ZMAT    AOBASIS   BASIS     P2S    ABASIS      S 
                                         1400     1410     1200     1210     1080     1600     1650     1300     1700     1380   
                                           T        V       H0       H01     AOSYM     SMH    MOLCAS    ERIS     OPER     JKOP   

              2       4        1.01       700     1000      520     2100   
                                         GEOM     BASIS   MCVARS     RHF  

 PROGRAMS   *        TOTAL   CCSD(T)    HF-SCF       INT
 CPU TIMES  *       144.75    135.77      3.67      5.18
 REAL TIME  *       149.73 SEC
 DISK USED  *       738.38 MB
 **********************************************************************************************************************************

 Dump information in style XML to xml output                                                                      

 Orbitals will not be exported.

 **********************************************************************************************************************************

 CCSD(T)/cc-pVDZ energy=  -1452.272709750043

         CCSD(T)          HF-SCF
  -1452.27270975  -1451.62877274
 **********************************************************************************************************************************
 Molpro calculation terminated
