
 Working directory              : /var/folders/2v/xbgp75_9785319ghcgb4zr4r0000gp/T//molpro.rHti0PU0sJ/
 Global scratch directory       : /var/folders/2v/xbgp75_9785319ghcgb4zr4r0000gp/T//molpro.rHti0PU0sJ/
 Wavefunction directory         : /Users/sacpjk/wfu/
 Main file repository           : /var/folders/2v/xbgp75_9785319ghcgb4zr4r0000gp/T//molpro.rHti0PU0sJ/

 id        : peterk

 Nodes                        nprocs
 Cardiff-University-G34YLXT77Y    1
 GA implementation: MPI file
 GA implementation (serial work in mppx): MPI file

 Using customized tuning parameters: mindgm=1; mindgv=20; mindgc=4; mindgr=1; noblas=0; minvec=7
 default implementation of scratch files=df  


 Variables initialized (1032), CPU time= 0.01 sec
 
 symmetry,nosym
 
 
 geometry={
            6
     F          1.82355879      0.00051927      0.00010874
     C          0.00014416     -0.00008973     -0.00018227
     H          0.00006416     -0.30488877      1.02506923
     H          0.00028716      1.04017819     -0.24893240
     H         -0.00009484     -0.73625925     -0.77617604
     F         -1.82395944      0.00054027      0.00011274
 }
 basis=cc-pVDZ
 
 charge=-1
 
 hf; ccsd(t)
 
 
 
 {put,xml;noorbitals,nobasis}
 Commands initialized (841), CPU time= 0.00 sec, 704 directives.
 Default parameters read. Elapsed time= 0.60 sec

 Checking input...
 Passed
1


                                         ***  PROGRAM SYSTEM MOLPRO  ***
                                       Copyright, TTI GmbH Stuttgart, 2015
                                    Version 2023.1 linked Tue Jun  6 09:54:11 2023


 **********************************************************************************************************************************
 LABEL *                                                                                                                                                                 
  64 bit serial version                                                                  DATE: 09-Jun-23          TIME: 15:39:23  
 **********************************************************************************************************************************

 SHA1:             8ebb0dd001088a5c915591db1a321413035db0b1
 **********************************************************************************************************************************

 Memory per process:       805 MW
 Total memory per node:   1074 MW
 Total GA space:           268 MW

 GA preallocation disabled
 GA check enabled

 Variable memory set to 805.3 MW

 ZSYMEL=NOSYM


 Geometry recognized as XYZ

 SETTING BASIS          =    CC-PVDZ
 SETTING CHARGE         =        -1.00000000                                  


 Recomputing integrals since basis changed


 Using spherical harmonics

 Library entry F      S cc-pVDZ              selected for orbital group  1
 Library entry F      P cc-pVDZ              selected for orbital group  1
 Library entry F      D cc-pVDZ              selected for orbital group  1
 Library entry C      S cc-pVDZ              selected for orbital group  2
 Library entry C      P cc-pVDZ              selected for orbital group  2
 Library entry C      D cc-pVDZ              selected for orbital group  2
 Library entry H      S cc-pVDZ              selected for orbital group  3
 Library entry H      P cc-pVDZ              selected for orbital group  3


 PROGRAM * SEWARD (Integral evaluation for generally contracted gaussian basis sets)     Author: Roland Lindh, 1990

 Geometry written to block  1 of record 700


 Point group  C1  



 ATOMIC COORDINATES

 NR  ATOM    CHARGE       X              Y              Z

   1  F       9.00    3.446026685    0.000981278    0.000205489
   2  C       6.00    0.000272423   -0.000169565   -0.000344440
   3  H       1.00    0.000121245   -0.576156274    1.937100103
   4  H       1.00    0.000542654    1.965651900   -0.470414060
   5  H       1.00   -0.000179222   -1.391328339   -1.466760140
   6  F       9.00   -3.446783804    0.001020962    0.000213048

 Bond lengths in Bohr (Angstrom)

 1-2  3.445754498  2-3  2.021250126  2-4  2.021242082  2-5  2.021310947  2-6  3.447056478
     ( 1.823414755)     ( 1.069599504)     ( 1.069595247)     ( 1.069631689)     ( 1.824103733)

 Bond angles

  1-2-3   90.00097349   1-2-4   89.97585498   1-2-5   90.03260652   1-2-6  179.95694098

  3-2-4  120.00490672   3-2-5  119.95179677   3-2-6   89.99247148   4-2-5  120.04329562

  4-2-6   89.99056926   5-2-6   90.00753967

 NUCLEAR CHARGE:                   27
 NUMBER OF PRIMITIVE AOS:         102
 NUMBER OF SYMMETRY AOS:           99
 NUMBER OF CONTRACTIONS:           57   (   57A   )
 NUMBER OF INNER CORE ORBITALS:     0   (    0A   )
 NUMBER OF OUTER CORE ORBITALS:     3   (    3A   )
 NUMBER OF VALENCE ORBITALS:       15   (   15A   )


 NUCLEAR REPULSION ENERGY   66.36612659


 Eigenvalues of metric

         1 0.971E-02 0.245E-01 0.339E-01 0.339E-01 0.381E-01 0.415E-01 0.497E-01 0.498E-01


 Contracted 2-electron integrals neglected if value below      1.0D-11
 AO integral compression algorithm  1   Integral accuracy      1.0D-11

     6.029 MB (compressed) written to integral file ( 47.0%)


 NUMBER OF SORTED TWO-ELECTRON INTEGRALS:    1367031.     BUFFER LENGTH:  32768
 NUMBER OF SEGMENTS:   1  SEGMENT LENGTH:    1367031      RECORD LENGTH: 524288

 Memory used in sort:       1.92 MW

 SORT1 READ     1609662. AND WROTE     1210894. INTEGRALS IN      4 RECORDS. CPU TIME:     0.01 SEC, REAL TIME:     0.01 SEC
 SORT2 READ     1210894. AND WROTE     1367031. INTEGRALS IN     23 RECORDS. CPU TIME:     0.03 SEC, REAL TIME:     0.03 SEC

 FILE SIZES:   FILE 1:    36.2 MBYTE,  FILE 4:    16.8 MBYTE,   TOTAL:     53.1 MBYTE

 OPERATOR DM      FOR CENTER  0  COORDINATES:    0.000000    0.000000    0.000000


 **********************************************************************************************************************************
 DATASETS  * FILE   NREC   LENGTH (MB)   RECORD NAMES
              1      19       33.42       500      610      700      900      950      970     1000      129      960     1100   
                                          VAR    BASINP    GEOM    SYMINP    ZMAT    AOBASIS   BASIS     P2S    ABASIS      S 
                                         1400     1410     1200     1210     1080     1600     1650     1300     1700   
                                           T        V       H0       H01     AOSYM     SMH    MOLCAS    ERIS     OPER   

 PROGRAMS   *        TOTAL       INT
 CPU TIMES  *         0.27      0.19
 REAL TIME  *         2.47 SEC
 DISK USED  *        51.02 MB
 **********************************************************************************************************************************


 Program * Restricted Hartree-Fock

 Orbital guess generated from atomic densities. Full valence occupancy:   18

 Initial occupancy:  14

 NELEC=   28   SYM=1   MS2= 0   THRE=1.0D-08   THRD=3.2D-06   THRG=3.2D-06  HFMA2=F  DIIS_START=2   DIIS_MAX=10   DIIS_INCORE=F

 Level shifts:    0.00 (CLOSED)    0.00 (OPEN)    0.30 (GAP_MIN)

 ITER           ETOT              DE          GRAD        DDIFF     DIIS  NEXP   TIME(IT)  TIME(TOT)  DIAG
   1     -238.33376697    -238.33376697     0.00D+00     0.17D+00     0     0       0.01      0.02    start
   2     -238.38862387      -0.05485689     0.15D-01     0.30D-01     1     0       0.00      0.02    diag
   3     -238.42001843      -0.03139456     0.91D-02     0.11D-01     2     0       0.01      0.03    diag
   4     -238.42037417      -0.00035574     0.60D-03     0.21D-02     3     0       0.01      0.04    diag
   5     -238.42038894      -0.00001477     0.11D-03     0.25D-03     4     0       0.01      0.05    diag
   6     -238.42039082      -0.00000187     0.42D-04     0.12D-03     5     0       0.00      0.05    diag
   7     -238.42039101      -0.00000019     0.11D-04     0.35D-04     6     0       0.01      0.06    diag
   8     -238.42039101      -0.00000001     0.20D-05     0.80D-05     7     0       0.01      0.07    fixocc
   9     -238.42039102      -0.00000000     0.25D-06     0.11D-05     8     0       0.00      0.07    diag
  10     -238.42039102      -0.00000000     0.32D-07     0.12D-06     0     0       0.01      0.08    diag/orth

 Final occupancy:  14

 !RHF STATE 1.1 Energy               -238.420391015023
  RHF One-electron energy            -472.892178069087
  RHF Two-electron energy             168.105660459959
  RHF Kinetic energy                  238.500315105684
  RHF Nuclear energy                   66.366126594105
  RHF Virial quotient                  -0.999664888952

 !RHF STATE 1.1 Dipole moment           0.00205761    -0.00150845    -0.00033777
 Dipole moment /Debye                   0.00522992    -0.00383411    -0.00085852

 Orbital energies:

           1.1          2.1          3.1          4.1          5.1          6.1          7.1          8.1          9.1         10.1
    -25.898591   -25.898351   -11.111318    -1.174282    -1.169077    -0.720630    -0.416801    -0.416644    -0.314296    -0.267772

          11.1         12.1         13.1         14.1         15.1         16.1
     -0.267768    -0.243362    -0.243343    -0.198193     0.384742     0.443618


 HOMO     14.1    -0.198193 =      -5.3931eV
 LUMO     15.1     0.384742 =      10.4694eV
 LUMO-HOMO         0.582936 =      15.8625eV

 Orbitals saved in record  2100.2


 **********************************************************************************************************************************
 DATASETS  * FILE   NREC   LENGTH (MB)   RECORD NAMES
              1      19       33.42       500      610      700      900      950      970     1000      129      960     1100   
                                          VAR    BASINP    GEOM    SYMINP    ZMAT    AOBASIS   BASIS     P2S    ABASIS      S 
                                         1400     1410     1200     1210     1080     1600     1650     1300     1700   
                                           T        V       H0       H01     AOSYM     SMH    MOLCAS    ERIS     OPER   

              2       4        0.51       700     1000      520     2100   
                                         GEOM     BASIS   MCVARS     RHF  

 PROGRAMS   *        TOTAL    HF-SCF       INT
 CPU TIMES  *         0.35      0.08      0.19
 REAL TIME  *         2.96 SEC
 DISK USED  *        51.02 MB
 **********************************************************************************************************************************


 PROGRAM * CCSD (Closed-shell coupled cluster)     Authors: C. Hampel, H.-J. Werner, 1991, M. Deegan, P.J. Knowles, 1992


 Convergence thresholds:  THRVAR = 1.00D-08  THRDEN = 1.00D-06

 CCSD(T)     terms to be evaluated (factor= 1.000)


 Number of core orbitals:           3 (   3 )
 Number of closed-shell orbitals:  11 (  11 )
 Number of external orbitals:      43 (  43 )

 Molecular orbitals read from record     2100.2  Type=RHF/CANONICAL  

 Number of N-1 electron functions:              11
 Number of N-2 electron functions:              66
 Number of singly external CSFs:               473
 Number of doubly external CSFs:            112101
 Total number of CSFs:                      112575

 Length of J-op  integral file:               0.00 MB
 Length of K-op  integral file:               0.29 MB
 Length of 3-ext integral record:             0.00 MB

 Memory could be reduced to 1.45 Mwords without degradation in triples

 Integral transformation finished. Total CPU:   0.04 sec, npass=  1  Memory used:   1.61 MW

 Reference energy:                   -238.42039102

 MP2 singlet pair energy:              -0.33106416
 MP2 triplet pair energy:              -0.20304749
 MP2 correlation energy:               -0.53411166
 MP2 total energy:                   -238.95450267

 SCS-MP2 correlation energy:           -0.52361766   (PS=  1.200000  PT=  0.333333)
 SCS-MP2 total energy:               -238.94400867

 ITER.      SQ.NORM     CORR.ENERGY   TOTAL ENERGY   ENERGY CHANGE        DEN1      VAR(S)    VAR(P)  DIIS     TIME  TIME/IT
   1      1.13644735    -0.55548418  -238.97587519    -0.02137252    -0.00646276  0.51D-02  0.24D-02  1  1     0.60     0.13
   2      1.14787194    -0.55695601  -238.97734702    -0.00147183    -0.01211398  0.15D-03  0.57D-03  2  2     0.71     0.14
   3      1.15512660    -0.55773268  -238.97812369    -0.00077667    -0.00347855  0.16D-03  0.27D-04  3  3     0.82     0.14
   4      1.15843863    -0.55773785  -238.97812886    -0.00000517    -0.00098133  0.29D-04  0.46D-05  4  4     0.93     0.14
   5      1.16025311    -0.55763620  -238.97802721     0.00010165    -0.00043340  0.12D-05  0.90D-06  5  5     1.04     0.14
   6      1.16066473    -0.55762771  -238.97801873     0.00000849    -0.00003930  0.14D-06  0.81D-07  6  6     1.15     0.14
   7      1.16073238    -0.55762519  -238.97801620     0.00000253     0.00000018  0.20D-07  0.84D-08  6  1     1.26     0.14
   8      1.16075147    -0.55762350  -238.97801451     0.00000169    -0.00000421  0.52D-08  0.16D-08  6  2     1.37     0.14
   9      1.16075215    -0.55762428  -238.97801529    -0.00000078     0.00000143  0.11D-08  0.23D-09  6  3     1.48     0.14
  10      1.16075625    -0.55762396  -238.97801498     0.00000031    -0.00000114  0.12D-09  0.47D-10  6  4     1.60     0.14

 Norm of t1 vector:      0.11567533      S-energy:     0.00000052      T1 diagnostic:  0.01743871
                                                                       D1 diagnostic:  0.07617870
                                                                       D2 diagnostic:  0.14841696 (external, symmetry=1)

 Singles amplitudes (print threshold =  0.500E-01):

         I         SYM. A    A   T(IA)

         6         1         4     -0.07284474

 Doubles amplitudes (print threshold =  0.500E-01):

         I         J         SYM. A    SYM. B    A         B      T(IJ, AB)

         6         6         1         1         4         4     -0.05040913
        11        11         1         1         4         4     -0.06613981


 Total CPU time for triples:      0.43 sec


 RESULTS
 =======

  Reference energy                   -238.420391015023
  CCSD singlet pair energy             -0.375060825133
  CCSD triplet pair energy             -0.182563657238
  CCSD correlation energy              -0.557623964132

  Triples (T) contribution             -0.010169092797
  Total correlation energy             -0.567793056929

  CCSD total energy                  -238.978014979155
  CCSD[T] energy                     -238.989768148281
  CCSD-T energy                      -238.987729333358
 !CCSD(T) total energy               -238.988184071952

 Timing summary (sec):

 STEP                 CPU(USER)    SYS     CPU(TOT)    WALL
 Transformation          0.04      0.00      0.04      0.30
 CCSD iterations         1.57      0.09      1.66      1.77
 Triples                 0.43      0.05      0.48      0.53

 Program statistics:

 Available memory in ccsd:               805305870
 Min. memory needed in ccsd:                354977
 Max. memory used in ccsd:                  441745
 Max. memory used in cckext:                497237 (10 integral passes)



 **********************************************************************************************************************************
 DATASETS  * FILE   NREC   LENGTH (MB)   RECORD NAMES
              1      20       39.35       500      610      700      900      950      970     1000      129      960     1100   
                                          VAR    BASINP    GEOM    SYMINP    ZMAT    AOBASIS   BASIS     P2S    ABASIS      S 
                                         1400     1410     1200     1210     1080     1600     1650     1300     1700     1380   
                                           T        V       H0       H01     AOSYM     SMH    MOLCAS    ERIS     OPER     JKOP   

              2       4        0.51       700     1000      520     2100   
                                         GEOM     BASIS   MCVARS     RHF  

 PROGRAMS   *        TOTAL   CCSD(T)    HF-SCF       INT
 CPU TIMES  *         1.96      1.61      0.08      0.19
 REAL TIME  *         6.13 SEC
 DISK USED  *        59.57 MB
 **********************************************************************************************************************************

 Dump information in style XML to xml output                                                                      

 Orbitals will not be exported.

 **********************************************************************************************************************************

 CCSD(T)/cc-pVDZ energy=   -238.988184071952

         CCSD(T)          HF-SCF
   -238.98818407   -238.42039102
 **********************************************************************************************************************************
 Molpro calculation terminated
