
 Working directory              : /var/folders/2v/xbgp75_9785319ghcgb4zr4r0000gp/T//molpro.gOfvocJZCH/
 Global scratch directory       : /var/folders/2v/xbgp75_9785319ghcgb4zr4r0000gp/T//molpro.gOfvocJZCH/
 Wavefunction directory         : /Users/sacpjk/wfu/
 Main file repository           : /var/folders/2v/xbgp75_9785319ghcgb4zr4r0000gp/T//molpro.gOfvocJZCH/

 id        : peterk

 Nodes                        nprocs
 Cardiff-University-G34YLXT77Y    1
 GA implementation: MPI file
 GA implementation (serial work in mppx): MPI file

 Using customized tuning parameters: mindgm=1; mindgv=20; mindgc=4; mindgr=1; noblas=0; minvec=7
 default implementation of scratch files=df  


 Variables initialized (1037), CPU time= 0.00 sec
 
 symmetry,nosym
 
 
 geometry={
 12
  c          0.515412733288   -0.473460405067    1.756757393235
  h          1.575035656996   -0.398467830102    1.526071885281
  h          0.288020716047   -1.480514194147    2.098540996396
  h          0.270089531224    0.209395869031    2.566654908928
  c         -0.375217632919   -0.155953832138    0.576958503198
  o         -1.597606497592   -0.183546666900    0.667022309200
  n          0.286297004241    0.155070994674   -0.567930261545
  h          1.293525977450    0.155908910863   -0.563750686813
  c         -0.418406599686    0.481569001856   -1.785663524799
  h         -1.480654596566    0.408419858701   -1.573763163570
  h         -0.190587557573    1.494438050957   -2.115204309627
  h         -0.165908734698   -0.212859757941   -2.585694049672
 }
 basis=aug-cc-pVTZ
 
 
 
 hf; hf; papt; mp4; counterpoise
 
 
 
 {put,xml;noorbitals,nobasis}
 Commands initialized (841), CPU time= 0.01 sec, 716 directives.
 Default parameters read. Elapsed time= 0.17 sec

 Checking input...
 Passed
1


                                         ***  PROGRAM SYSTEM MOLPRO  ***
                                       Copyright, TTI GmbH Stuttgart, 2015
                                    Version 2023.1 linked Fri Jul  7 12:12:39 2023


 **********************************************************************************************************************************
 LABEL *                                                                                                                                                                 
  64 bit serial version                                                                  DATE: 11-Jul-23          TIME: 11:09:39  
 **********************************************************************************************************************************

 SHA1:             0fe2fddcc441eb00bb4c7ecb49b93e22d4ddc339
 **********************************************************************************************************************************

 Memory per process:      1573 MW
 Total memory per node:   2097 MW
 Total GA space:           524 MW

 GA preallocation disabled
 GA check enabled

 Variable memory set to 1572.9 MW

 ZSYMEL=NOSYM


 Geometry recognized as XYZ

 SETTING BASIS          =    AUG-CC-PVTZ


 Recomputing integrals since basis changed


 Using spherical harmonics

 Library entry C      S aug-cc-pVTZ          selected for orbital group  1
 Library entry C      P aug-cc-pVTZ          selected for orbital group  1
 Library entry C      D aug-cc-pVTZ          selected for orbital group  1
 Library entry C      F aug-cc-pVTZ          selected for orbital group  1
 Library entry H      S aug-cc-pVTZ          selected for orbital group  2
 Library entry H      P aug-cc-pVTZ          selected for orbital group  2
 Library entry H      D aug-cc-pVTZ          selected for orbital group  2
 Library entry O      S aug-cc-pVTZ          selected for orbital group  4
 Library entry O      P aug-cc-pVTZ          selected for orbital group  4
 Library entry O      D aug-cc-pVTZ          selected for orbital group  4
 Library entry O      F aug-cc-pVTZ          selected for orbital group  4
 Library entry N      S aug-cc-pVTZ          selected for orbital group  5
 Library entry N      P aug-cc-pVTZ          selected for orbital group  5
 Library entry N      D aug-cc-pVTZ          selected for orbital group  5
 Library entry N      F aug-cc-pVTZ          selected for orbital group  5


 PROGRAM * SEWARD (Integral evaluation for generally contracted gaussian basis sets)     Author: Roland Lindh, 1990

 Geometry written to block  1 of record 700


 Point group  C1  



 ATOMIC COORDINATES

 NR  ATOM    CHARGE       X              Y              Z

   1  C       6.00    0.973988907   -0.894710496    3.319790341
   2  H       1.00    2.976386028   -0.752995068    2.883857910
   3  H       1.00    0.544280272   -2.797766351    3.965667744
   4  H       1.00    0.510395243    0.395700844    4.850274834
   5  C       6.00   -0.709058563   -0.294710031    1.090293556
   6  O       8.00   -3.019038735   -0.346852932    1.260489483
   7  N       7.00    0.541022928    0.293041710   -1.073232652
   8  H       1.00    2.444409832    0.294625142   -1.065334401
   9  C       6.00   -0.790673882    0.910033524   -3.374415013
  10  H       1.00   -2.798031673    0.771801677   -2.973981364
  11  H       1.00   -0.360158287    2.824078627   -3.997156843
  12  H       1.00   -0.313522070   -0.402246645   -4.886253596

 Bond lengths in Bohr (Angstrom)

 1-2  2.054194387  1-3  2.055098225  1-4  2.054863328  1-5  2.857149849  5-6  2.316828421
     ( 1.087032856)     ( 1.087511147)     ( 1.087386845)     ( 1.511938588)     ( 1.226012802)

  5- 7  2.566905043   7- 8  1.903403950   7- 9  2.729383731   9-10  2.051570240   9-11  2.058329352
       ( 1.358347651)       ( 1.007237993)       ( 1.444327670)       ( 1.085644218)       ( 1.089220986)

  9-12  2.058010932
       ( 1.089052485)

 Bond angles

  1-5-6  121.68673501   1-5-7  114.76561876   2-1-3  109.53613120   2-1-4  109.55165806

  2-1-5  113.21157163   3-1-4  107.47361178   3-1-5  108.45340172   4-1-5  108.44650049

  5- 7- 8  118.92656063   5- 7- 9  121.65278092   6- 5- 7  123.54762817   7- 9-10  107.31367468

  7- 9-11  111.29936160   7- 9-12  111.22895924   8- 7- 9  119.42062152  10- 9-11  109.04787910

 10- 9-12  109.10347795  11- 9-12  108.79598226

 NUCLEAR CHARGE:                   40
 NUMBER OF PRIMITIVE AOS:         524
 NUMBER OF SYMMETRY AOS:          465
 NUMBER OF CONTRACTIONS:          391   (  391A   )
 NUMBER OF INNER CORE ORBITALS:     0   (    0A   )
 NUMBER OF OUTER CORE ORBITALS:     5   (    5A   )
 NUMBER OF VALENCE ORBITALS:       27   (   27A   )


 NUCLEAR REPULSION ENERGY  180.57089710


 Eigenvalues of metric

         1 0.112E-04 0.137E-04 0.227E-04 0.301E-04 0.372E-04 0.465E-04 0.514E-04 0.558E-04


 Contracted 2-electron integrals neglected if value below      1.0D-12
 AO integral compression algorithm  1   Integral accuracy      1.0D-12

     12963.807 MB (compressed) written to integral file ( 50.7%)


 NUMBER OF SORTED TWO-ELECTRON INTEGRALS: 2936576566.     BUFFER LENGTH:  32768
 NUMBER OF SEGMENTS:  92  SEGMENT LENGTH:   31999951      RECORD LENGTH: 262144

 Memory used in sort:      32.29 MW

 SORT1 READ  3197085098. AND WROTE  2777190169. INTEGRALS IN  15939 RECORDS. CPU TIME:    21.58 SEC, REAL TIME:  1000.75 SEC
 SORT2 READ  2777190169. AND WROTE  2936576566. INTEGRALS IN  49453 RECORDS. CPU TIME:    12.71 SEC, REAL TIME:    33.18 SEC

 FILE SIZES:   FILE 1: 12999.6 MBYTE,  FILE 4: 33426.6 MBYTE,   TOTAL:  46426.2 MBYTE

 OPERATOR DM      FOR CENTER  0  COORDINATES:    0.000000    0.000000    0.000000


 **********************************************************************************************************************************
 DATASETS  * FILE   NREC   LENGTH (MB)   RECORD NAMES
              1      19    11561.16       500      610      700      900      950      970     1000      129      960     1100   
                                          VAR    BASINP    GEOM    SYMINP    ZMAT    AOBASIS   BASIS     P2S    ABASIS      S 
                                         1400     1410     1200     1210     1080     1600     1650     1300     1700   
                                           T        V       H0       H01     AOSYM     SMH    MOLCAS    ERIS     OPER   

 PROGRAMS   *        TOTAL       INT
 CPU TIMES  *        86.52     86.43
 REAL TIME  *      2043.90 SEC
 DISK USED  *        43.24 GB
 **********************************************************************************************************************************


 Program * Restricted Hartree-Fock

 Orbital guess generated from atomic densities. Full valence occupancy:   32

 Initial occupancy:  20

 NELEC=   40   SYM=1   MS2= 0   THRE=1.0D-08   THRD=3.2D-06   THRG=3.2D-06  HFMA2=F  DIIS_START=2   DIIS_MAX=10   DIIS_INCORE=F

 Level shifts:    0.00 (CLOSED)    0.00 (OPEN)    0.30 (GAP_MIN)

 ITER           ETOT              DE          GRAD        DDIFF     DIIS  NEXP   TIME(IT)  TIME(TOT)  DIAG
   1     -246.98828241    -246.98828241     0.00D+00     0.32D-01     0     0      10.10     19.52    start
   2     -247.05639824      -0.06811582     0.38D-02     0.45D-02     1     0      10.00     29.52    diag
   3     -247.09982492      -0.04342668     0.29D-02     0.18D-02     2     0      10.21     39.73    diag
   4     -247.10224180      -0.00241688     0.44D-03     0.53D-03     3     0      10.45     50.18    diag
   5     -247.10249106      -0.00024926     0.13D-03     0.17D-03     4     0      10.22     60.40    diag
   6     -247.10252606      -0.00003499     0.41D-04     0.65D-04     5     0      10.08     70.48    diag
   7     -247.10253186      -0.00000581     0.19D-04     0.24D-04     6     0      10.31     80.79    diag
   8     -247.10253291      -0.00000105     0.74D-05     0.11D-04     7     0      10.37     91.16    fixocc
   9     -247.10253307      -0.00000016     0.27D-05     0.48D-05     8     0      10.23    101.39    diag
  10     -247.10253308      -0.00000001     0.68D-06     0.13D-05     9     0      10.39    111.78    diag/orth
  11     -247.10253308      -0.00000000     0.18D-06     0.32D-06     9     0      10.25    122.03    diag
  12     -247.10253308      -0.00000000     0.59D-07     0.74D-07     0     0      10.02    132.05    diag

 Final occupancy:  20

 !RHF STATE 1.1 Energy               -247.102533084010
  RHF One-electron energy            -693.667234448189
  RHF Two-electron energy             265.993804265916
  RHF Kinetic energy                  246.748335003971
  RHF Nuclear energy                  180.570897098264
  RHF Virial quotient                  -1.001435462898

 !RHF STATE 1.1 Dipole moment           1.57806924     0.11566612    -0.41934988
 Dipole moment /Debye                   4.01105191     0.29399395    -1.06588109

 Orbital energies:

           1.1          2.1          3.1          4.1          5.1          6.1          7.1          8.1          9.1         10.1
    -20.510383   -15.588141   -11.347448   -11.255738   -11.234533    -1.372629    -1.231698    -1.018499    -0.931888    -0.790860

          11.1         12.1         13.1         14.1         15.1         16.1         17.1         18.1         19.1         20.1
     -0.690219    -0.652733    -0.633364    -0.586813    -0.579868    -0.555020    -0.544358    -0.503753    -0.419893    -0.391989

          21.1         22.1
      0.022687     0.035139


 HOMO     20.1    -0.391989 =     -10.6666eV
 LUMO     21.1     0.022687 =       0.6173eV
 LUMO-HOMO         0.414676 =      11.2839eV

 Orbitals saved in record  2100.2


 **********************************************************************************************************************************
 DATASETS  * FILE   NREC   LENGTH (MB)   RECORD NAMES
              1      19    11561.16       500      610      700      900      950      970     1000      129      960     1100   
                                          VAR    BASINP    GEOM    SYMINP    ZMAT    AOBASIS   BASIS     P2S    ABASIS      S 
                                         1400     1410     1200     1210     1080     1600     1650     1300     1700   
                                           T        V       H0       H01     AOSYM     SMH    MOLCAS    ERIS     OPER   

              2       4        2.96       700     1000      520     2100   
                                         GEOM     BASIS   MCVARS     RHF  

 PROGRAMS   *        TOTAL    HF-SCF       INT
 CPU TIMES  *       218.57    132.05     86.43
 REAL TIME  *      4061.09 SEC
 DISK USED  *        43.24 GB
 **********************************************************************************************************************************


 Program * Restricted Hartree-Fock

 Molecular orbitals read from record     2100.2  Type=RHF/CANONICAL  

 Initial occupancy:  20

 NELEC=   40   SYM=1   MS2= 0   THRE=1.0D-08   THRD=3.2D-06   THRG=3.2D-06  HFMA2=F  DIIS_START=2   DIIS_MAX=10   DIIS_INCORE=F

 Level shifts:    0.00 (CLOSED)    0.00 (OPEN)    0.30 (GAP_MIN)

 ITER           ETOT              DE          GRAD        DDIFF     DIIS  NEXP   TIME(IT)  TIME(TOT)  DIAG
   1     -247.10253308    -247.10253308     0.00D+00     0.33D-01     0     0       9.79      9.79    start
   2     -247.10253308      -0.00000000     0.26D-07     0.32D-07     1     0      10.03     19.82    diag

 Final occupancy:  20

 !RHF STATE 1.1 Energy               -247.102533084020
  RHF One-electron energy            -693.667218879573
  RHF Two-electron energy             265.993788697289
  RHF Kinetic energy                  246.748323384559
  RHF Nuclear energy                  180.570897098264
  RHF Virial quotient                  -1.001435510056

 !RHF STATE 1.1 Dipole moment           1.57806505     0.11566695    -0.41935292
 Dipole moment /Debye                   4.01104127     0.29399605    -1.06588880

 Orbital energies:

           1.1          2.1          3.1          4.1          5.1          6.1          7.1          8.1          9.1         10.1
    -20.510381   -15.588140   -11.347448   -11.255734   -11.234533    -1.372628    -1.231697    -1.018499    -0.931887    -0.790860

          11.1         12.1         13.1         14.1         15.1         16.1         17.1         18.1         19.1         20.1
     -0.690219    -0.652732    -0.633363    -0.586812    -0.579868    -0.555020    -0.544357    -0.503753    -0.419893    -0.391988

          21.1         22.1
      0.022687     0.035139


 HOMO     20.1    -0.391988 =     -10.6665eV
 LUMO     21.1     0.022687 =       0.6173eV
 LUMO-HOMO         0.414675 =      11.2839eV

 Orbitals saved in record  2101.2


 **********************************************************************************************************************************
 DATASETS  * FILE   NREC   LENGTH (MB)   RECORD NAMES
              1      19    11561.16       500      610      700      900      950      970     1000      129      960     1100   
                                          VAR    BASINP    GEOM    SYMINP    ZMAT    AOBASIS   BASIS     P2S    ABASIS      S 
                                         1400     1410     1200     1210     1080     1600     1650     1300     1700   
                                           T        V       H0       H01     AOSYM     SMH    MOLCAS    ERIS     OPER   

              2       5        7.15       700     1000      520     2100     2101   
                                         GEOM     BASIS   MCVARS     RHF      RHF  

 PROGRAMS   *        TOTAL    HF-SCF    HF-SCF       INT
 CPU TIMES  *       238.40     19.83    132.05     86.43
 REAL TIME  *      5011.58 SEC
 DISK USED  *        43.24 GB
 **********************************************************************************************************************************


 PROGRAM * PAPT (Closed-shell)     Authors: C. Hampel, H.-J. Werner, 1991, P.J. Knowles, 2021


 Convergence thresholds:  THRVAR = 1.00D-08  THRDEN = 1.00D-06

 Number of core orbitals:           5 (   5 )
 Number of closed-shell orbitals:  15 (  15 )
 Number of external orbitals:     371 ( 371 )

 Molecular orbitals read from record     2101.2  Type=RHF/CANONICAL  

 Number of N-1 electron functions:              15
 Number of N-2 electron functions:             120
 Number of singly external CSFs:              5565
 Number of doubly external CSFs:          15487395
 Total number of CSFs:                    15492961

 Length of J-op  integral file:               0.00 MB
 Length of K-op  integral file:              10.56 MB

 Integral transformation finished. Total CPU:  22.59 sec, npass=  1  Memory used:  33.45 MW

 Reference energy:                   -247.10253308

                        CORR.ENERGY   TOTAL ENERGY   ENERGY CHANGE
 MP2:                   -0.96789163  -248.07042471    -0.96789163

 SCS-MP2 correlation energy:           -0.95994454   (PS=  1.200000  PT=  0.333333)
 SCS-MP2 total energy:               -248.06247763
 Iteration:   1     0.2086D+00
 Iteration:   2     0.2946D+00
 Iteration:   3     0.5736D-01
 Iteration:   4     0.5008D-01
 Iteration:   5     0.5525D-01
 Iteration:   6     0.2016D-01
 Iteration:   7     0.2438D+00
 Iteration:   8     0.7707D-02
 Iteration:   9     0.7731D-02
 Iteration:  10     0.5063D-02
 Iteration:  11     0.2182D-02
 Iteration:  12     0.1037D+00
 Iteration:  13     0.1059D-02
 Iteration:  14     0.1429D-02
 Iteration:  15     0.8975D-03
 Iteration:  16     0.4702D-03
 Iteration:  17     0.8935D-02
 Iteration:  18     0.1538D-03
 Iteration:  19     0.1863D-03
 Iteration:  20     0.1025D-03
 Iteration:  21     0.6649D-04
 PAPT operator written to  7000.1
 PAPT orbitals and eigenvalues written to  7000.2

 MP3(D):                -0.99121755  -248.09375064    -0.02332593



 RESULTS
 =======

  Reference energy                   -247.102533084021
  MP3 singlet pair energy              -0.668380459286
  MP3 triplet pair energy              -0.322837095411
  MP3 correlation energy               -0.991217554697

 !MP3 total energy                   -248.093750638718

 Timing summary (sec):

 STEP                 CPU(USER)    SYS     CPU(TOT)    WALL
 Transformation         23.24      2.22     25.46     24.71
 CCSD iterations       335.51      3.02    338.53     89.33

 Program statistics:

 Available memory in ccsd:              1572863080
 Min. memory needed in ccsd:              37813385
 Max. memory used in ccsd:                52042655
 Max. memory used in cckext:              38041120 ( 1 integral passes)



 **********************************************************************************************************************************
 DATASETS  * FILE   NREC   LENGTH (MB)   RECORD NAMES
              1      21    11774.21       500      610      700      900      950      970     1000      129      960     1100   
                                          VAR    BASINP    GEOM    SYMINP    ZMAT    AOBASIS   BASIS     P2S    ABASIS      S 
                                         1400     1410     1200     1210     1080     1600     1650     1300     1700     1380   
                                           T        V       H0       H01     AOSYM     SMH    MOLCAS    ERIS     OPER     JKOP   
                                         7000   
                                        PAPT AO    

              2       6       10.76       700     1000      520     2100     2101     7000   
                                         GEOM     BASIS   MCVARS     RHF      RHF     PAPT   

 PROGRAMS   *        TOTAL      PAPT    HF-SCF    HF-SCF       INT
 CPU TIMES  *       358.68    120.28     19.83    132.05     86.43
 REAL TIME  *      5125.68 SEC
 DISK USED  *        43.24 GB
 **********************************************************************************************************************************


 PROGRAM * MP4 (Closed-shell)     Authors: C. Hampel, H.-J. Werner, 1991, M. Deegan, P.J. Knowles, 1992


 Convergence thresholds:  THRVAR = 1.00D-08  THRDEN = 1.00D-06

 MP4(T)     terms to be evaluated (factor= 0.000)


 Number of core orbitals:           5 (   5 )
 Number of closed-shell orbitals:  15 (  15 )
 Number of external orbitals:     371 ( 371 )

 Molecular orbitals read from record     7000.2  Type=PAPT/CANONICAL (state 1.1)

 Number of N-1 electron functions:              15
 Number of N-2 electron functions:             120
 Number of singly external CSFs:              5565
 Number of doubly external CSFs:          15487395
 Total number of CSFs:                    15492961

 Length of J-op  integral file:               0.00 MB
 Length of K-op  integral file:              10.56 MB

 Memory could be reduced to 932.31 Mwords without degradation in triples

 Integral transformation finished. Total CPU:  53.61 sec, npass=  1  Memory used: 512.89 MW
 Orbital energies read from record       7000.2  Type=PAPT/CANONICAL (state 1.1)

 Reference energy:                   -247.10253308

                        CORR.ENERGY   TOTAL ENERGY   ENERGY CHANGE
 MP2:                   -1.00098916  -248.10352225    -1.00098916

 SCS-MP2 correlation energy:           -0.99763224   (PS=  1.200000  PT=  0.333333)
 SCS-MP2 total energy:               -248.10016533

 MP3(D):                -1.00135213  -248.10388521    -0.00036296
 MP4(DQ):               -0.98864013  -248.09117321     0.01271200
 MP4(SDQ):              -0.99721038  -248.09974346    -0.00857025

 Norm of t1 vector:      0.08013559      S-energy:    -0.00857025      T1 diagnostic:  0.01034546

 Largest off-diagonal element in interal  block of Fock matrix:  0.12D+00
 Largest off-diagonal element in external block of Fock matrix:  0.41D+00

   CPU time for triples:   2196.85 sec for i =  1 - 14 / 15 (~  82.1 % done)
   CPU time for triples:    795.58 sec for i = 15 - 15 / 15 (  100.0 % done)

 Total CPU time for triples:   2992.43 sec


 RESULTS
 =======

  Reference energy                   -247.102533084021
  MP4(SDQ) singlet pair energy         -0.667281073226
  MP4(SDQ) triplet pair energy         -0.321359055023
  MP4(SDQ) correlation energy          -0.997210380889

  Triples contribution                 -0.047516693048
  Total correlation energy             -1.044727073936

  MP4(SDQ) total energy              -248.099743464909
 !MP4(SDTQ) total energy             -248.147260157957

 Timing summary (sec):

 STEP                 CPU(USER)    SYS     CPU(TOT)    WALL
 Transformation         64.33      9.03     73.36    192.97
 CCSD iterations       434.05      3.19    437.24    131.00
 Triples              2992.43    118.65   3111.08   7196.90

 Program statistics:

 Available memory in ccsd:              1572863080
 Min. memory needed in ccsd:              37813385
 Max. memory used in ccsd:                52042655
 Max. memory used in cckext:              38041120 ( 1 integral passes)



 **********************************************************************************************************************************
 DATASETS  * FILE   NREC   LENGTH (MB)   RECORD NAMES
              1      22    14704.04       500      610      700      900      950      970     1000      129      960     1100   
                                          VAR    BASINP    GEOM    SYMINP    ZMAT    AOBASIS   BASIS     P2S    ABASIS      S 
                                         1400     1410     1200     1210     1080     1600     1650     1300     1700     1380   
                                           T        V       H0       H01     AOSYM     SMH    MOLCAS    ERIS     OPER     JKOP   
                                         7000     1380(1)
                                        PAPT AO   JKOP   

              2       6       10.76       700     1000      520     2100     2101     7000   
                                         GEOM     BASIS   MCVARS     RHF      RHF     PAPT   

 PROGRAMS   *        TOTAL       MP4      PAPT    HF-SCF    HF-SCF       INT
 CPU TIMES  *      3490.77   3132.09    120.28     19.83    132.05     86.43
 REAL TIME  *     12646.90 SEC
 DISK USED  *        43.24 GB
 **********************************************************************************************************************************

 Counterpoise: absolute minimum monomer separation=    -1.000 Bragg radius scale factor=     1.400 Number of monomers= 1
 Counterpoise skipped because only a single monomer


 **********************************************************************************************************************************
 DATASETS  * FILE   NREC   LENGTH (MB)   RECORD NAMES
              1      22    14704.04       500      610      700      900      950      970     1000      129      960     1100   
                                          VAR    BASINP    GEOM    SYMINP    ZMAT    AOBASIS   BASIS     P2S    ABASIS      S 
                                         1400     1410     1200     1210     1080     1600     1650     1300     1700     1380   
                                           T        V       H0       H01     AOSYM     SMH    MOLCAS    ERIS     OPER     JKOP   
                                         7000     1380(1)
                                        PAPT AO   JKOP   

              2       6       10.76       700     1000      520     2100     2101     7000   
                                         GEOM     BASIS   MCVARS     RHF      RHF     PAPT   

 PROGRAMS   *        TOTALCOUNTERPOI       MP4      PAPT    HF-SCF    HF-SCF       INT
 CPU TIMES  *      3490.77      0.00   3132.09    120.28     19.83    132.05     86.43
 REAL TIME  *     12646.92 SEC
 DISK USED  *        43.24 GB
 **********************************************************************************************************************************

 Dump information in style XML to xml output                                                                      

 Orbitals will not be exported.

 **********************************************************************************************************************************

 MP4/aug-cc-pVTZ energy=   -248.147260157957

             MP4            PAPT          HF-SCF          HF-SCF
   -248.14726016   -248.09375064   -247.10253308   -247.10253308
 **********************************************************************************************************************************
 Molpro calculation terminated
