
 Working directory              : /var/folders/2v/xbgp75_9785319ghcgb4zr4r0000gp/T//molpro.HClBWvZg8a/
 Global scratch directory       : /var/folders/2v/xbgp75_9785319ghcgb4zr4r0000gp/T//molpro.HClBWvZg8a/
 Wavefunction directory         : /Users/sacpjk/wfu/
 Main file repository           : /var/folders/2v/xbgp75_9785319ghcgb4zr4r0000gp/T//molpro.HClBWvZg8a/

 id        : peterk

 Nodes                        nprocs
 Cardiff-University-G34YLXT77Y    1
 GA implementation: MPI file
 GA implementation (serial work in mppx): MPI file

 Using customized tuning parameters: mindgm=1; mindgv=20; mindgc=4; mindgr=1; noblas=0; minvec=7
 default implementation of scratch files=df  


 Variables initialized (1032), CPU time= 0.00 sec
 
 symmetry,nosym
 
 
 geometry={
            6
     F          0.00000000      0.00000000     -1.79137135
     C          0.00000000      0.00000000     -0.36561703
     H         -0.51179113      0.88644824     -0.01758668
     H         -0.51179113     -0.88644824     -0.01758668
     H          1.02358226      0.00000000     -0.01758668
     F          0.00000000      0.00000000      2.20974841
 }
 basis=cc-pVTZ
 
 charge=-1
 
 hf; mp4
 
 
 
 {put,xml;noorbitals,nobasis}
 Commands initialized (841), CPU time= 0.00 sec, 704 directives.
 Default parameters read. Elapsed time= 0.15 sec

 Checking input...
 Passed
1


                                         ***  PROGRAM SYSTEM MOLPRO  ***
                                       Copyright, TTI GmbH Stuttgart, 2015
                                    Version 2023.1 linked Tue Jun  6 09:54:11 2023


 **********************************************************************************************************************************
 LABEL *                                                                                                                                                                 
  64 bit serial version                                                                  DATE: 09-Jun-23          TIME: 15:34:02  
 **********************************************************************************************************************************

 SHA1:             8ebb0dd001088a5c915591db1a321413035db0b1
 **********************************************************************************************************************************

 Memory per process:       805 MW
 Total memory per node:   1074 MW
 Total GA space:           268 MW

 GA preallocation disabled
 GA check enabled

 Variable memory set to 805.3 MW

 ZSYMEL=NOSYM


 Geometry recognized as XYZ

 SETTING BASIS          =    CC-PVTZ
 SETTING CHARGE         =        -1.00000000                                  


 Recomputing integrals since basis changed


 Using spherical harmonics

 Library entry F      S cc-pVTZ              selected for orbital group  1
 Library entry F      P cc-pVTZ              selected for orbital group  1
 Library entry F      D cc-pVTZ              selected for orbital group  1
 Library entry F      F cc-pVTZ              selected for orbital group  1
 Library entry C      S cc-pVTZ              selected for orbital group  2
 Library entry C      P cc-pVTZ              selected for orbital group  2
 Library entry C      D cc-pVTZ              selected for orbital group  2
 Library entry C      F cc-pVTZ              selected for orbital group  2
 Library entry H      S cc-pVTZ              selected for orbital group  3
 Library entry H      P cc-pVTZ              selected for orbital group  3
 Library entry H      D cc-pVTZ              selected for orbital group  3


 PROGRAM * SEWARD (Integral evaluation for generally contracted gaussian basis sets)     Author: Roland Lindh, 1990

 Geometry written to block  1 of record 700


 Point group  C1  



 ATOMIC COORDINATES

 NR  ATOM    CHARGE       X              Y              Z

   1  F       9.00    0.000000000    0.000000000   -3.385201239
   2  C       6.00    0.000000000    0.000000000   -0.690916053
   3  H       1.00   -0.967145069    1.675144397   -0.033234009
   4  H       1.00   -0.967145069   -1.675144397   -0.033234009
   5  H       1.00    1.934290137    0.000000000   -0.033234009
   6  F       9.00    0.000000000    0.000000000    4.175819299

 Bond lengths in Bohr (Angstrom)

 1-2  2.694285186  2-3  2.043042831  2-4  2.043042831  2-5  2.043042831
     ( 1.425754320)     ( 1.081131707)     ( 1.081131707)     ( 1.081131707)

 Bond angles

  1-2-3  108.77865447   1-2-4  108.77865447   1-2-5  108.77865447   3-2-4  110.15481872

  3-2-5  110.15481872   4-2-5  110.15481872

 NUCLEAR CHARGE:                   27
 NUMBER OF PRIMITIVE AOS:         192
 NUMBER OF SYMMETRY AOS:          174
 NUMBER OF CONTRACTIONS:          132   (  132A   )
 NUMBER OF INNER CORE ORBITALS:     0   (    0A   )
 NUMBER OF OUTER CORE ORBITALS:     3   (    3A   )
 NUMBER OF VALENCE ORBITALS:       15   (   15A   )


 NUCLEAR REPULSION ENERGY   64.36223019


 Eigenvalues of metric

         1 0.121E-02 0.187E-02 0.187E-02 0.316E-02 0.530E-02 0.104E-01 0.104E-01 0.120E-01


 Contracted 2-electron integrals neglected if value below      1.0D-11
 AO integral compression algorithm  1   Integral accuracy      1.0D-11

     111.149 MB (compressed) written to integral file ( 32.4%)


 NUMBER OF SORTED TWO-ELECTRON INTEGRALS:   38531031.     BUFFER LENGTH:  32768
 NUMBER OF SEGMENTS:   3  SEGMENT LENGTH:   15998004      RECORD LENGTH: 524288

 Memory used in sort:      16.56 MW

 SORT1 READ    42815559. AND WROTE    24956734. INTEGRALS IN     73 RECORDS. CPU TIME:     0.25 SEC, REAL TIME:     0.34 SEC
 SORT2 READ    24956734. AND WROTE    38531031. INTEGRALS IN    424 RECORDS. CPU TIME:     0.28 SEC, REAL TIME:     0.36 SEC

 FILE SIZES:   FILE 1:   141.9 MBYTE,  FILE 4:   306.2 MBYTE,   TOTAL:    448.1 MBYTE

 OPERATOR DM      FOR CENTER  0  COORDINATES:    0.000000    0.000000    0.000000


 **********************************************************************************************************************************
 DATASETS  * FILE   NREC   LENGTH (MB)   RECORD NAMES
              1      19      120.69       500      610      700      900      950      970     1000      129      960     1100   
                                          VAR    BASINP    GEOM    SYMINP    ZMAT    AOBASIS   BASIS     P2S    ABASIS      S 
                                         1400     1410     1200     1210     1080     1600     1650     1300     1700   
                                           T        V       H0       H01     AOSYM     SMH    MOLCAS    ERIS     OPER   

 PROGRAMS   *        TOTAL       INT
 CPU TIMES  *         1.53      1.44
 REAL TIME  *         2.82 SEC
 DISK USED  *       427.80 MB
 **********************************************************************************************************************************


 Program * Restricted Hartree-Fock

 Orbital guess generated from atomic densities. Full valence occupancy:   18

 Initial occupancy:  14

 NELEC=   28   SYM=1   MS2= 0   THRE=1.0D-08   THRD=3.2D-06   THRG=3.2D-06  HFMA2=F  DIIS_START=2   DIIS_MAX=10   DIIS_INCORE=F

 Level shifts:    0.00 (CLOSED)    0.00 (OPEN)    0.30 (GAP_MIN)

 ITER           ETOT              DE          GRAD        DDIFF     DIIS  NEXP   TIME(IT)  TIME(TOT)  DIAG
   1     -238.44097730    -238.44097730     0.00D+00     0.78D-01     0     0       0.18      0.33    start
   2     -238.50692146      -0.06594416     0.93D-02     0.12D-01     1     0       0.17      0.50    diag
   3     -238.54607690      -0.03915544     0.69D-02     0.47D-02     2     0       0.17      0.67    diag
   4     -238.54652527      -0.00044837     0.41D-03     0.57D-03     3     0       0.18      0.85    diag
   5     -238.54655471      -0.00002944     0.10D-03     0.17D-03     4     0       0.17      1.02    diag
   6     -238.54655730      -0.00000259     0.41D-04     0.46D-04     5     0       0.18      1.20    diag
   7     -238.54655757      -0.00000027     0.12D-04     0.18D-04     6     0       0.17      1.37    diag
   8     -238.54655759      -0.00000002     0.26D-05     0.53D-05     7     0       0.17      1.54    fixocc
   9     -238.54655759      -0.00000000     0.89D-06     0.16D-05     8     0       0.17      1.71    diag
  10     -238.54655759      -0.00000000     0.22D-06     0.33D-06     0     0       0.17      1.88    diag/orth

 Final occupancy:  14

 !RHF STATE 1.1 Energy               -238.546557589668
  RHF One-electron energy            -467.917370840598
  RHF Two-electron energy             165.008583056878
  RHF Kinetic energy                  238.608252270551
  RHF Nuclear energy                   64.362230194053
  RHF Virial quotient                  -0.999741439450

 !RHF STATE 1.1 Dipole moment           0.00000000    -0.00000000    -2.63226025
 Dipole moment /Debye                   0.00000000    -0.00000000    -6.69053821

 Orbital energies:

           1.1          2.1          3.1          4.1          5.1          6.1          7.1          8.1          9.1         10.1
    -26.091887   -25.805926   -11.106600    -1.395934    -1.072018    -0.758799    -0.505331    -0.505331    -0.479646    -0.345848

          11.1         12.1         13.1         14.1         15.1         16.1
     -0.345848    -0.179321    -0.179321    -0.178299     0.322249     0.400007


 HOMO     14.1    -0.178299 =      -4.8518eV
 LUMO     15.1     0.322249 =       8.7689eV
 LUMO-HOMO         0.500548 =      13.6206eV

 Orbitals saved in record  2100.2


 **********************************************************************************************************************************
 DATASETS  * FILE   NREC   LENGTH (MB)   RECORD NAMES
              1      19      120.69       500      610      700      900      950      970     1000      129      960     1100   
                                          VAR    BASINP    GEOM    SYMINP    ZMAT    AOBASIS   BASIS     P2S    ABASIS      S 
                                         1400     1410     1200     1210     1080     1600     1650     1300     1700   
                                           T        V       H0       H01     AOSYM     SMH    MOLCAS    ERIS     OPER   

              2       4        0.75       700     1000      520     2100   
                                         GEOM     BASIS   MCVARS     RHF  

 PROGRAMS   *        TOTAL    HF-SCF       INT
 CPU TIMES  *         3.43      1.89      1.44
 REAL TIME  *         5.34 SEC
 DISK USED  *       427.80 MB
 **********************************************************************************************************************************


 PROGRAM * MP4 (Closed-shell)     Authors: C. Hampel, H.-J. Werner, 1991, M. Deegan, P.J. Knowles, 1992


 Convergence thresholds:  THRVAR = 1.00D-08  THRDEN = 1.00D-06

 MP4(T)     terms to be evaluated (factor= 0.000)


 Number of core orbitals:           3 (   3 )
 Number of closed-shell orbitals:  11 (  11 )
 Number of external orbitals:     118 ( 118 )

 Molecular orbitals read from record     2100.2  Type=RHF/CANONICAL  

 Number of N-1 electron functions:              11
 Number of N-2 electron functions:              66
 Number of singly external CSFs:              1298
 Number of doubly external CSFs:            843051
 Total number of CSFs:                      844350

 Length of J-op  integral file:               0.00 MB
 Length of K-op  integral file:               1.26 MB

 Memory could be reduced to 24.50 Mwords without degradation in triples

 Integral transformation finished. Total CPU:   0.72 sec, npass=  1  Memory used:  16.20 MW

 Reference energy:                   -238.54655759

                        CORR.ENERGY   TOTAL ENERGY   ENERGY CHANGE
 MP2:                   -0.70923172  -239.25578931    -0.70923172

 SCS-MP2 correlation energy:           -0.69961869   (PS=  1.200000  PT=  0.333333)
 SCS-MP2 total energy:               -239.24617628

 MP3(D):                -0.71639871  -239.26295630    -0.00716699
 MP4(DQ):               -0.71962046  -239.26617805    -0.00322176
 MP4(SDQ):              -0.72545080  -239.27200839    -0.00583034

 Norm of t1 vector:      0.06170039      S-energy:    -0.00583034      T1 diagnostic:  0.00930168


 Total CPU time for triples:     16.01 sec


 RESULTS
 =======

  Reference energy                   -238.546557589668
  MP4(SDQ) singlet pair energy         -0.476745045163
  MP4(SDQ) triplet pair energy         -0.242875419048
  MP4(SDQ) correlation energy          -0.725450803748

  Triples contribution                 -0.021636479081
  Total correlation energy             -0.747087282829

  MP4(SDQ) total energy              -239.272008393416
 !MP4(SDTQ) total energy             -239.293644872497

 Timing summary (sec):

 STEP                 CPU(USER)    SYS     CPU(TOT)    WALL
 Transformation          0.74      0.08      0.82      1.06
 CCSD iterations         5.07      0.07      5.14      1.84
 Triples                16.01      1.04     17.05     18.69

 Program statistics:

 Available memory in ccsd:               805305870
 Min. memory needed in ccsd:               2323550
 Max. memory used in ccsd:                 3052168
 Max. memory used in cckext:               2473006 ( 1 integral passes)



 **********************************************************************************************************************************
 DATASETS  * FILE   NREC   LENGTH (MB)   RECORD NAMES
              1      20      203.68       500      610      700      900      950      970     1000      129      960     1100   
                                          VAR    BASINP    GEOM    SYMINP    ZMAT    AOBASIS   BASIS     P2S    ABASIS      S 
                                         1400     1410     1200     1210     1080     1600     1650     1300     1700     1380   
                                           T        V       H0       H01     AOSYM     SMH    MOLCAS    ERIS     OPER     JKOP   

              2       4        0.75       700     1000      520     2100   
                                         GEOM     BASIS   MCVARS     RHF  

 PROGRAMS   *        TOTAL       MP4    HF-SCF       INT
 CPU TIMES  *        21.74     18.31      1.89      1.44
 REAL TIME  *        27.00 SEC
 DISK USED  *       427.80 MB
 **********************************************************************************************************************************

 Dump information in style XML to xml output                                                                      

 Orbitals will not be exported.

 **********************************************************************************************************************************

 MP4/cc-pVTZ energy=   -239.293644872497

             MP4          HF-SCF
   -239.29364487   -238.54655759
 **********************************************************************************************************************************
 Molpro calculation terminated
