
 Working directory              : /var/folders/2v/xbgp75_9785319ghcgb4zr4r0000gp/T//molpro.9wLx7ovasz/
 Global scratch directory       : /var/folders/2v/xbgp75_9785319ghcgb4zr4r0000gp/T//molpro.9wLx7ovasz/
 Wavefunction directory         : /Users/sacpjk/wfu/
 Main file repository           : /var/folders/2v/xbgp75_9785319ghcgb4zr4r0000gp/T//molpro.9wLx7ovasz/

 id        : peterk

 Nodes                        nprocs
 Cardiff-University-G34YLXT77Y    1
 GA implementation: MPI file
 GA implementation (serial work in mppx): MPI file

 Using customized tuning parameters: mindgm=1; mindgv=20; mindgc=4; mindgr=1; noblas=0; minvec=7
 default implementation of scratch files=df  


 Variables initialized (1032), CPU time= 0.00 sec
 
 symmetry,nosym
 
 
 geometry={
           10
     N         -0.01234627     -0.59896192      0.85529092
     N          1.40057789     -0.67279174      0.69167556
     H          1.79109995      0.27896721      0.69866684
     H          1.54441784     -1.03380871     -0.25061935
     H         -0.15705127     -0.36055947      1.84025932
     N         -0.53592587      0.61236963      0.14949390
     N         -0.56764650      0.25608390     -1.24106417
     H         -1.49741565      0.67903911      0.50796923
     H         -0.56243275      1.12334217     -1.77149744
     H         -1.40327738     -0.28368017     -1.48017482
 }
 basis=cc-pVTZ
 
 
 
 hf; hf; papt; mp3
 
 
 
 {put,xml;noorbitals,nobasis}
 Commands initialized (841), CPU time= 0.00 sec, 704 directives.
 Default parameters read. Elapsed time= 0.13 sec

 Checking input...
 Passed
1


                                         ***  PROGRAM SYSTEM MOLPRO  ***
                                       Copyright, TTI GmbH Stuttgart, 2015
                                    Version 2023.1 linked Tue Jun  6 09:54:11 2023


 **********************************************************************************************************************************
 LABEL *                                                                                                                                                                 
  64 bit serial version                                                                  DATE: 13-Jun-23          TIME: 07:02:56  
 **********************************************************************************************************************************

 SHA1:             8ebb0dd001088a5c915591db1a321413035db0b1
 **********************************************************************************************************************************

 Memory per process:       393 MW
 Total memory per node:    524 MW
 Total GA space:           131 MW

 GA preallocation disabled
 GA check enabled

 Variable memory set to 393.2 MW

 ZSYMEL=NOSYM


 Geometry recognized as XYZ

 SETTING BASIS          =    CC-PVTZ


 Recomputing integrals since basis changed


 Using spherical harmonics

 Library entry N      S cc-pVTZ              selected for orbital group  1
 Library entry N      P cc-pVTZ              selected for orbital group  1
 Library entry N      D cc-pVTZ              selected for orbital group  1
 Library entry N      F cc-pVTZ              selected for orbital group  1
 Library entry H      S cc-pVTZ              selected for orbital group  2
 Library entry H      P cc-pVTZ              selected for orbital group  2
 Library entry H      D cc-pVTZ              selected for orbital group  2


 PROGRAM * SEWARD (Integral evaluation for generally contracted gaussian basis sets)     Author: Roland Lindh, 1990

 Geometry written to block  1 of record 700


 Point group  C1  



 ATOMIC COORDINATES

 NR  ATOM    CHARGE       X              Y              Z

   1  N       7.00   -0.023331069   -1.131873988    1.616265596
   2  N       7.00    2.646708628   -1.271392128    1.307077375
   3  H       1.00    3.384688367    0.527171625    1.320288980
   4  H       1.00    2.918526740   -1.953615327   -0.473601933
   5  H       1.00   -0.296783888   -0.681358650    3.477586113
   6  N       7.00   -1.012753117    1.157210888    0.282502528
   7  N       7.00   -1.072696421    0.483928436   -2.345271384
   8  H       1.00   -2.829705473    1.283197946    0.959922724
   9  H       1.00   -1.062843861    2.122809046   -3.347644992
  10  H       1.00   -2.651809925   -0.536077828   -2.797125026

 Bond lengths in Bohr (Angstrom)

 1-2  2.691500446  1-5  1.934490781  1-6  2.828036329  2-3  1.944124536  2-4  1.926170392
     ( 1.424280699)     ( 1.023688436)     ( 1.496532377)     ( 1.028786400)     ( 1.019285476)

  6- 7  2.713318668   6- 8  1.943215563   7- 9  1.921140176   7-10  1.933438376
       ( 1.435826405)       ( 1.028305392)       ( 1.016623600)       ( 1.023131527)

 Bond angles

  1-2-3  109.13724386   1-2-4  105.34032100   1-6-7  105.28562075   1-6-8  102.42706416

  2-1-5  105.23817493   2-1-6  109.56354845   3-2-4  106.28301414   5-1-6  102.46387755

  6- 7- 9  107.06846047   6- 7-10  112.04217348   7- 6- 8  109.45389628   9- 7-10  109.40849251

 NUCLEAR CHARGE:                   34
 NUMBER OF PRIMITIVE AOS:         290
 NUMBER OF SYMMETRY AOS:          264
 NUMBER OF CONTRACTIONS:          204   (  204A   )
 NUMBER OF INNER CORE ORBITALS:     0   (    0A   )
 NUMBER OF OUTER CORE ORBITALS:     4   (    4A   )
 NUMBER OF VALENCE ORBITALS:       22   (   22A   )


 NUCLEAR REPULSION ENERGY  136.41879043


 Eigenvalues of metric

         1 0.782E-03 0.102E-02 0.144E-02 0.198E-02 0.236E-02 0.257E-02 0.311E-02 0.330E-02


 Contracted 2-electron integrals neglected if value below      1.0D-11
 AO integral compression algorithm  1   Integral accuracy      1.0D-11

     842.269 MB (compressed) written to integral file ( 44.0%)


 NUMBER OF SORTED TWO-ELECTRON INTEGRALS:  218624505.     BUFFER LENGTH:  32768
 NUMBER OF SEGMENTS:  14  SEGMENT LENGTH:   15999503      RECORD LENGTH: 524288

 Memory used in sort:      16.56 MW

 SORT1 READ   239352524. AND WROTE   200629366. INTEGRALS IN    581 RECORDS. CPU TIME:     1.94 SEC, REAL TIME:     2.72 SEC
 SORT2 READ   200629366. AND WROTE   218624505. INTEGRALS IN   3213 RECORDS. CPU TIME:     1.47 SEC, REAL TIME:     1.99 SEC

 FILE SIZES:   FILE 1:   874.0 MBYTE,  FILE 4:  2437.0 MBYTE,   TOTAL:   3310.9 MBYTE

 OPERATOR DM      FOR CENTER  0  COORDINATES:    0.000000    0.000000    0.000000


 **********************************************************************************************************************************
 DATASETS  * FILE   NREC   LENGTH (MB)   RECORD NAMES
              1      19      762.45       500      610      700      900      950      970     1000      129      960     1100   
                                          VAR    BASINP    GEOM    SYMINP    ZMAT    AOBASIS   BASIS     P2S    ABASIS      S 
                                         1400     1410     1200     1210     1080     1600     1650     1300     1700   
                                           T        V       H0       H01     AOSYM     SMH    MOLCAS    ERIS     OPER   

 PROGRAMS   *        TOTAL       INT
 CPU TIMES  *         9.35      9.25
 REAL TIME  *        13.60 SEC
 DISK USED  *         3.08 GB
 **********************************************************************************************************************************


 Program * Restricted Hartree-Fock

 Orbital guess generated from atomic densities. Full valence occupancy:   26

 Initial occupancy:  17

 NELEC=   34   SYM=1   MS2= 0   THRE=1.0D-08   THRD=3.2D-06   THRG=3.2D-06  HFMA2=F  DIIS_START=2   DIIS_MAX=10   DIIS_INCORE=F

 Level shifts:    0.00 (CLOSED)    0.00 (OPEN)    0.30 (GAP_MIN)

 ITER           ETOT              DE          GRAD        DDIFF     DIIS  NEXP   TIME(IT)  TIME(TOT)  DIAG
   1     -221.19813360    -221.19813360     0.00D+00     0.53D-01     0     0       1.02      1.95    start
   2     -221.24553575      -0.04740215     0.40D-02     0.49D-02     1     0       0.99      2.94    diag
   3     -221.25033330      -0.00479756     0.13D-02     0.14D-02     2     0       1.00      3.94    diag
   4     -221.25131308      -0.00097978     0.54D-03     0.56D-03     3     0       1.01      4.95    diag
   5     -221.25139389      -0.00008080     0.12D-03     0.16D-03     4     0       1.05      6.00    diag
   6     -221.25140114      -0.00000726     0.29D-04     0.56D-04     5     0       0.94      6.94    diag
   7     -221.25140211      -0.00000097     0.12D-04     0.19D-04     6     0       0.97      7.91    diag
   8     -221.25140225      -0.00000014     0.41D-05     0.87D-05     7     0       0.98      8.89    fixocc
   9     -221.25140226      -0.00000001     0.10D-05     0.18D-05     8     0       0.99      9.88    diag
  10     -221.25140226      -0.00000000     0.37D-06     0.58D-06     0     0       1.02     10.90    diag/orth

 Final occupancy:  17

 !RHF STATE 1.1 Energy               -221.251402257517
  RHF One-electron energy            -571.787619089685
  RHF Two-electron energy             214.117426405175
  RHF Kinetic energy                  220.744604503378
  RHF Nuclear energy                  136.418790426994
  RHF Virial quotient                  -1.002295855680

 !RHF STATE 1.1 Dipole moment          -0.76512844     0.66261502    -0.29035490
 Dipole moment /Debye                  -1.94476252     1.68419939    -0.73800855

 Orbital energies:

           1.1          2.1          3.1          4.1          5.1          6.1          7.1          8.1          9.1         10.1
    -15.609423   -15.602073   -15.574607   -15.559562    -1.323242    -1.210921    -1.051438    -0.915353    -0.706785    -0.688760

          11.1         12.1         13.1         14.1         15.1         16.1         17.1         18.1         19.1
     -0.652933    -0.611373    -0.576810    -0.493802    -0.427798    -0.403402    -0.367984     0.137525     0.163122


 HOMO     17.1    -0.367984 =     -10.0134eV
 LUMO     18.1     0.137525 =       3.7422eV
 LUMO-HOMO         0.505509 =      13.7556eV

 Orbitals saved in record  2100.2


 **********************************************************************************************************************************
 DATASETS  * FILE   NREC   LENGTH (MB)   RECORD NAMES
              1      19      762.45       500      610      700      900      950      970     1000      129      960     1100   
                                          VAR    BASINP    GEOM    SYMINP    ZMAT    AOBASIS   BASIS     P2S    ABASIS      S 
                                         1400     1410     1200     1210     1080     1600     1650     1300     1700   
                                           T        V       H0       H01     AOSYM     SMH    MOLCAS    ERIS     OPER   

              2       4        1.19       700     1000      520     2100   
                                         GEOM     BASIS   MCVARS     RHF  

 PROGRAMS   *        TOTAL    HF-SCF       INT
 CPU TIMES  *        20.25     10.90      9.25
 REAL TIME  *        27.43 SEC
 DISK USED  *         3.08 GB
 **********************************************************************************************************************************


 Program * Restricted Hartree-Fock

 Molecular orbitals read from record     2100.2  Type=RHF/CANONICAL  

 Initial occupancy:  17

 NELEC=   34   SYM=1   MS2= 0   THRE=1.0D-08   THRD=3.2D-06   THRG=3.2D-06  HFMA2=F  DIIS_START=2   DIIS_MAX=10   DIIS_INCORE=F

 Level shifts:    0.00 (CLOSED)    0.00 (OPEN)    0.30 (GAP_MIN)

 ITER           ETOT              DE          GRAD        DDIFF     DIIS  NEXP   TIME(IT)  TIME(TOT)  DIAG
   1     -221.25140226    -221.25140226     0.00D+00     0.55D-01     0     0       1.03      1.03    start
   2     -221.25140226      -0.00000000     0.19D-06     0.28D-06     1     0       1.00      2.03    diag

 Final occupancy:  17

 !RHF STATE 1.1 Energy               -221.251402257701
  RHF One-electron energy            -571.787756455864
  RHF Two-electron energy             214.117563771168
  RHF Kinetic energy                  220.744679877927
  RHF Nuclear energy                  136.418790426994
  RHF Virial quotient                  -1.002295513441

 !RHF STATE 1.1 Dipole moment          -0.76512415     0.66262693    -0.29034915
 Dipole moment /Debye                  -1.94475161     1.68422966    -0.73799392

 Orbital energies:

           1.1          2.1          3.1          4.1          5.1          6.1          7.1          8.1          9.1         10.1
    -15.609430   -15.602099   -15.574616   -15.559570    -1.323249    -1.210926    -1.051443    -0.915357    -0.706790    -0.688763

          11.1         12.1         13.1         14.1         15.1         16.1         17.1         18.1         19.1
     -0.652938    -0.611378    -0.576817    -0.493808    -0.427801    -0.403406    -0.367990     0.137525     0.163121


 HOMO     17.1    -0.367990 =     -10.0135eV
 LUMO     18.1     0.137525 =       3.7422eV
 LUMO-HOMO         0.505515 =      13.7558eV

 Orbitals saved in record  2101.2


 **********************************************************************************************************************************
 DATASETS  * FILE   NREC   LENGTH (MB)   RECORD NAMES
              1      19      762.45       500      610      700      900      950      970     1000      129      960     1100   
                                          VAR    BASINP    GEOM    SYMINP    ZMAT    AOBASIS   BASIS     P2S    ABASIS      S 
                                         1400     1410     1200     1210     1080     1600     1650     1300     1700   
                                           T        V       H0       H01     AOSYM     SMH    MOLCAS    ERIS     OPER   

              2       5        2.41       700     1000      520     2100     2101   
                                         GEOM     BASIS   MCVARS     RHF      RHF  

 PROGRAMS   *        TOTAL    HF-SCF    HF-SCF       INT
 CPU TIMES  *        22.29      2.04     10.90      9.25
 REAL TIME  *        30.31 SEC
 DISK USED  *         3.08 GB
 **********************************************************************************************************************************


 PROGRAM * PAPT (Closed-shell)     Authors: C. Hampel, H.-J. Werner, 1991, P.J. Knowles, 2021


 Convergence thresholds:  THRVAR = 1.00D-08  THRDEN = 1.00D-06

 Number of core orbitals:           4 (   4 )
 Number of closed-shell orbitals:  13 (  13 )
 Number of external orbitals:     187 ( 187 )

 Molecular orbitals read from record     2101.2  Type=RHF/CANONICAL  

 Number of N-1 electron functions:              13
 Number of N-2 electron functions:              91
 Number of singly external CSFs:              2431
 Number of doubly external CSFs:           2956096
 Total number of CSFs:                     2958528

 Length of J-op  integral file:               0.00 MB
 Length of K-op  integral file:               2.92 MB

 Integral transformation finished. Total CPU:   1.91 sec, npass=  1  Memory used:   7.17 MW

 Reference energy:                   -221.25140226

                        CORR.ENERGY   TOTAL ENERGY   ENERGY CHANGE
 MP2:                   -0.86283143  -222.11423369    -0.86283143

 SCS-MP2 correlation energy:           -0.85397336   (PS=  1.200000  PT=  0.333333)
 SCS-MP2 total energy:               -222.10537561
 Iteration:   1     0.1973D+00
 Iteration:   2     0.3026D+00
 Iteration:   3     0.4013D-01
 Iteration:   4     0.4919D-01
 Iteration:   5     0.1990D-01
 Iteration:   6     0.1490D-01
 Iteration:   7     0.9578D-02
 Iteration:   8     0.4305D-02
 Iteration:   9     0.1768D-01
 Iteration:  10     0.2027D-02
 Iteration:  11     0.1891D-02
 Iteration:  12     0.1406D-02
 Iteration:  13     0.3085D-03
 Iteration:  14     0.4909D-03
 Iteration:  15     0.1872D-03
 Iteration:  16     0.7878D-04
 PAPT operator written to  7000.1
 PAPT orbitals and eigenvalues written to  7000.2

 MP3(D):                -0.88462299  -222.13602525    -0.02179156



 RESULTS
 =======

  Reference energy                   -221.251402257703
  MP3 singlet pair energy              -0.595344745674
  MP3 triplet pair energy              -0.289278244903
  MP3 correlation energy               -0.884622990576

 !MP3 total energy                   -222.136025248279

 Timing summary (sec):

 STEP                 CPU(USER)    SYS     CPU(TOT)    WALL
 Transformation          2.01      0.25      2.26      2.49
 CCSD iterations        34.68      0.53     35.21     16.66

 Program statistics:

 Available memory in ccsd:               393215307
 Min. memory needed in ccsd:               7623489
 Max. memory used in ccsd:                10267091
 Max. memory used in cckext:               7974630 ( 1 integral passes)



 **********************************************************************************************************************************
 DATASETS  * FILE   NREC   LENGTH (MB)   RECORD NAMES
              1      21      806.66       500      610      700      900      950      970     1000      129      960     1100   
                                          VAR    BASINP    GEOM    SYMINP    ZMAT    AOBASIS   BASIS     P2S    ABASIS      S 
                                         1400     1410     1200     1210     1080     1600     1650     1300     1700     1380   
                                           T        V       H0       H01     AOSYM     SMH    MOLCAS    ERIS     OPER     JKOP   
                                         7000   
                                        PAPT AO    

              2       6        3.46       700     1000      520     2100     2101     7000   
                                         GEOM     BASIS   MCVARS     RHF      RHF     PAPT   

 PROGRAMS   *        TOTAL      PAPT    HF-SCF    HF-SCF       INT
 CPU TIMES  *        36.58     14.29      2.04     10.90      9.25
 REAL TIME  *        49.63 SEC
 DISK USED  *         3.08 GB
 **********************************************************************************************************************************


 PROGRAM * MP3 (Closed-shell)     Authors: C. Hampel, H.-J. Werner, 1991, M. Deegan, P.J. Knowles, 1992


 Convergence thresholds:  THRVAR = 1.00D-08  THRDEN = 1.00D-06

 Number of core orbitals:           4 (   4 )
 Number of closed-shell orbitals:  13 (  13 )
 Number of external orbitals:     187 ( 187 )

 Molecular orbitals read from record     7000.2  Type=PAPT/CANONICAL (state 1.1)

 Number of N-1 electron functions:              13
 Number of N-2 electron functions:              91
 Number of singly external CSFs:              2431
 Number of doubly external CSFs:           2956096
 Total number of CSFs:                     2958528

 Length of J-op  integral file:               0.00 MB
 Length of K-op  integral file:               2.92 MB

 Integral transformation finished. Total CPU:   1.92 sec, npass=  1  Memory used:   7.17 MW
 Orbital energies read from record       7000.2  Type=PAPT/CANONICAL (state 1.1)

 Reference energy:                   -221.25140226

                        CORR.ENERGY   TOTAL ENERGY   ENERGY CHANGE
 MP2:                   -0.89146197  -222.14286423    -0.89146197

 SCS-MP2 correlation energy:           -0.88613259   (PS=  1.200000  PT=  0.333333)
 SCS-MP2 total energy:               -222.13753484

 MP3(D):                -0.89175204  -222.14315430    -0.00029007



 RESULTS
 =======

  Reference energy                   -221.251402257703
  MP3 singlet pair energy              -0.602671903977
  MP3 triplet pair energy              -0.289080137000
  MP3 correlation energy               -0.891752040977

 !MP3 total energy                   -222.143154298680

 Timing summary (sec):

 STEP                 CPU(USER)    SYS     CPU(TOT)    WALL
 Transformation          3.00      0.36      3.36      3.77
 CCSD iterations        42.36      0.26     42.62      6.58

 Program statistics:

 Available memory in ccsd:               393215307
 Min. memory needed in ccsd:               7623489
 Max. memory used in ccsd:                10267091
 Max. memory used in cckext:               7974630 ( 1 integral passes)



 **********************************************************************************************************************************
 DATASETS  * FILE   NREC   LENGTH (MB)   RECORD NAMES
              1      21      806.66       500      610      700      900      950      970     1000      129      960     1100   
                                          VAR    BASINP    GEOM    SYMINP    ZMAT    AOBASIS   BASIS     P2S    ABASIS      S 
                                         1400     1410     1200     1210     1080     1600     1650     1300     1700     1380   
                                           T        V       H0       H01     AOSYM     SMH    MOLCAS    ERIS     OPER     JKOP   
                                         7000   
                                        PAPT AO    

              2       6        3.46       700     1000      520     2100     2101     7000   
                                         GEOM     BASIS   MCVARS     RHF      RHF     PAPT   

 PROGRAMS   *        TOTAL       MP3      PAPT    HF-SCF    HF-SCF       INT
 CPU TIMES  *        45.25      8.67     14.29      2.04     10.90      9.25
 REAL TIME  *        60.21 SEC
 DISK USED  *         3.08 GB
 **********************************************************************************************************************************

 Dump information in style XML to xml output                                                                      

 Orbitals will not be exported.

 **********************************************************************************************************************************

 MP3/cc-pVTZ energy=   -222.143154298680

             MP3            PAPT          HF-SCF          HF-SCF
   -222.14315430   -222.13602525   -221.25140226   -221.25140226
 **********************************************************************************************************************************
 Molpro calculation terminated
