
 Working directory              : /var/folders/2v/xbgp75_9785319ghcgb4zr4r0000gp/T//molpro.aRfyKei7JN/
 Global scratch directory       : /var/folders/2v/xbgp75_9785319ghcgb4zr4r0000gp/T//molpro.aRfyKei7JN/
 Wavefunction directory         : /Users/sacpjk/wfu/
 Main file repository           : /var/folders/2v/xbgp75_9785319ghcgb4zr4r0000gp/T//molpro.aRfyKei7JN/

 id        : peterk

 Nodes                        nprocs
 Cardiff-University-G34YLXT77Y    1
 GA implementation: MPI file
 GA implementation (serial work in mppx): MPI file

 Using customized tuning parameters: mindgm=1; mindgv=20; mindgc=4; mindgr=1; noblas=0; minvec=7
 default implementation of scratch files=df  


 Variables initialized (1032), CPU time= 0.01 sec
 
 symmetry,nosym
 
 
 geometry={
            6
     C          0.00087040     -0.50561060      0.00000000
     H         -1.05537693     -0.74805845      0.00000000
     H          0.52074787     -0.77071253      0.91244975
     H          0.52074787     -0.77071253     -0.91244975
     H          0.01214038      0.79677557      0.00000000
     O          0.00087040      1.99831855      0.00000000
 }
 basis=cc-pVDZ
 
 
 spin=2
 uhf
 
 
 
 {put,xml;noorbitals,nobasis}
 Commands initialized (841), CPU time= 0.00 sec, 704 directives.
 Default parameters read. Elapsed time= 0.32 sec

 Checking input...
 Passed
1


                                         ***  PROGRAM SYSTEM MOLPRO  ***
                                       Copyright, TTI GmbH Stuttgart, 2015
                                    Version 2023.1 linked Tue Jun  6 09:54:11 2023


 **********************************************************************************************************************************
 LABEL *                                                                                                                                                                 
  64 bit serial version                                                                  DATE: 09-Jun-23          TIME: 09:28:13  
 **********************************************************************************************************************************

 SHA1:             8ebb0dd001088a5c915591db1a321413035db0b1
 **********************************************************************************************************************************

 Memory per process:       805 MW
 Total memory per node:   1074 MW
 Total GA space:           268 MW

 GA preallocation disabled
 GA check enabled

 Variable memory set to 805.3 MW

 ZSYMEL=NOSYM


 Geometry recognized as XYZ

 SETTING BASIS          =    CC-PVDZ
 SETTING SPIN           =         2.00000000                                  


 Recomputing integrals since basis changed


 Using spherical harmonics

 Library entry C      S cc-pVDZ              selected for orbital group  1
 Library entry C      P cc-pVDZ              selected for orbital group  1
 Library entry C      D cc-pVDZ              selected for orbital group  1
 Library entry H      S cc-pVDZ              selected for orbital group  2
 Library entry H      P cc-pVDZ              selected for orbital group  2
 Library entry O      S cc-pVDZ              selected for orbital group  3
 Library entry O      P cc-pVDZ              selected for orbital group  3
 Library entry O      D cc-pVDZ              selected for orbital group  3


 PROGRAM * SEWARD (Integral evaluation for generally contracted gaussian basis sets)     Author: Roland Lindh, 1990

 Geometry written to block  1 of record 700


 Point group  C1  



 ATOMIC COORDINATES

 NR  ATOM    CHARGE       X              Y              Z

   1  C       6.00    0.001644818   -0.955465560    0.000000000
   2  H       1.00   -1.994373356   -1.413625596    0.000000000
   3  H       1.00    0.984070854   -1.456435603    1.724280130
   4  H       1.00    0.984070854   -1.456435603   -1.724280130
   5  H       1.00    0.022941993    1.505687610    0.000000000
   6  O       8.00    0.001644818    3.776274769    0.000000000

 Bond lengths in Bohr (Angstrom)

 1-2  2.047925577  1-3  2.046771572  1-4  2.046771572  1-5  2.461245314  5-6  2.270687036
     ( 1.083715545)     ( 1.083104872)     ( 1.083104872)     ( 1.302434931)     ( 1.201595833)

 Bond angles

  1-5-6  178.96681783   2-1-3  114.39748488   2-1-4  114.39748488   2-1-5  103.42335421

  3-1-4  114.79714374   3-1-5  103.92187210   4-1-5  103.92187210

 NUCLEAR CHARGE:                   18
 NUMBER OF PRIMITIVE AOS:          82
 NUMBER OF SYMMETRY AOS:           80
 NUMBER OF CONTRACTIONS:           48   (   48A   )
 NUMBER OF INNER CORE ORBITALS:     0   (    0A   )
 NUMBER OF OUTER CORE ORBITALS:     2   (    2A   )
 NUMBER OF VALENCE ORBITALS:       12   (   12A   )


 NUCLEAR REPULSION ENERGY   30.91033044


 Eigenvalues of metric

         1 0.987E-02 0.197E-01 0.364E-01 0.365E-01 0.421E-01 0.535E-01 0.535E-01 0.539E-01


 Contracted 2-electron integrals neglected if value below      1.0D-11
 AO integral compression algorithm  1   Integral accuracy      1.0D-11

     3.146 MB (compressed) written to integral file ( 44.8%)


 NUMBER OF SORTED TWO-ELECTRON INTEGRALS:     692076.     BUFFER LENGTH:  32768
 NUMBER OF SEGMENTS:   1  SEGMENT LENGTH:     692076      RECORD LENGTH: 524288

 Memory used in sort:       1.25 MW

 SORT1 READ      856160. AND WROTE      536650. INTEGRALS IN      2 RECORDS. CPU TIME:     0.01 SEC, REAL TIME:     0.01 SEC
 SORT2 READ      536650. AND WROTE      692076. INTEGRALS IN     12 RECORDS. CPU TIME:     0.02 SEC, REAL TIME:     0.02 SEC

 FILE SIZES:   FILE 1:    33.3 MBYTE,  FILE 4:     8.5 MBYTE,   TOTAL:     41.8 MBYTE

 OPERATOR DM      FOR CENTER  0  COORDINATES:    0.000000    0.000000    0.000000


 **********************************************************************************************************************************
 DATASETS  * FILE   NREC   LENGTH (MB)   RECORD NAMES
              1      19       31.08       500      610      700      900      950      970     1000      129      960     1100   
                                          VAR    BASINP    GEOM    SYMINP    ZMAT    AOBASIS   BASIS     P2S    ABASIS      S 
                                         1400     1410     1200     1210     1080     1600     1650     1300     1700   
                                           T        V       H0       H01     AOSYM     SMH    MOLCAS    ERIS     OPER   

 PROGRAMS   *        TOTAL       INT
 CPU TIMES  *         0.22      0.14
 REAL TIME  *         0.86 SEC
 DISK USED  *        40.22 MB
 **********************************************************************************************************************************


 Program * Unrestricted Hartree-Fock

 Orbital guess generated from atomic densities. Full valence occupancy:   14

 Initial alpha occupancy:  10
 Initial beta  occupancy:   8

 Elapsed time for starting guess:      0.00 sec

 NELEC=   18   SYM=1   MS2=2   THRE=1.0D-08   THRD=3.2D-06   THRG=3.2D-06  HFMA2=F  DIIS_START=2   DIIS_MAX=10   DIIS_INCORE=F

 Initial level shifts:    0.20 (ALPHA)    0.20 (BETA)

 ITER         ETOT            DE          GRAD         DDIFF    DIIS  NEXP   TIME(IT)  TIME(TOT)  DIAG
   1   -114.88854082  -114.88854082     0.00D+00     0.00D+00     0     0       0.01      0.01    start
   2   -114.92110844    -0.03256762     0.90D-02     0.15D+00     1     0       0.00      0.01    diag
   3   -114.92936167    -0.00825323     0.38D-02     0.11D-01     2     0       0.00      0.01    diag
   4   -114.93129236    -0.00193069     0.15D-02     0.46D-02     3     0       0.01      0.02    diag
   5   -114.93195123    -0.00065887     0.79D-03     0.19D-02     4     0       0.00      0.02    diag
   6   -114.93212088    -0.00016965     0.38D-03     0.11D-02     5     0       0.01      0.03    diag
   7   -114.93225619    -0.00013531     0.28D-03     0.57D-03     6     0       0.00      0.03    diag
   8   -114.93229033    -0.00003414     0.13D-03     0.66D-03     7     0       0.00      0.03    diag
   9   -114.93229520    -0.00000487     0.61D-04     0.40D-03     8     0       0.01      0.04    diag
  10   -114.93229617    -0.00000097     0.21D-04     0.12D-03     9     0       0.00      0.04    diag/ort
  11   -114.93229636    -0.00000019     0.13D-04     0.62D-04     9     0       0.01      0.05    diag
  12   -114.93229639    -0.00000003     0.44D-05     0.23D-04     9     0       0.00      0.05    diag
  13   -114.93229640    -0.00000000     0.12D-05     0.64D-05     8     0       0.01      0.06    diag
  14   -114.93229640    -0.00000000     0.44D-06     0.18D-05     8     0       0.00      0.06    diag

 Final alpha occupancy:  10
 Final beta  occupancy:   8

 !UHF STATE 1.1 Energy               -114.932296395899
  UHF One-electron energy            -217.873911708572
  UHF Two-electron energy              72.031284868495
  UHF Kinetic energy                  114.913641568049
  UHF Nuclear energy                   30.910330444178
  UHF Virial quotient                  -1.000162337801

 !UHF STATE 1.1 Dipole moment           0.00085379    -0.65068037    -0.00000000
 Dipole moment /Debye                   0.00217012    -1.65386453    -0.00000000

 EXPECTATION VALUE OF S**2:             2.04928521

 Orbital energies for positive spin:

           1.1          2.1          3.1          4.1          5.1          6.1          7.1          8.1          9.1         10.1
    -20.649364   -11.258694    -1.379287    -0.980343    -0.706877    -0.654286    -0.589587    -0.584913    -0.555329    -0.445824

          11.1         12.1
      0.186786     0.255198

 Orbital energies for negative spin:

           1.1          2.1          3.1          4.1          5.1          6.1          7.1          8.1          9.1         10.1
    -20.582118   -11.241593    -1.121790    -0.916031    -0.577310    -0.575559    -0.507902    -0.484515     0.082276     0.146928


 HOMO     10.1    -0.445824 =     -12.1315eV
 LUMO     -9.1     0.082276 =       2.2389eV
 LUMO-HOMO         0.528100 =      14.3703eV

 Orbitals saved in record  2200.2

 Occupation number threshold for pseudo-canonical orbitals: 1.9990 (occupied), 0.0010 (virtual)

 Number of pseudo-canonical occupied orbitals per symmetry:    6
 Number of active natural orbitals per symmetry:               6

 Natural orbitals saved to record    2200.2 (Orbital set 3)

 Orbital spaces for UNO-CAS (Min. occupation: 0.020  Max. occupation: 1.980):

 Closed:        7
 Active:        4


 **********************************************************************************************************************************
 DATASETS  * FILE   NREC   LENGTH (MB)   RECORD NAMES
              1      19       31.08       500      610      700      900      950      970     1000      129      960     1100   
                                          VAR    BASINP    GEOM    SYMINP    ZMAT    AOBASIS   BASIS     P2S    ABASIS      S 
                                         1400     1410     1200     1210     1080     1600     1650     1300     1700   
                                           T        V       H0       H01     AOSYM     SMH    MOLCAS    ERIS     OPER   

              2       4        0.56       700     1000      520     2200   
                                         GEOM     BASIS   MCVARS     UHF  

              4       3        0.46      2900     3000     3100   

 PROGRAMS   *        TOTAL   UHF-SCF       INT
 CPU TIMES  *         0.28      0.06      0.14
 REAL TIME  *         1.07 SEC
 DISK USED  *        40.22 MB
 **********************************************************************************************************************************

 Dump information in style XML to xml output                                                                      

 Orbitals will not be exported.

 **********************************************************************************************************************************

 UHF/cc-pVDZ energy=   -114.932296395899

         UHF-SCF
   -114.93229640
 **********************************************************************************************************************************
 Molpro calculation terminated
