
 Working directory              : /var/folders/2v/xbgp75_9785319ghcgb4zr4r0000gp/T//molpro.ZkZikIHV5O/
 Global scratch directory       : /var/folders/2v/xbgp75_9785319ghcgb4zr4r0000gp/T//molpro.ZkZikIHV5O/
 Wavefunction directory         : /Users/sacpjk/wfu/
 Main file repository           : /var/folders/2v/xbgp75_9785319ghcgb4zr4r0000gp/T//molpro.ZkZikIHV5O/

 id        : peterk

 Nodes                        nprocs
 Cardiff-University-G34YLXT77Y    1
 GA implementation: MPI file
 GA implementation (serial work in mppx): MPI file

 Using customized tuning parameters: mindgm=1; mindgv=20; mindgc=4; mindgr=1; noblas=0; minvec=7
 default implementation of scratch files=df  


 Variables initialized (1032), CPU time= 0.00 sec
 
 symmetry,nosym
 
 
 geometry={
           13
     O         -1.32405101      0.96468670      0.88212237
     P         -1.55403603     -0.15340022     -0.27983881
     O         -2.69238420      0.07911544     -1.16403264
     O         -0.08728201      0.00667959     -0.98546916
     P          1.28122647     -0.22022769     -0.14435231
     O          1.16222968     -1.35332236      0.79483311
     O          2.40489281     -0.41354468     -1.23510036
     O          1.61457791      1.21802300      0.45657383
     O         -1.50367569     -1.56347668      0.42587351
     H         -2.16110179      1.23977049      1.29161539
     H          2.57955161      0.37780562     -1.77306138
     H          0.85844259      1.56329860      0.97096654
     H         -0.57839033     -1.74540781      0.75986991
 }
 basis=cc-pVTZ
 
 
 
 hf; mp2
 
 
 
 {put,xml;noorbitals,nobasis}
 Commands initialized (841), CPU time= 0.01 sec, 704 directives.
 Default parameters read. Elapsed time= 0.38 sec

 Checking input...
 Passed
1


                                         ***  PROGRAM SYSTEM MOLPRO  ***
                                       Copyright, TTI GmbH Stuttgart, 2015
                                    Version 2023.1 linked Tue Jun  6 09:54:11 2023


 **********************************************************************************************************************************
 LABEL *                                                                                                                                                                 
  64 bit serial version                                                                  DATE: 12-Jun-23          TIME: 23:45:12  
 **********************************************************************************************************************************

 SHA1:             8ebb0dd001088a5c915591db1a321413035db0b1
 **********************************************************************************************************************************

 Memory per process:       393 MW
 Total memory per node:    524 MW
 Total GA space:           131 MW

 GA preallocation disabled
 GA check enabled

 Variable memory set to 393.2 MW

 ZSYMEL=NOSYM


 Geometry recognized as XYZ

 SETTING BASIS          =    CC-PVTZ


 Recomputing integrals since basis changed


 Using spherical harmonics

 Library entry O      S cc-pVTZ              selected for orbital group  1
 Library entry O      P cc-pVTZ              selected for orbital group  1
 Library entry O      D cc-pVTZ              selected for orbital group  1
 Library entry O      F cc-pVTZ              selected for orbital group  1
 Library entry P      S cc-pVTZ              selected for orbital group  2
 Library entry P      P cc-pVTZ              selected for orbital group  2
 Library entry P      D cc-pVTZ              selected for orbital group  2
 Library entry P      F cc-pVTZ              selected for orbital group  2
 Library entry H      S cc-pVTZ              selected for orbital group  6
 Library entry H      P cc-pVTZ              selected for orbital group  6
 Library entry H      D cc-pVTZ              selected for orbital group  6


 PROGRAM * SEWARD (Integral evaluation for generally contracted gaussian basis sets)     Author: Roland Lindh, 1990

 Geometry written to block  1 of record 700


 Point group  C1  



 ATOMIC COORDINATES

 NR  ATOM    CHARGE       X              Y              Z

   1  O       8.00   -2.502093784    1.822993659    1.666969688
   2  P      15.00   -2.936702485   -0.289884403   -0.528818710
   3  O       8.00   -5.087868760    0.149506514   -2.199702890
   4  O       8.00   -0.164939095    0.012622596   -1.862266817
   5  P      15.00    2.421167132   -0.416170019   -0.272786331
   6  O       8.00    2.196295789   -2.557408619    1.502016893
   7  O       8.00    4.544588770   -0.781486185   -2.334001417
   8  O       8.00    3.051110057    2.301729883    0.862799494
   9  O       8.00   -2.841535234   -2.954542727    0.804784298
  10  H       1.00   -4.083890511    2.342826683    2.440799345
  11  H       1.00    4.874646067    0.713949150   -3.350600410
  12  H       1.00    1.622221389    2.954206205    1.834860837
  13  H       1.00   -1.092999317   -3.298342737    1.435946020

 Bond lengths in Bohr (Angstrom)

  1- 2  3.078087899   1-10  1.836060891   2- 3  2.759064092   2- 4  3.090674138   2- 5  5.365469920
       ( 1.628853969)       ( 0.971601582)       ( 1.460033841)       ( 1.635514320)       ( 2.839284407)

 2-9  2.981267813  4-5  3.065657635  5-6  2.790232310  5-7  2.981775140  5-8  3.012202373
     ( 1.577618986)     ( 1.622276157)     ( 1.476527352)     ( 1.577887452)     ( 1.593988851)

  7-11  1.838134428   8-12  1.847255107   9-13  1.890487086
       ( 0.972698850)       ( 0.977525305)       ( 1.000402683)

 Bond angles

  1-2-3  115.64410623   1-2-4   96.54384756   1-2-5   80.85818137   1-2-9  106.85281724

  2- 1-10  111.92279149   2- 4- 5  121.27491563   2- 5- 4   29.49353091   2- 5- 6   88.16259366

  2- 5- 7  132.92354366   2- 5- 8  101.86384355   2- 9-13  109.96311404   3- 2- 4  114.98329299

  3-2-5  144.21477155   3-2-9  115.98463756   4-2-5   29.23155345   4-2-9  104.58707137

  4-5-6  111.66284576   4-5-7  105.03820062   4-5-8  104.22184810   5-2-9   85.74132551

  5- 7-11  114.23696303   5- 8-12  110.81302270   6- 5- 7  113.77053118   6- 5- 8  118.00075993

  7-5-8  102.83964979

 NUCLEAR CHARGE:                   90
 NUMBER OF PRIMITIVE AOS:         525
 NUMBER OF SYMMETRY AOS:          476
 NUMBER OF CONTRACTIONS:          334   (  334A   )
 NUMBER OF INNER CORE ORBITALS:     2   (    2A   )
 NUMBER OF OUTER CORE ORBITALS:    15   (   15A   )
 NUMBER OF VALENCE ORBITALS:       40   (   40A   )


 NUCLEAR REPULSION ENERGY  786.75466744


 Eigenvalues of metric

         1 0.122E-02 0.150E-02 0.165E-02 0.176E-02 0.191E-02 0.204E-02 0.213E-02 0.226E-02


 Contracted 2-electron integrals neglected if value below      1.0D-11
 AO integral compression algorithm  1   Integral accuracy      1.0D-11

     3966.763 MB (compressed) written to integral file ( 32.3%)


 NUMBER OF SORTED TWO-ELECTRON INTEGRALS: 1564949485.     BUFFER LENGTH:  32768
 NUMBER OF SEGMENTS:  49  SEGMENT LENGTH:   31998710      RECORD LENGTH: 524288

 Memory used in sort:      32.56 MW

 SORT1 READ  1535297371. AND WROTE  1097099820. INTEGRALS IN   3164 RECORDS. CPU TIME:    11.47 SEC, REAL TIME:    21.17 SEC
 SORT2 READ  1097099820. AND WROTE  1564949485. INTEGRALS IN  15132 RECORDS. CPU TIME:     8.64 SEC, REAL TIME:    17.40 SEC

 FILE SIZES:   FILE 1:  4001.1 MBYTE,  FILE 4: 13270.8 MBYTE,   TOTAL:  17271.9 MBYTE

 OPERATOR DM      FOR CENTER  0  COORDINATES:    0.000000    0.000000    0.000000


 **********************************************************************************************************************************
 DATASETS  * FILE   NREC   LENGTH (MB)   RECORD NAMES
              1      19     3426.87       500      610      700      900      950      970     1000      129      960     1100   
                                          VAR    BASINP    GEOM    SYMINP    ZMAT    AOBASIS   BASIS     P2S    ABASIS      S 
                                         1400     1410     1200     1210     1080     1600     1650     1300     1700   
                                           T        V       H0       H01     AOSYM     SMH    MOLCAS    ERIS     OPER   

 PROGRAMS   *        TOTAL       INT
 CPU TIMES  *        51.73     51.64
 REAL TIME  *        77.74 SEC
 DISK USED  *        16.09 GB
 **********************************************************************************************************************************


 Program * Restricted Hartree-Fock

 Orbital guess generated from atomic densities. Full valence occupancy:   57

 Initial occupancy:  45

 NELEC=   90   SYM=1   MS2= 0   THRE=1.0D-08   THRD=3.2D-06   THRG=3.2D-06  HFMA2=F  DIIS_START=2   DIIS_MAX=10   DIIS_INCORE=F

 Level shifts:    0.00 (CLOSED)    0.00 (OPEN)    0.30 (GAP_MIN)

 ITER           ETOT              DE          GRAD        DDIFF     DIIS  NEXP   TIME(IT)  TIME(TOT)  DIAG
   1    -1208.08816070   -1208.08816070     0.00D+00     0.53D-01     0     0       7.04     13.42    start
   2    -1208.26047001      -0.17230932     0.52D-02     0.80D-02     1     0       6.84     20.26    diag
   3    -1208.36093737      -0.10046736     0.34D-02     0.30D-02     2     0       6.84     27.10    diag
   4    -1208.36294720      -0.00200982     0.43D-03     0.53D-03     3     0       6.69     33.79    diag
   5    -1208.36323939      -0.00029219     0.17D-03     0.20D-03     4     0       6.82     40.61    diag
   6    -1208.36325720      -0.00001781     0.34D-04     0.43D-04     5     0       6.64     47.25    diag
   7    -1208.36325884      -0.00000164     0.76D-05     0.14D-04     6     0       6.94     54.19    diag
   8    -1208.36325896      -0.00000012     0.22D-05     0.37D-05     7     0       6.75     60.94    fixocc
   9    -1208.36325897      -0.00000002     0.80D-06     0.13D-05     8     0       6.93     67.87    diag
  10    -1208.36325898      -0.00000000     0.31D-06     0.43D-06     9     0       6.97     74.84    diag/orth
  11    -1208.36325898      -0.00000000     0.10D-06     0.14D-06     0     0       6.60     81.44    diag

 Final occupancy:  45

 !RHF STATE 1.1 Energy              -1208.363258975796
  RHF One-electron energy           -3236.719422425869
  RHF Two-electron energy            1241.601496012693
  RHF Kinetic energy                 1207.039801644384
  RHF Nuclear energy                  786.754667437380
  RHF Virial quotient                  -1.001096448791

 !RHF STATE 1.1 Dipole moment           0.83919958     1.48884934     0.53186980
 Dipole moment /Debye                   2.13303258     3.78427757     1.35187819

 Orbital energies:

           1.1          2.1          3.1          4.1          5.1          6.1          7.1          8.1          9.1         10.1
    -80.153480   -80.135038   -20.643719   -20.642601   -20.638524   -20.635964   -20.608153   -20.554713   -20.530780    -7.670580

          11.1         12.1         13.1         14.1         15.1         16.1         17.1         18.1         19.1         20.1
     -7.652208    -5.569169    -5.568821    -5.567577    -5.550997    -5.549999    -5.549055    -1.508081    -1.463802    -1.420739

          21.1         22.1         23.1         24.1         25.1         26.1         27.1         28.1         29.1         30.1
     -1.413201    -1.398463    -1.344714    -1.318414    -0.915543    -0.857636    -0.799545    -0.794417    -0.779668    -0.716561

          31.1         32.1         33.1         34.1         35.1         36.1         37.1         38.1         39.1         40.1
     -0.698561    -0.671587    -0.652360    -0.641484    -0.633491    -0.619099    -0.592969    -0.584822    -0.576023    -0.574869

          41.1         42.1         43.1         44.1         45.1         46.1         47.1
     -0.549688    -0.517368    -0.510729    -0.495441    -0.487601     0.102918     0.124119


 HOMO     45.1    -0.487601 =     -13.2683eV
 LUMO     46.1     0.102918 =       2.8005eV
 LUMO-HOMO         0.590519 =      16.0688eV

 Orbitals saved in record  2100.2


 **********************************************************************************************************************************
 DATASETS  * FILE   NREC   LENGTH (MB)   RECORD NAMES
              1      19     3426.87       500      610      700      900      950      970     1000      129      960     1100   
                                          VAR    BASINP    GEOM    SYMINP    ZMAT    AOBASIS   BASIS     P2S    ABASIS      S 
                                         1400     1410     1200     1210     1080     1600     1650     1300     1700   
                                           T        V       H0       H01     AOSYM     SMH    MOLCAS    ERIS     OPER   

              2       4        2.34       700     1000      520     2100   
                                         GEOM     BASIS   MCVARS     RHF  

 PROGRAMS   *        TOTAL    HF-SCF       INT
 CPU TIMES  *       133.17     81.44     51.64
 REAL TIME  *       170.88 SEC
 DISK USED  *        16.09 GB
 **********************************************************************************************************************************


 PROGRAM * MP2 (Closed-shell)     Authors: C. Hampel, H.-J. Werner, 1991, M. Deegan, P.J. Knowles, 1992


 Convergence thresholds:  THRVAR = 1.00D-08  THRDEN = 1.00D-06

 Number of core orbitals:          17 (  17 )
 Number of closed-shell orbitals:  28 (  28 )
 Number of external orbitals:     289 ( 289 )

 Molecular orbitals read from record     2100.2  Type=RHF/CANONICAL  

 Number of N-1 electron functions:              28
 Number of N-2 electron functions:             406
 Number of singly external CSFs:              8092
 Number of doubly external CSFs:          32744278
 Total number of CSFs:                    32752371

 Length of J-op  integral file:               0.00 MB
 Length of K-op  integral file:               7.72 MB

 Integral transformation finished. Total CPU:  30.17 sec, npass=  1  Memory used:  74.49 MW

 Memory needed for MP2:                      0.52 MW

 SCS-MP2 correlation energy:           -1.903338435406   (PS=  1.200000  PT=  0.333333)
 SCS-MP2 total energy:              -1210.266597411199


  Reference energy                  -1208.363258975793
  MP2 singlet pair energy              -1.181063635137
  MP2 triplet pair energy              -0.781171189137
  MP2 correlation energy               -1.962234824275

 !MP2 total energy                  -1210.325493800068


 **********************************************************************************************************************************
 DATASETS  * FILE   NREC   LENGTH (MB)   RECORD NAMES
              1      20     3947.42       500      610      700      900      950      970     1000      129      960     1100   
                                          VAR    BASINP    GEOM    SYMINP    ZMAT    AOBASIS   BASIS     P2S    ABASIS      S 
                                         1400     1410     1200     1210     1080     1600     1650     1300     1700     1380   
                                           T        V       H0       H01     AOSYM     SMH    MOLCAS    ERIS     OPER     JKOP   

              2       4        2.34       700     1000      520     2100   
                                         GEOM     BASIS   MCVARS     RHF  

 PROGRAMS   *        TOTAL       MP2    HF-SCF       INT
 CPU TIMES  *       165.84     32.67     81.44     51.64
 REAL TIME  *       208.09 SEC
 DISK USED  *        16.09 GB
 **********************************************************************************************************************************

 Dump information in style XML to xml output                                                                      

 Orbitals will not be exported.

 **********************************************************************************************************************************

 MP2/cc-pVTZ energy=  -1210.325493800068

             MP2          HF-SCF
  -1210.32549380  -1208.36325898
 **********************************************************************************************************************************
 Molpro calculation terminated
