
 Working directory              : /tmp/peterk/molpro.eeIWu97q6M/
 Global scratch directory       : /tmp/peterk/molpro.eeIWu97q6M/
 Wavefunction directory         : /home/peterk/wfu/
 Main file repository           : /tmp/peterk/molpro.eeIWu97q6M/

 id        : peterk

 Nodes     nprocs
 marat        1
 GA implementation: MPI file
 GA implementation (serial work in mppx): MPI file

 Using customized tuning parameters: mindgm=1; mindgv=20; mindgc=4; mindgr=1; noblas=0; minvec=7
 default implementation of scratch files=df  


 Variables initialized (1032), CPU time= 0.00 sec
 
 symmetry,nosym
 
 
 geometry={
           13
     C         -1.95562211     -0.53954090      0.00000805
     C         -1.13108458      0.71318040      0.00005005
     C          0.20564837      0.80700882      0.00002705
     C          1.15756998     -0.30167414     -0.00004295
     C          2.48359820     -0.12620320     -0.00003495
     H         -2.60507076     -0.56886261      0.87713351
     H         -2.60511309     -0.56877265     -0.87708907
     H         -1.35131756     -1.44334918     -0.00005395
     H         -1.69365291      1.64032011      0.00010405
     H          0.64577091      1.79837477      0.00006505
     H          0.76527501     -1.31050982     -0.00010395
     H          3.16470753     -0.96498882     -0.00008695
     H          2.91929100      0.86501723      0.00002405
 }
 basis=cc-pVQZ
 
 
 
 hf; hf; papt; mp2
 
 
 
 {put,xml;noorbitals,nobasis}
 Commands initialized (841), CPU time= 0.01 sec, 708 directives.
 Default parameters read. Elapsed time= 0.05 sec

 Checking input...
 Passed
1


                                         ***  PROGRAM SYSTEM MOLPRO  ***
                                       Copyright, TTI GmbH Stuttgart, 2015
                                    Version 2023.1 linked Sat Jun 10 08:01:27 2023


 **********************************************************************************************************************************
 LABEL *                                                                                                                                                                 
  (16 PROC) 64 bit serial version                                                        DATE: 11-Jun-23          TIME: 08:47:54  
 **********************************************************************************************************************************

 SHA1:             8376d659ba1296ca7ee514c57770fe2c96af278c
 **********************************************************************************************************************************

 Memory per process:      1074 MW
 Total memory per node:   1074 MW

 GA preallocation disabled
 GA check disabled

 Variable memory set to 1073.7 MW

 ZSYMEL=NOSYM


 Geometry recognized as XYZ

 SETTING BASIS          =    CC-PVQZ


 Recomputing integrals since basis changed


 Using spherical harmonics

 Library entry C      S cc-pVQZ              selected for orbital group  1
 Library entry C      P cc-pVQZ              selected for orbital group  1
 Library entry C      D cc-pVQZ              selected for orbital group  1
 Library entry C      F cc-pVQZ              selected for orbital group  1
 Library entry C      G cc-pVQZ              selected for orbital group  1
 Library entry H      S cc-pVQZ              selected for orbital group  2
 Library entry H      P cc-pVQZ              selected for orbital group  2
 Library entry H      D cc-pVQZ              selected for orbital group  2
 Library entry H      F cc-pVQZ              selected for orbital group  2


 PROGRAM * SEWARD (Integral evaluation for generally contracted gaussian basis sets)     Author: Roland Lindh, 1990

 Geometry written to block  1 of record 700


 Point group  C1  



 ATOMIC COORDINATES

 NR  ATOM    CHARGE       X              Y              Z

   1  C       6.00   -3.695590191   -1.019584534    0.000015212
   2  C       6.00   -2.137440080    1.347715633    0.000094581
   3  C       6.00    0.388619097    1.525025650    0.000051117
   4  C       6.00    2.187490232   -0.570081503   -0.000081164
   5  C       6.00    4.693320402   -0.238489484   -0.000066046
   6  H       1.00   -4.922870272   -1.074994535    1.657542109
   7  H       1.00   -4.922950264   -1.074824536   -1.657458129
   8  H       1.00   -2.553620096   -2.727534652   -0.000101951
   9  H       1.00   -3.200540150    3.099755765    0.000196626
  10  H       1.00    1.220330159    3.398435785    0.000122927
  11  H       1.00    1.446160179   -2.476504643   -0.000196437
  12  H       1.00    5.980430496   -1.823564583   -0.000164312
  13  H       1.00    5.516660468    1.634645658    0.000045448

 Bond lengths in Bohr (Angstrom)

 1-2  2.834068076  1-6  2.063172818  1-7  2.063172820  1-8  2.054553314  2-3  2.532274434
     ( 1.499724240)     ( 1.091784037)     ( 1.091784038)     ( 1.087222792)     ( 1.340021922)

  2- 9  2.049347796   3- 4  2.761414739   3-10  2.049733843   4- 5  2.527674446   4-11  2.045487582
       ( 1.084468151)       ( 1.461277750)       ( 1.084672438)       ( 1.337587713)       ( 1.082425414)

  5-12  2.041841197   5-13  2.046099738
       ( 1.080495830)       ( 1.082749352)

 Bond angles

  1-2-3  127.36793620   1-2-9  115.39873262   2-1-6  110.45402152   2-1-7  110.45386782

  2- 1- 8  112.87971288   2- 3- 4  126.63443987   2- 3-10  117.95423915   3- 2- 9  117.23333118

  3- 4- 5  123.11152689   3- 4-11  118.10139595   4- 3-10  115.41132098   4- 5-12  121.53918017

  4- 5-13  121.26603237   5- 4-11  118.78707715   6- 1- 7  106.90709601   6- 1- 8  107.95995642

  7- 1- 8  107.95986127  12- 5-13  117.19478746

 NUCLEAR CHARGE:                   38
 NUMBER OF PRIMITIVE AOS:         711
 NUMBER OF SYMMETRY AOS:          596
 NUMBER OF CONTRACTIONS:          515   (  515A   )
 NUMBER OF INNER CORE ORBITALS:     0   (    0A   )
 NUMBER OF OUTER CORE ORBITALS:     5   (    5A   )
 NUMBER OF VALENCE ORBITALS:       28   (   28A   )


 NUCLEAR REPULSION ENERGY  155.81513849


 Eigenvalues of metric

         1 0.328E-04 0.644E-04 0.660E-04 0.826E-04 0.934E-04 0.111E-03 0.140E-03 0.153E-03


 Contracted 2-electron integrals neglected if value below      1.0D-12
 AO integral compression algorithm  1   Integral accuracy      1.0D-12

     21075.591 MB (compressed) written to integral file ( 30.1%)


 NUMBER OF SORTED TWO-ELECTRON INTEGRALS: 8827284885.     BUFFER LENGTH:  32768
 NUMBER OF SEGMENTS: 185  SEGMENT LENGTH:   47999545      RECORD LENGTH: 131072

 Memory used in sort:      48.16 MW

 SORT1 READ  8746625500. AND WROTE  5673039240. INTEGRALS IN  65018 RECORDS. CPU TIME:   114.57 SEC, REAL TIME:   517.24 SEC
 SORT2 READ  5673039240. AND WROTE  8827284885. INTEGRALS IN  80397 RECORDS. CPU TIME:    67.18 SEC, REAL TIME:   522.36 SEC

 FILE SIZES:   FILE 1: 21115.5 MBYTE,  FILE 4: 68176.4 MBYTE,   TOTAL:  89291.9 MBYTE

 OPERATOR DM      FOR CENTER  0  COORDINATES:    0.000000    0.000000    0.000000


 **********************************************************************************************************************************
 DATASETS  * FILE   NREC   LENGTH (MB)   RECORD NAMES
              1      19    18258.09       500      610      700      900      950      970     1000      129      960     1100   
                                          VAR    BASINP    GEOM    SYMINP    ZMAT    AOBASIS   BASIS     P2S    ABASIS      S 
                                         1400     1410     1200     1210     1080     1600     1650     1300     1700   
                                           T        V       H0       H01     AOSYM     SMH    MOLCAS    ERIS     OPER   

 PROGRAMS   *        TOTAL       INT
 CPU TIMES  *       398.46    398.36
 REAL TIME  *      1277.39 SEC
 DISK USED  *        83.16 GB
 **********************************************************************************************************************************


 Program * Restricted Hartree-Fock

 Orbital guess generated from atomic densities. Full valence occupancy:   33

 Initial occupancy:  19

 NELEC=   38   SYM=1   MS2= 0   THRE=1.0D-08   THRD=3.2D-06   THRG=3.2D-06  HFMA2=F  DIIS_START=2   DIIS_MAX=10   DIIS_INCORE=F

 Level shifts:    0.00 (CLOSED)    0.00 (OPEN)    0.30 (GAP_MIN)

 ITER           ETOT              DE          GRAD        DDIFF     DIIS  NEXP   TIME(IT)  TIME(TOT)  DIAG
   1     -193.97547252    -193.97547252     0.00D+00     0.24D-01     0     0      63.63    141.91    start
   2     -194.03201148      -0.05653895     0.20D-02     0.20D-02     1     0      61.38    203.29    diag
   3     -194.03840708      -0.00639560     0.73D-03     0.62D-03     2     0      61.25    264.54    diag
   4     -194.03944822      -0.00104114     0.25D-03     0.27D-03     3     0      61.29    325.83    diag
   5     -194.03949995      -0.00005173     0.66D-04     0.63D-04     4     0      61.49    387.32    diag
   6     -194.03950625      -0.00000629     0.18D-04     0.26D-04     5     0      61.51    448.83    diag
   7     -194.03950667      -0.00000043     0.41D-05     0.70D-05     6     0      61.69    510.52    diag
   8     -194.03950672      -0.00000005     0.12D-05     0.20D-05     7     0      61.50    572.02    fixocc
   9     -194.03950673      -0.00000001     0.70D-06     0.93D-06     8     0      61.37    633.39    diag
  10     -194.03950673      -0.00000000     0.19D-06     0.26D-06     0     0      61.52    694.91    diag/orth

 Final occupancy:  19

 !RHF STATE 1.1 Energy               -194.039506733096
  RHF One-electron energy            -568.850008679899
  RHF Two-electron energy             218.995363459324
  RHF Kinetic energy                  193.826481930718
  RHF Nuclear energy                  155.815138487479
  RHF Virial quotient                  -1.001099049006

 !RHF STATE 1.1 Dipole moment          -0.20680257    -0.06309745     0.00000118
 Dipole moment /Debye                  -0.52563969    -0.16037772     0.00000300

 Orbital energies:

           1.1          2.1          3.1          4.1          5.1          6.1          7.1          8.1          9.1         10.1
    -11.233968   -11.233466   -11.226309   -11.222558   -11.222513    -1.095868    -1.026436    -0.933388    -0.809062    -0.728388

          11.1         12.1         13.1         14.1         15.1         16.1         17.1         18.1         19.1         20.1
     -0.658216    -0.616663    -0.570893    -0.568215    -0.537545    -0.523453    -0.476975    -0.432791    -0.312950     0.113507

          21.1
      0.116190


 HOMO     19.1    -0.312950 =      -8.5158eV
 LUMO     20.1     0.113507 =       3.0887eV
 LUMO-HOMO         0.426457 =      11.6045eV

 Orbitals saved in record  2100.2


 **********************************************************************************************************************************
 DATASETS  * FILE   NREC   LENGTH (MB)   RECORD NAMES
              1      19    18258.09       500      610      700      900      950      970     1000      129      960     1100   
                                          VAR    BASINP    GEOM    SYMINP    ZMAT    AOBASIS   BASIS     P2S    ABASIS      S 
                                         1400     1410     1200     1210     1080     1600     1650     1300     1700   
                                           T        V       H0       H01     AOSYM     SMH    MOLCAS    ERIS     OPER   

              2       4        4.71       700     1000      520     2100   
                                         GEOM     BASIS   MCVARS     RHF  

 PROGRAMS   *        TOTAL    HF-SCF       INT
 CPU TIMES  *      1093.37    694.91    398.36
 REAL TIME  *      2105.48 SEC
 DISK USED  *        83.16 GB
 **********************************************************************************************************************************


 Program * Restricted Hartree-Fock

 Molecular orbitals read from record     2100.2  Type=RHF/CANONICAL  

 Initial occupancy:  19

 NELEC=   38   SYM=1   MS2= 0   THRE=1.0D-08   THRD=3.2D-06   THRG=3.2D-06  HFMA2=F  DIIS_START=2   DIIS_MAX=10   DIIS_INCORE=F

 Level shifts:    0.00 (CLOSED)    0.00 (OPEN)    0.30 (GAP_MIN)

 ITER           ETOT              DE          GRAD        DDIFF     DIIS  NEXP   TIME(IT)  TIME(TOT)  DIAG
   1     -194.03950673    -194.03950673     0.00D+00     0.24D-01     0     0      61.25     61.26    start
   2     -194.03950673      -0.00000000     0.11D-06     0.14D-06     1     0      61.31    122.57    diag

 Final occupancy:  19

 !RHF STATE 1.1 Energy               -194.039506733449
  RHF One-electron energy            -568.849992931141
  RHF Two-electron energy             218.995347710213
  RHF Kinetic energy                  193.826478820089
  RHF Nuclear energy                  155.815138487479
  RHF Virial quotient                  -1.001099065074

 !RHF STATE 1.1 Dipole moment          -0.20674915    -0.06309359     0.00000118
 Dipole moment /Debye                  -0.52550393    -0.16036791     0.00000300

 Orbital energies:

           1.1          2.1          3.1          4.1          5.1          6.1          7.1          8.1          9.1         10.1
    -11.233966   -11.233457   -11.226306   -11.222569   -11.222511    -1.095866    -1.026436    -0.933386    -0.809063    -0.728388

          11.1         12.1         13.1         14.1         15.1         16.1         17.1         18.1         19.1         20.1
     -0.658215    -0.616663    -0.570890    -0.568215    -0.537545    -0.523451    -0.476973    -0.432791    -0.312949     0.113507

          21.1
      0.116191


 HOMO     19.1    -0.312949 =      -8.5158eV
 LUMO     20.1     0.113507 =       3.0887eV
 LUMO-HOMO         0.426456 =      11.6045eV

 Orbitals saved in record  2101.2


 **********************************************************************************************************************************
 DATASETS  * FILE   NREC   LENGTH (MB)   RECORD NAMES
              1      19    18258.09       500      610      700      900      950      970     1000      129      960     1100   
                                          VAR    BASINP    GEOM    SYMINP    ZMAT    AOBASIS   BASIS     P2S    ABASIS      S 
                                         1400     1410     1200     1210     1080     1600     1650     1300     1700   
                                           T        V       H0       H01     AOSYM     SMH    MOLCAS    ERIS     OPER   

              2       5       11.92       700     1000      520     2100     2101   
                                         GEOM     BASIS   MCVARS     RHF      RHF  

 PROGRAMS   *        TOTAL    HF-SCF    HF-SCF       INT
 CPU TIMES  *      1215.96    122.57    694.91    398.36
 REAL TIME  *      2233.58 SEC
 DISK USED  *        83.16 GB
 **********************************************************************************************************************************


 PROGRAM * PAPT (Closed-shell)     Authors: C. Hampel, H.-J. Werner, 1991, P.J. Knowles, 2021


 Convergence thresholds:  THRVAR = 1.00D-08  THRDEN = 1.00D-06

 Number of core orbitals:           5 (   5 )
 Number of closed-shell orbitals:  14 (  14 )
 Number of external orbitals:     496 ( 496 )

 Molecular orbitals read from record     2101.2  Type=RHF/CANONICAL  

 Number of N-1 electron functions:              14
 Number of N-2 electron functions:             105
 Number of singly external CSFs:              6944
 Number of doubly external CSFs:          24113040
 Total number of CSFs:                    24119985

 Length of J-op  integral file:               0.00 MB
 Length of K-op  integral file:              18.27 MB

 Integral transformation finished. Total CPU: 153.67 sec, npass=  1  Memory used:  51.65 MW

 Reference energy:                   -194.03950673

                        CORR.ENERGY   TOTAL ENERGY   ENERGY CHANGE
 MP2:                   -0.87668024  -194.91618697    -0.87668024

 SCS-MP2 correlation energy:           -0.88395373   (PS=  1.200000  PT=  0.333333)
 SCS-MP2 total energy:               -194.92346046
 Iteration:   1     0.2913D+00
 Iteration:   2     0.3508D+00
 Iteration:   3     0.1168D+00
 Iteration:   4     0.1079D+00
 Iteration:   5     0.8888D-01
 Iteration:   6     0.3218D-01
 Iteration:   7     0.2892D+00
 Iteration:   8     0.2360D-01
 Iteration:   9     0.3499D-01
 Iteration:  10     0.1629D-01
 Iteration:  11     0.1026D-01
 Iteration:  12     0.2324D-01
 Iteration:  13     0.4384D-02
 Iteration:  14     0.6542D-02
 Iteration:  15     0.2608D-02
 Iteration:  16     0.1620D-02
 Iteration:  17     0.5081D-02
 Iteration:  18     0.4453D-03
 Iteration:  19     0.5392D-03
 Iteration:  20     0.2620D-03
 Iteration:  21     0.7051D-04
 PAPT operator written to  7000.1
 PAPT orbitals and eigenvalues written to  7000.2

 MP3(D):                -0.91080077  -194.95030750    -0.03412053



 RESULTS
 =======

  Reference energy                   -194.039506733449
  MP3 singlet pair energy              -0.635196726917
  MP3 triplet pair energy              -0.275604044178
  MP3 correlation energy               -0.910800771096

 !MP3 total energy                   -194.950307504544

 Timing summary (sec):

 STEP                 CPU(USER)    SYS     CPU(TOT)    WALL
 Transformation        157.11      3.53    160.64    160.67
 CCSD iterations      1665.23      4.00   1669.23    452.84

 Program statistics:

 Available memory in ccsd:              1073741021
 Min. memory needed in ccsd:              59253288
 Max. memory used in ccsd:                81378762
 Max. memory used in cckext:              57881021 ( 1 integral passes)



 **********************************************************************************************************************************
 DATASETS  * FILE   NREC   LENGTH (MB)   RECORD NAMES
              1      21    18582.07       500      610      700      900      950      970     1000      129      960     1100   
                                          VAR    BASINP    GEOM    SYMINP    ZMAT    AOBASIS   BASIS     P2S    ABASIS      S 
                                         1400     1410     1200     1210     1080     1600     1650     1300     1700     1380   
                                           T        V       H0       H01     AOSYM     SMH    MOLCAS    ERIS     OPER     JKOP   
                                         7000   
                                        PAPT AO    

              2       6       18.10       700     1000      520     2100     2101     7000   
                                         GEOM     BASIS   MCVARS     RHF      RHF     PAPT   

 PROGRAMS   *        TOTAL      PAPT    HF-SCF    HF-SCF       INT
 CPU TIMES  *      1821.98    606.03    122.57    694.91    398.36
 REAL TIME  *      2847.22 SEC
 DISK USED  *        83.16 GB
 **********************************************************************************************************************************


 PROGRAM * MP2 (Closed-shell)     Authors: C. Hampel, H.-J. Werner, 1991, M. Deegan, P.J. Knowles, 1992


 Convergence thresholds:  THRVAR = 1.00D-08  THRDEN = 1.00D-06

 Number of core orbitals:           5 (   5 )
 Number of closed-shell orbitals:  14 (  14 )
 Number of external orbitals:     496 ( 496 )

 Molecular orbitals read from record     7000.2  Type=PAPT/CANONICAL (state 1.1)

 Number of N-1 electron functions:              14
 Number of N-2 electron functions:             105
 Number of singly external CSFs:              6944
 Number of doubly external CSFs:          24113040
 Total number of CSFs:                    24119985

 Length of J-op  integral file:               0.00 MB
 Length of K-op  integral file:              18.27 MB

 Integral transformation finished. Total CPU: 160.67 sec, npass=  1  Memory used:  51.65 MW
 Orbital energies read from record       7000.2  Type=PAPT/CANONICAL (state 1.1)

 Memory needed for MP2:                      1.31 MW

 SCS-MP2 correlation energy:           -0.931933363309   (PS=  1.200000  PT=  0.333333)
 SCS-MP2 total energy:               -194.971440096758


  Reference energy                   -194.039506733449
  MP2 singlet pair energy              -0.621619161248
  MP2 triplet pair energy              -0.298913094340
  MP2 correlation energy               -0.920532255588

 !MP2 total energy                   -194.960038989037


 **********************************************************************************************************************************
 DATASETS  * FILE   NREC   LENGTH (MB)   RECORD NAMES
              1      21    18582.07       500      610      700      900      950      970     1000      129      960     1100   
                                          VAR    BASINP    GEOM    SYMINP    ZMAT    AOBASIS   BASIS     P2S    ABASIS      S 
                                         1400     1410     1200     1210     1080     1600     1650     1300     1700     1380   
                                           T        V       H0       H01     AOSYM     SMH    MOLCAS    ERIS     OPER     JKOP   
                                         7000   
                                        PAPT AO    

              2       6       18.10       700     1000      520     2100     2101     7000   
                                         GEOM     BASIS   MCVARS     RHF      RHF     PAPT   

 PROGRAMS   *        TOTAL       MP2      PAPT    HF-SCF    HF-SCF       INT
 CPU TIMES  *      2049.63    227.65    606.03    122.57    694.91    398.36
 REAL TIME  *      3081.98 SEC
 DISK USED  *        83.16 GB
 **********************************************************************************************************************************

 Dump information in style XML to xml output                                                                      

 Orbitals will not be exported.

 **********************************************************************************************************************************

 MP2/cc-pVQZ energy=   -194.960038989037

             MP2            PAPT          HF-SCF          HF-SCF
   -194.96003899   -194.95030750   -194.03950673   -194.03950673
 **********************************************************************************************************************************
 Molpro calculation terminated
