
 Working directory              : /var/folders/2v/xbgp75_9785319ghcgb4zr4r0000gp/T//molpro.oHWyw5L3Y5/
 Global scratch directory       : /var/folders/2v/xbgp75_9785319ghcgb4zr4r0000gp/T//molpro.oHWyw5L3Y5/
 Wavefunction directory         : /Users/sacpjk/wfu/
 Main file repository           : /var/folders/2v/xbgp75_9785319ghcgb4zr4r0000gp/T//molpro.oHWyw5L3Y5/

 id        : peterk

 Nodes                        nprocs
 Cardiff-University-G34YLXT77Y    1
 GA implementation: MPI file
 GA implementation (serial work in mppx): MPI file

 Using customized tuning parameters: mindgm=1; mindgv=20; mindgc=4; mindgr=1; noblas=0; minvec=7
 default implementation of scratch files=df  


 Variables initialized (1032), CPU time= 0.00 sec
 
 symmetry,nosym
 
 
 geometry={
           10
     N          0.00000000      0.00000000      1.14271621
     C         -1.12415740      0.00000000      0.35290193
     C          1.12415740      0.00000000      0.35290193
     C         -0.71189725      0.00000000     -0.96006654
     C          0.71189725      0.00000000     -0.96006654
     H          0.00000000      0.00000000      2.14833657
     H         -2.11145475      0.00000000      0.78525808
     H          2.11145475      0.00000000      0.78525808
     H         -1.35853848      0.00000000     -1.82361985
     H          1.35853848      0.00000000     -1.82361985
 }
 basis=cc-pVTZ
 
 
 
 hf; ccsd
 
 
 
 {put,xml;noorbitals,nobasis}
 Commands initialized (841), CPU time= 0.01 sec, 704 directives.
 Default parameters read. Elapsed time= 0.07 sec

 Checking input...
 Passed
1


                                         ***  PROGRAM SYSTEM MOLPRO  ***
                                       Copyright, TTI GmbH Stuttgart, 2015
                                    Version 2023.1 linked Tue Jun  6 09:54:11 2023


 **********************************************************************************************************************************
 LABEL *                                                                                                                                                                 
  64 bit serial version                                                                  DATE: 11-Jun-23          TIME: 08:07:00  
 **********************************************************************************************************************************

 SHA1:             8ebb0dd001088a5c915591db1a321413035db0b1
 **********************************************************************************************************************************

 Memory per process:       393 MW
 Total memory per node:    524 MW
 Total GA space:           131 MW

 GA preallocation disabled
 GA check enabled

 Variable memory set to 393.2 MW

 ZSYMEL=NOSYM


 Geometry recognized as XYZ

 SETTING BASIS          =    CC-PVTZ


 Recomputing integrals since basis changed


 Using spherical harmonics

 Library entry N      S cc-pVTZ              selected for orbital group  1
 Library entry N      P cc-pVTZ              selected for orbital group  1
 Library entry N      D cc-pVTZ              selected for orbital group  1
 Library entry N      F cc-pVTZ              selected for orbital group  1
 Library entry C      S cc-pVTZ              selected for orbital group  2
 Library entry C      P cc-pVTZ              selected for orbital group  2
 Library entry C      D cc-pVTZ              selected for orbital group  2
 Library entry C      F cc-pVTZ              selected for orbital group  2
 Library entry H      S cc-pVTZ              selected for orbital group  3
 Library entry H      P cc-pVTZ              selected for orbital group  3
 Library entry H      D cc-pVTZ              selected for orbital group  3


 PROGRAM * SEWARD (Integral evaluation for generally contracted gaussian basis sets)     Author: Roland Lindh, 1990

 Geometry written to block  1 of record 700


 Point group  C1  



 ATOMIC COORDINATES

 NR  ATOM    CHARGE       X              Y              Z

   1  N       7.00    0.000000000    0.000000000    2.159420675
   2  C       6.00   -2.124349607    0.000000000    0.666887997
   3  C       6.00    2.124349607    0.000000000    0.666887997
   4  C       6.00   -1.345290831    0.000000000   -1.814262822
   5  C       6.00    1.345290831    0.000000000   -1.814262822
   6  H       1.00    0.000000000    0.000000000    4.059767741
   7  H       1.00   -3.990071202    0.000000000    1.483922708
   8  H       1.00    3.990071202    0.000000000    1.483922708
   9  H       1.00   -2.567265657    0.000000000   -3.446142072
  10  H       1.00    2.567265657    0.000000000   -3.446142072

 Bond lengths in Bohr (Angstrom)

 1-2  2.596250190  1-3  2.596250190  1-6  1.900347066  2-4  2.600584927  2-7  2.036777551
     ( 1.373876434)     ( 1.373876434)     ( 1.005620360)     ( 1.376170278)     ( 1.077816263)

  3- 5  2.600584927   3- 8  2.036777551   4- 5  2.690581663   4- 9  2.038688883   5-10  2.038688883
       ( 1.376170278)       ( 1.077816263)       ( 1.423794500)       ( 1.078827697)       ( 1.078827697)

 Bond angles

  1-2-4  107.65942498   1-2-7  121.25924213   1-3-5  107.65942498   1-3-8  121.25924213

  2-1-3  109.81752217   2-1-6  125.09123892   2-4-5  107.43181394   2-4-9  125.74178504

  3- 1- 6  125.09123892   3- 5- 4  107.43181394   3- 5-10  125.74178504   4- 2- 7  131.08133289

  4- 5-10  126.82640102   5- 3- 8  131.08133289   5- 4- 9  126.82640102

 NUCLEAR CHARGE:                   36
 NUMBER OF PRIMITIVE AOS:         320
 NUMBER OF SYMMETRY AOS:          290
 NUMBER OF CONTRACTIONS:          220   (  220A   )
 NUMBER OF INNER CORE ORBITALS:     0   (    0A   )
 NUMBER OF OUTER CORE ORBITALS:     5   (    5A   )
 NUMBER OF VALENCE ORBITALS:       25   (   25A   )


 NUCLEAR REPULSION ENERGY  160.95503825

 EXTRA SYMMETRY OF AOS IN SYMMETRY 1:   1 1 1 1 1 2 1 1 2 1   1 2 1 1 2 1 1 2 1 2   1 1 2 1 2 1 1 2 2 1   1 1 1 1 1 2 1 1 2 1
                                        1 2 1 1 2 1 1 2 1 2   1 1 2 1 2 1 1 2 2 1   1 1 1 1 1 2 1 1 2 1   1 2 1 1 2 1 1 2 1 2
                                        1 1 2 1 2 1 1 2 2 1   1 1 1 1 1 2 1 1 2 1   1 2 1 1 2 1 1 2 1 2   1 1 2 1 2 1 1 2 2 1
                                        1 1 1 1 1 2 1 1 2 1   1 2 1 1 2 1 1 2 1 2   1 1 2 1 2 1 1 2 2 1   1 1 1 1 2 1 1 2 1 1
                                        2 1 1 2 1 1 1 1 2 1   1 2 1 1 2 1 1 2 1 1   1 1 2 1 1 2 1 1 2 1   1 2 1 1 1 1 2 1 1 2
                                        1 1 2 1 1 2 1 1 1 1   2 1 1 2 1 1 2 1 1 2

 Eigenvalues of metric

         1 0.118E-03 0.550E-03 0.945E-03 0.106E-02 0.112E-02 0.125E-02 0.136E-02 0.145E-02


 Contracted 2-electron integrals neglected if value below      1.0D-11
 AO integral compression algorithm  1   Integral accuracy      1.0D-11

     640.942 MB (compressed) written to integral file ( 25.1%)


 NUMBER OF SORTED TWO-ELECTRON INTEGRALS:  295500205.     BUFFER LENGTH:  32768
 NUMBER OF SEGMENTS:  19  SEGMENT LENGTH:   15999762      RECORD LENGTH: 524288

 Memory used in sort:      16.56 MW

 SORT1 READ   319574930. AND WROTE   139816897. INTEGRALS IN    408 RECORDS. CPU TIME:     2.32 SEC, REAL TIME:     5.45 SEC
 SORT2 READ   139816897. AND WROTE   295500205. INTEGRALS IN   2445 RECORDS. CPU TIME:     1.64 SEC, REAL TIME:     3.25 SEC

 FILE SIZES:   FILE 1:   672.9 MBYTE,  FILE 4:  1711.3 MBYTE,   TOTAL:   2384.2 MBYTE

 OPERATOR DM      FOR CENTER  0  COORDINATES:    0.000000    0.000000    0.000000


 **********************************************************************************************************************************
 DATASETS  * FILE   NREC   LENGTH (MB)   RECORD NAMES
              1      19      574.88       500      610      700      900      950      970     1000      129      960     1100   
                                          VAR    BASINP    GEOM    SYMINP    ZMAT    AOBASIS   BASIS     P2S    ABASIS      S 
                                         1400     1410     1200     1210     1080     1600     1650     1300     1700   
                                           T        V       H0       H01     AOSYM     SMH    MOLCAS    ERIS     OPER   

 PROGRAMS   *        TOTAL       INT
 CPU TIMES  *        12.61     12.51
 REAL TIME  *        26.47 SEC
 DISK USED  *         2.22 GB
 **********************************************************************************************************************************


 Program * Restricted Hartree-Fock

 Orbital guess generated from atomic densities. Full valence occupancy:   30

 Initial occupancy:  18

 NELEC=   36   SYM=1   MS2= 0   THRE=1.0D-08   THRD=3.2D-06   THRG=3.2D-06  HFMA2=F  DIIS_START=2   DIIS_MAX=10   DIIS_INCORE=F

 Level shifts:    0.00 (CLOSED)    0.00 (OPEN)    0.30 (GAP_MIN)

 ITER           ETOT              DE          GRAD        DDIFF     DIIS  NEXP   TIME(IT)  TIME(TOT)  DIAG
   1     -208.81467716    -208.81467716     0.00D+00     0.51D-01     0     0       1.63      3.08    start
   2     -208.86574989      -0.05107273     0.38D-02     0.54D-02     1     0       1.65      4.73    diag
   3     -208.88200230      -0.01625241     0.22D-02     0.21D-02     2     0       1.62      6.35    diag
   4     -208.88338566      -0.00138336     0.49D-03     0.73D-03     3     0       1.59      7.94    diag
   5     -208.88351146      -0.00012581     0.16D-03     0.18D-03     4     0       1.56      9.50    diag
   6     -208.88353818      -0.00002672     0.44D-04     0.97D-04     5     0       1.60     11.10    diag
   7     -208.88354431      -0.00000613     0.20D-04     0.46D-04     6     0       1.56     12.66    diag
   8     -208.88354489      -0.00000058     0.60D-05     0.15D-04     7     0       1.59     14.25    fixocc
   9     -208.88354494      -0.00000005     0.23D-05     0.49D-05     8     0       1.60     15.85    diag
  10     -208.88354494      -0.00000000     0.44D-06     0.11D-05     9     0       1.63     17.48    diag/orth
  11     -208.88354494      -0.00000000     0.12D-06     0.22D-06     0     0       1.59     19.07    diag

 Final occupancy:  18

 !RHF STATE 1.1 Energy               -208.883544943566
  RHF One-electron energy            -600.600046493041
  RHF Two-electron energy             230.761463303522
  RHF Kinetic energy                  208.521087093572
  RHF Nuclear energy                  160.955038245953
  RHF Virial quotient                  -1.001738231155

 !RHF STATE 1.1 Dipole moment           0.00000000     0.00000000     0.74774714
 Dipole moment /Debye                   0.00000000     0.00000000     1.90058366

 Orbital energies:

           1.1          2.1          3.1          4.1          5.1          6.1          7.1          8.1          9.1         10.1
    -15.602261   -11.249383   -11.249339   -11.206678   -11.205645    -1.285920    -1.038025    -0.973453    -0.789378    -0.763431

          11.1         12.1         13.1         14.1         15.1         16.1         17.1         18.1         19.1         20.1
     -0.733104    -0.589125    -0.579424    -0.563913    -0.544690    -0.524656    -0.344314    -0.295821     0.137033     0.176814


 HOMO     18.1    -0.295821 =      -8.0497eV
 LUMO     19.1     0.137033 =       3.7289eV
 LUMO-HOMO         0.432854 =      11.7786eV

 Orbitals saved in record  2100.2


 **********************************************************************************************************************************
 DATASETS  * FILE   NREC   LENGTH (MB)   RECORD NAMES
              1      19      574.88       500      610      700      900      950      970     1000      129      960     1100   
                                          VAR    BASINP    GEOM    SYMINP    ZMAT    AOBASIS   BASIS     P2S    ABASIS      S 
                                         1400     1410     1200     1210     1080     1600     1650     1300     1700   
                                           T        V       H0       H01     AOSYM     SMH    MOLCAS    ERIS     OPER   

              2       4        1.30       700     1000      520     2100   
                                         GEOM     BASIS   MCVARS     RHF  

 PROGRAMS   *        TOTAL    HF-SCF       INT
 CPU TIMES  *        31.69     19.08     12.51
 REAL TIME  *        68.34 SEC
 DISK USED  *         2.22 GB
 **********************************************************************************************************************************


 PROGRAM * CCSD (Closed-shell coupled cluster)     Authors: C. Hampel, H.-J. Werner, 1991, M. Deegan, P.J. Knowles, 1992


 Convergence thresholds:  THRVAR = 1.00D-08  THRDEN = 1.00D-06

 Number of core orbitals:           5 (   5 )
 Number of closed-shell orbitals:  13 (  13 )
 Number of external orbitals:     202 ( 202 )

 Molecular orbitals read from record     2100.2  Type=RHF/CANONICAL  

 Number of N-1 electron functions:              13
 Number of N-2 electron functions:              91
 Number of singly external CSFs:              2626
 Number of doubly external CSFs:           3449251
 Total number of CSFs:                     3451878

 Length of J-op  integral file:               0.00 MB
 Length of K-op  integral file:               3.39 MB
 Length of 3-ext integral record:             0.00 MB

 Integral transformation finished. Total CPU:  11.20 sec, npass=  1  Memory used:  83.22 MW

 Reference energy:                   -208.88354494

 MP2 singlet pair energy:              -0.52730579
 MP2 triplet pair energy:              -0.32134391
 MP2 correlation energy:               -0.84864971
 MP2 total energy:                   -209.73219465

 SCS-MP2 correlation energy:           -0.83271428   (PS=  1.200000  PT=  0.333333)
 SCS-MP2 total energy:               -209.71625922

 ITER.      SQ.NORM     CORR.ENERGY   TOTAL ENERGY   ENERGY CHANGE        DEN1      VAR(S)    VAR(P)  DIIS     TIME  TIME/IT
   1      1.27265170    -0.86301858  -209.74656352    -0.01436887     0.00785668  0.36D-02  0.56D-02  1  1    58.84    34.05
   2      1.29083451    -0.86525459  -209.74879953    -0.00223601    -0.01962909  0.57D-04  0.62D-03  2  2    75.90    34.45
   3      1.29761076    -0.86522899  -209.74877394     0.00002560    -0.00377935  0.38D-04  0.42D-04  3  3    92.37    34.24
   4      1.29992275    -0.86525786  -209.74880281    -0.00002887    -0.00084080  0.31D-05  0.56D-05  4  4   108.72    34.20
   5      1.30068928    -0.86527779  -209.74882273    -0.00001992    -0.00019128  0.11D-05  0.46D-06  5  5   125.81    34.72
   6      1.30089974    -0.86526814  -209.74881308     0.00000965    -0.00003262  0.18D-06  0.73D-07  6  6   142.13    34.38
   7      1.30094792    -0.86526717  -209.74881211     0.00000097    -0.00000112  0.57D-07  0.13D-07  6  2   159.88    34.63
   8      1.30096867    -0.86526685  -209.74881179     0.00000032    -0.00000103  0.67D-08  0.35D-08  6  1   176.40    34.97
   9      1.30097515    -0.86526677  -209.74881172     0.00000007     0.00000007  0.45D-09  0.45D-09  6  3   192.91    34.93

 Norm of t1 vector:      0.08002219      S-energy:     0.00000010      T1 diagnostic:  0.01109708
                                                                       D1 diagnostic:  0.03100453
                                                                       D2 diagnostic:  0.18429017 (internal)

 Doubles amplitudes (print threshold =  0.500E-01):

         I         J         SYM. A    SYM. B    A         B      T(IJ, AB)

        13        13         1         1         4         4     -0.07286717


 RESULTS
 =======

  Reference energy                   -208.883544943567
  CCSD singlet pair energy             -0.579319675104
  CCSD triplet pair energy             -0.285947194953
  CCSD correlation energy              -0.865266774939

 !CCSD total energy                  -209.748811718505

 Timing summary (sec):

 STEP                 CPU(USER)    SYS     CPU(TOT)    WALL
 Transformation         11.44      0.90     12.34     22.80
 CCSD iterations       181.63      5.33    186.96    314.74

 Program statistics:

 Available memory in ccsd:               393215306
 Min. memory needed in ccsd:               8868731
 Max. memory used in ccsd:                11955321
 Max. memory used in cckext:               9268368 ( 9 integral passes)



 **********************************************************************************************************************************
 DATASETS  * FILE   NREC   LENGTH (MB)   RECORD NAMES
              1      20     1036.88       500      610      700      900      950      970     1000      129      960     1100   
                                          VAR    BASINP    GEOM    SYMINP    ZMAT    AOBASIS   BASIS     P2S    ABASIS      S 
                                         1400     1410     1200     1210     1080     1600     1650     1300     1700     1380   
                                           T        V       H0       H01     AOSYM     SMH    MOLCAS    ERIS     OPER     JKOP   

              2       4        1.30       700     1000      520     2100   
                                         GEOM     BASIS   MCVARS     RHF  

 PROGRAMS   *        TOTAL      CCSD    HF-SCF       INT
 CPU TIMES  *       192.95    161.26     19.08     12.51
 REAL TIME  *       406.04 SEC
 DISK USED  *         2.22 GB
 **********************************************************************************************************************************

 Dump information in style XML to xml output                                                                      

 Orbitals will not be exported.

 **********************************************************************************************************************************

 CCSD/cc-pVTZ energy=   -209.748811718505

            CCSD          HF-SCF
   -209.74881172   -208.88354494
 **********************************************************************************************************************************
 Molpro calculation terminated
