
 Working directory              : /var/folders/2v/xbgp75_9785319ghcgb4zr4r0000gp/T//molpro.HsipDNAWkI/
 Global scratch directory       : /var/folders/2v/xbgp75_9785319ghcgb4zr4r0000gp/T//molpro.HsipDNAWkI/
 Wavefunction directory         : /Users/sacpjk/wfu/
 Main file repository           : /var/folders/2v/xbgp75_9785319ghcgb4zr4r0000gp/T//molpro.HsipDNAWkI/

 id        : peterk

 Nodes                        nprocs
 Cardiff-University-G34YLXT77Y    1
 GA implementation: MPI file
 GA implementation (serial work in mppx): MPI file

 Using customized tuning parameters: mindgm=1; mindgv=20; mindgc=4; mindgr=1; noblas=0; minvec=7
 default implementation of scratch files=df  


 Variables initialized (1032), CPU time= 0.00 sec
 
 symmetry,nosym
 
 
 geometry={
            2
     F          0.00000000      0.00000000      0.45769122
     H          0.00000000      0.00000000     -0.45769122
 }
 basis=cc-pVDZ
 
 
 
 hf
 
 
 
 {put,xml;noorbitals,nobasis}
 Commands initialized (841), CPU time= 0.01 sec, 704 directives.
 Default parameters read. Elapsed time= 0.20 sec

 Checking input...
 Passed
1


                                         ***  PROGRAM SYSTEM MOLPRO  ***
                                       Copyright, TTI GmbH Stuttgart, 2015
                                    Version 2023.1 linked Tue Jun  6 09:54:11 2023


 **********************************************************************************************************************************
 LABEL *                                                                                                                                                                 
  64 bit serial version                                                                  DATE: 09-Jun-23          TIME: 09:27:59  
 **********************************************************************************************************************************

 SHA1:             8ebb0dd001088a5c915591db1a321413035db0b1
 **********************************************************************************************************************************

 Memory per process:       805 MW
 Total memory per node:   1074 MW
 Total GA space:           268 MW

 GA preallocation disabled
 GA check enabled

 Variable memory set to 805.3 MW

 ZSYMEL=NOSYM


 Geometry recognized as XYZ

 SETTING BASIS          =    CC-PVDZ


 Recomputing integrals since basis changed


 Using spherical harmonics

 Library entry F      S cc-pVDZ              selected for orbital group  1
 Library entry F      P cc-pVDZ              selected for orbital group  1
 Library entry F      D cc-pVDZ              selected for orbital group  1
 Library entry H      S cc-pVDZ              selected for orbital group  2
 Library entry H      P cc-pVDZ              selected for orbital group  2


 PROGRAM * SEWARD (Integral evaluation for generally contracted gaussian basis sets)     Author: Roland Lindh, 1990

 Geometry written to block  1 of record 700


 Point group  C1  



 ATOMIC COORDINATES

 NR  ATOM    CHARGE       X              Y              Z

   1  F       9.00    0.000000000    0.000000000    0.864911055
   2  H       1.00    0.000000000    0.000000000   -0.864911055

 Bond lengths in Bohr (Angstrom)

 1-2  1.729822111
     ( 0.915382440)

 NUCLEAR CHARGE:                   10
 NUMBER OF PRIMITIVE AOS:          34
 NUMBER OF SYMMETRY AOS:           33
 NUMBER OF CONTRACTIONS:           19   (   19A   )
 NUMBER OF INNER CORE ORBITALS:     0   (    0A   )
 NUMBER OF OUTER CORE ORBITALS:     1   (    1A   )
 NUMBER OF VALENCE ORBITALS:        5   (    5A   )


 NUCLEAR REPULSION ENERGY    5.20284713

 EXTRA SYMMETRY OF AOS IN SYMMETRY 1:   1 1 1 2 3 1 2 3 1 1   4 2 5 3 1 1 2 3 1

 Eigenvalues of metric

         1 0.233E-01 0.537E-01 0.181E+00 0.193E+00 0.193E+00 0.236E+00 0.623E+00 0.623E+00


 Contracted 2-electron integrals neglected if value below      1.0D-11
 AO integral compression algorithm  1   Integral accuracy      1.0D-11

     0.262 MB (compressed) written to integral file ( 50.4%)


 NUMBER OF SORTED TWO-ELECTRON INTEGRALS:      18145.     BUFFER LENGTH:  32768
 NUMBER OF SEGMENTS:   1  SEGMENT LENGTH:      18145      RECORD LENGTH: 524288

 Memory used in sort:       0.58 MW

 SORT1 READ       24532. AND WROTE        4125. INTEGRALS IN      1 RECORDS. CPU TIME:     0.00 SEC, REAL TIME:     0.00 SEC
 SORT2 READ        4125. AND WROTE       18145. INTEGRALS IN      1 RECORDS. CPU TIME:     0.00 SEC, REAL TIME:     0.01 SEC

 FILE SIZES:   FILE 1:    30.3 MBYTE,  FILE 4:     4.3 MBYTE,   TOTAL:     34.5 MBYTE

 OPERATOR DM      FOR CENTER  0  COORDINATES:    0.000000    0.000000    0.000000


 **********************************************************************************************************************************
 DATASETS  * FILE   NREC   LENGTH (MB)   RECORD NAMES
              1      19       28.65       500      610      700      900      950      970     1000      129      960     1100   
                                          VAR    BASINP    GEOM    SYMINP    ZMAT    AOBASIS   BASIS     P2S    ABASIS      S 
                                         1400     1410     1200     1210     1080     1600     1650     1300     1700   
                                           T        V       H0       H01     AOSYM     SMH    MOLCAS    ERIS     OPER   

 PROGRAMS   *        TOTAL       INT
 CPU TIMES  *         0.16      0.08
 REAL TIME  *         0.70 SEC
 DISK USED  *        33.25 MB
 **********************************************************************************************************************************


 Program * Restricted Hartree-Fock

 Orbital guess generated from atomic densities. Full valence occupancy:    6

 Initial occupancy:   5

 NELEC=   10   SYM=1   MS2= 0   THRE=1.0D-08   THRD=3.2D-06   THRG=3.2D-06  HFMA2=F  DIIS_START=2   DIIS_MAX=10   DIIS_INCORE=F

 Level shifts:    0.00 (CLOSED)    0.00 (OPEN)    0.30 (GAP_MIN)

 ITER           ETOT              DE          GRAD        DDIFF     DIIS  NEXP   TIME(IT)  TIME(TOT)  DIAG
   1      -99.99290651     -99.99290651     0.00D+00     0.32D+00     0     0       0.00      0.00    start
   2     -100.01446570      -0.02155919     0.22D-01     0.50D-01     1     0       0.00      0.00    diag
   3     -100.01929981      -0.00483411     0.11D-01     0.14D-01     2     0       0.00      0.00    diag
   4     -100.01945088      -0.00015107     0.13D-02     0.28D-02     3     0       0.00      0.00    diag
   5     -100.01946805      -0.00001717     0.40D-03     0.97D-03     4     0       0.00      0.00    diag
   6     -100.01946876      -0.00000072     0.70D-04     0.18D-03     5     0       0.00      0.00    diag
   7     -100.01946877      -0.00000001     0.78D-05     0.24D-04     6     0       0.00      0.00    diag
   8     -100.01946877      -0.00000000     0.56D-06     0.21D-05     7     0       0.00      0.00    fixocc
   9     -100.01946877      -0.00000000     0.54D-07     0.11D-06     0     0       0.00      0.00    diag

 Final occupancy:   5

 !RHF STATE 1.1 Energy               -100.019468772841
  RHF One-electron energy            -150.708491829514
  RHF Two-electron energy              45.486175929600
  RHF Kinetic energy                  100.029191226115
  RHF Nuclear energy                    5.202847127073
  RHF Virial quotient                  -0.999902803840

 !RHF STATE 1.1 Dipole moment          -0.00000000    -0.00000000    -0.76574794
 Dipole moment /Debye                  -0.00000000    -0.00000000    -1.94633712

 Orbital energies:

           1.1          2.1          3.1          4.1          5.1          6.1          7.1
    -26.278099    -1.584027    -0.747843    -0.629051    -0.629051     0.184183     0.811652


 HOMO      5.1    -0.629051 =     -17.1173eV
 LUMO      6.1     0.184183 =       5.0119eV
 LUMO-HOMO         0.813234 =      22.1292eV

 Orbitals saved in record  2100.2


 **********************************************************************************************************************************
 DATASETS  * FILE   NREC   LENGTH (MB)   RECORD NAMES
              1      19       28.65       500      610      700      900      950      970     1000      129      960     1100   
                                          VAR    BASINP    GEOM    SYMINP    ZMAT    AOBASIS   BASIS     P2S    ABASIS      S 
                                         1400     1410     1200     1210     1080     1600     1650     1300     1700   
                                           T        V       H0       H01     AOSYM     SMH    MOLCAS    ERIS     OPER   

              2       4        0.40       700     1000      520     2100   
                                         GEOM     BASIS   MCVARS     RHF  

 PROGRAMS   *        TOTAL    HF-SCF       INT
 CPU TIMES  *         0.17      0.01      0.08
 REAL TIME  *         0.81 SEC
 DISK USED  *        33.25 MB
 **********************************************************************************************************************************

 Dump information in style XML to xml output                                                                      

 Orbitals will not be exported.

 **********************************************************************************************************************************

 HF/cc-pVDZ energy=   -100.019468772841

          HF-SCF
   -100.01946877
 **********************************************************************************************************************************
 Molpro calculation terminated
