
 Working directory              : /var/folders/2v/xbgp75_9785319ghcgb4zr4r0000gp/T//molpro.qz8iHN6jrq/
 Global scratch directory       : /var/folders/2v/xbgp75_9785319ghcgb4zr4r0000gp/T//molpro.qz8iHN6jrq/
 Wavefunction directory         : /Users/sacpjk/wfu/
 Main file repository           : /var/folders/2v/xbgp75_9785319ghcgb4zr4r0000gp/T//molpro.qz8iHN6jrq/

 id        : peterk

 Nodes                        nprocs
 Cardiff-University-G34YLXT77Y    1
 GA implementation: MPI file
 GA implementation (serial work in mppx): MPI file

 Using customized tuning parameters: mindgm=1; mindgv=20; mindgc=4; mindgr=1; noblas=0; minvec=7
 default implementation of scratch files=df  


 Variables initialized (1032), CPU time= 0.00 sec
 
 symmetry,nosym
 
 
 geometry={
            7
     F          2.13770264      0.08258780     -0.00019942
     C          0.37794222      0.10635278      0.00019758
     H          0.32799218      1.17531485     -0.01182043
     H          0.32424814     -0.43224626     -0.92301475
     H          0.32457115     -0.41169619      0.93505886
     O         -1.60571838      0.19903310     -0.00018942
     H         -1.88673796     -0.71934608     -0.00003242
 }
 basis=cc-pVTZ
 
 charge=-1
 
 hf; ccsd(t)
 
 
 
 {put,xml;noorbitals,nobasis}
 Commands initialized (841), CPU time= 0.01 sec, 704 directives.
 Default parameters read. Elapsed time= 1.02 sec

 Checking input...
 Passed
1


                                         ***  PROGRAM SYSTEM MOLPRO  ***
                                       Copyright, TTI GmbH Stuttgart, 2015
                                    Version 2023.1 linked Tue Jun  6 09:54:11 2023


 **********************************************************************************************************************************
 LABEL *                                                                                                                                                                 
  64 bit serial version                                                                  DATE: 09-Jun-23          TIME: 15:40:06  
 **********************************************************************************************************************************

 SHA1:             8ebb0dd001088a5c915591db1a321413035db0b1
 **********************************************************************************************************************************

 Memory per process:       805 MW
 Total memory per node:   1074 MW
 Total GA space:           268 MW

 GA preallocation disabled
 GA check enabled

 Variable memory set to 805.3 MW

 ZSYMEL=NOSYM


 Geometry recognized as XYZ

 SETTING BASIS          =    CC-PVTZ
 SETTING CHARGE         =        -1.00000000                                  


 Recomputing integrals since basis changed


 Using spherical harmonics

 Library entry F      S cc-pVTZ              selected for orbital group  1
 Library entry F      P cc-pVTZ              selected for orbital group  1
 Library entry F      D cc-pVTZ              selected for orbital group  1
 Library entry F      F cc-pVTZ              selected for orbital group  1
 Library entry C      S cc-pVTZ              selected for orbital group  2
 Library entry C      P cc-pVTZ              selected for orbital group  2
 Library entry C      D cc-pVTZ              selected for orbital group  2
 Library entry C      F cc-pVTZ              selected for orbital group  2
 Library entry H      S cc-pVTZ              selected for orbital group  3
 Library entry H      P cc-pVTZ              selected for orbital group  3
 Library entry H      D cc-pVTZ              selected for orbital group  3
 Library entry O      S cc-pVTZ              selected for orbital group  4
 Library entry O      P cc-pVTZ              selected for orbital group  4
 Library entry O      D cc-pVTZ              selected for orbital group  4
 Library entry O      F cc-pVTZ              selected for orbital group  4


 PROGRAM * SEWARD (Integral evaluation for generally contracted gaussian basis sets)     Author: Roland Lindh, 1990

 Geometry written to block  1 of record 700


 Point group  C1  



 ATOMIC COORDINATES

 NR  ATOM    CHARGE       X              Y              Z

   1  F       9.00    4.039672525    0.156068323   -0.000376849
   2  C       6.00    0.714207287    0.200977627    0.000373372
   3  H       1.00    0.619815391    2.221023177   -0.022337375
   4  H       1.00    0.612740181   -0.816827050   -1.744245086
   5  H       1.00    0.613350581   -0.777993046    1.767005156
   6  O       8.00   -3.034367971    0.376118049   -0.000357952
   7  H       1.00   -3.565418013   -1.359367080   -0.000061265

 Bond lengths in Bohr (Angstrom)

 1-2  3.325768552  2-3  2.022377223  2-4  2.022353950  2-5  2.022261979  2-6  3.752664543
     ( 1.759920927)     ( 1.070195938)     ( 1.070183623)     ( 1.070134954)     ( 1.985824556)

 6-7  1.814916766
     ( 0.960412592)

 Bond angles

  1-2-3   93.44869885   1-2-4   92.47466509   1-2-5   92.49480240   1-2-6  178.09854057

  2-6-7  104.33883428   3-2-4  119.38447735   3-2-5  119.40772142   3-2-6   84.64984361

  4-2-5  120.49624797   4-2-6   88.46441585   5-2-6   88.44965287

 NUCLEAR CHARGE:                   27
 NUMBER OF PRIMITIVE AOS:         209
 NUMBER OF SYMMETRY AOS:          190
 NUMBER OF CONTRACTIONS:          146   (  146A   )
 NUMBER OF INNER CORE ORBITALS:     0   (    0A   )
 NUMBER OF OUTER CORE ORBITALS:     3   (    3A   )
 NUMBER OF VALENCE ORBITALS:       16   (   16A   )


 NUCLEAR REPULSION ENERGY   69.00549297


 Eigenvalues of metric

         1 0.117E-02 0.171E-02 0.180E-02 0.231E-02 0.303E-02 0.617E-02 0.731E-02 0.910E-02


 Contracted 2-electron integrals neglected if value below      1.0D-11
 AO integral compression algorithm  1   Integral accuracy      1.0D-11

     210.239 MB (compressed) written to integral file ( 40.9%)


 NUMBER OF SORTED TWO-ELECTRON INTEGRALS:   57582546.     BUFFER LENGTH:  32768
 NUMBER OF SEGMENTS:   4  SEGMENT LENGTH:   15999503      RECORD LENGTH: 524288

 Memory used in sort:      16.56 MW

 SORT1 READ    64202411. AND WROTE    49303367. INTEGRALS IN    143 RECORDS. CPU TIME:     0.43 SEC, REAL TIME:     0.57 SEC
 SORT2 READ    49303367. AND WROTE    57582546. INTEGRALS IN    802 RECORDS. CPU TIME:     0.47 SEC, REAL TIME:     0.57 SEC

 FILE SIZES:   FILE 1:   241.1 MBYTE,  FILE 4:   599.9 MBYTE,   TOTAL:    841.0 MBYTE

 OPERATOR DM      FOR CENTER  0  COORDINATES:    0.000000    0.000000    0.000000


 **********************************************************************************************************************************
 DATASETS  * FILE   NREC   LENGTH (MB)   RECORD NAMES
              1      19      205.12       500      610      700      900      950      970     1000      129      960     1100   
                                          VAR    BASINP    GEOM    SYMINP    ZMAT    AOBASIS   BASIS     P2S    ABASIS      S 
                                         1400     1410     1200     1210     1080     1600     1650     1300     1700   
                                           T        V       H0       H01     AOSYM     SMH    MOLCAS    ERIS     OPER   

 PROGRAMS   *        TOTAL       INT
 CPU TIMES  *         2.42      2.31
 REAL TIME  *         5.74 SEC
 DISK USED  *       802.48 MB
 **********************************************************************************************************************************


 Program * Restricted Hartree-Fock

 Orbital guess generated from atomic densities. Full valence occupancy:   19

 Initial occupancy:  14

 NELEC=   28   SYM=1   MS2= 0   THRE=1.0D-08   THRD=3.2D-06   THRG=3.2D-06  HFMA2=F  DIIS_START=2   DIIS_MAX=10   DIIS_INCORE=F

 Level shifts:    0.00 (CLOSED)    0.00 (OPEN)    0.30 (GAP_MIN)

 ITER           ETOT              DE          GRAD        DDIFF     DIIS  NEXP   TIME(IT)  TIME(TOT)  DIAG
   1     -214.35648132    -214.35648132     0.00D+00     0.70D-01     0     0       0.27      0.53    start
   2     -214.42420989      -0.06772857     0.92D-02     0.13D-01     1     0       0.26      0.79    diag
   3     -214.47771335      -0.05350346     0.69D-02     0.49D-02     2     0       0.28      1.07    diag
   4     -214.47859163      -0.00087829     0.52D-03     0.83D-03     3     0       0.27      1.34    diag
   5     -214.47872378      -0.00013215     0.23D-03     0.27D-03     4     0       0.27      1.61    diag
   6     -214.47875536      -0.00003158     0.97D-04     0.14D-03     5     0       0.26      1.87    diag
   7     -214.47875991      -0.00000455     0.30D-04     0.64D-04     6     0       0.27      2.14    diag
   8     -214.47876030      -0.00000040     0.94D-05     0.20D-04     7     0       0.28      2.42    fixocc
   9     -214.47876032      -0.00000002     0.20D-05     0.50D-05     8     0       0.27      2.69    diag
  10     -214.47876032      -0.00000000     0.50D-06     0.14D-05     9     0       0.27      2.96    diag/orth
  11     -214.47876032      -0.00000000     0.13D-06     0.18D-06     0     0       0.27      3.23    diag

 Final occupancy:  14

 !RHF STATE 1.1 Energy               -214.478760321880
  RHF One-electron energy            -441.795690394533
  RHF Two-electron energy             158.311437100541
  RHF Kinetic energy                  214.512566846206
  RHF Nuclear energy                   69.005492972112
  RHF Virial quotient                  -0.999842403059

 !RHF STATE 1.1 Dipole moment          -0.32663148    -0.70305105     0.00060006
 Dipole moment /Debye                  -0.83021441    -1.78697753     0.00152520

 Orbital energies:

           1.1          2.1          3.1          4.1          5.1          6.1          7.1          8.1          9.1         10.1
    -25.936410   -20.228069   -11.103049    -1.214058    -0.980637    -0.723106    -0.423487    -0.422985    -0.338160    -0.304966

          11.1         12.1         13.1         14.1         15.1         16.1
     -0.293406    -0.282215    -0.177123    -0.158736     0.321299     0.373543


 HOMO     14.1    -0.158736 =      -4.3194eV
 LUMO     15.1     0.321299 =       8.7430eV
 LUMO-HOMO         0.480035 =      13.0624eV

 Orbitals saved in record  2100.2


 **********************************************************************************************************************************
 DATASETS  * FILE   NREC   LENGTH (MB)   RECORD NAMES
              1      19      205.12       500      610      700      900      950      970     1000      129      960     1100   
                                          VAR    BASINP    GEOM    SYMINP    ZMAT    AOBASIS   BASIS     P2S    ABASIS      S 
                                         1400     1410     1200     1210     1080     1600     1650     1300     1700   
                                           T        V       H0       H01     AOSYM     SMH    MOLCAS    ERIS     OPER   

              2       4        0.82       700     1000      520     2100   
                                         GEOM     BASIS   MCVARS     RHF  

 PROGRAMS   *        TOTAL    HF-SCF       INT
 CPU TIMES  *         5.66      3.25      2.31
 REAL TIME  *         9.65 SEC
 DISK USED  *       802.48 MB
 **********************************************************************************************************************************


 PROGRAM * CCSD (Closed-shell coupled cluster)     Authors: C. Hampel, H.-J. Werner, 1991, M. Deegan, P.J. Knowles, 1992


 Convergence thresholds:  THRVAR = 1.00D-08  THRDEN = 1.00D-06

 CCSD(T)     terms to be evaluated (factor= 1.000)


 Number of core orbitals:           3 (   3 )
 Number of closed-shell orbitals:  11 (  11 )
 Number of external orbitals:     132 ( 132 )

 Molecular orbitals read from record     2100.2  Type=RHF/CANONICAL  

 Number of N-1 electron functions:              11
 Number of N-2 electron functions:              66
 Number of singly external CSFs:              1452
 Number of doubly external CSFs:           1054878
 Total number of CSFs:                     1056331

 Length of J-op  integral file:               0.00 MB
 Length of K-op  integral file:               1.53 MB
 Length of 3-ext integral record:             0.00 MB

 Memory could be reduced to 33.93 Mwords without degradation in triples

 Integral transformation finished. Total CPU:   1.34 sec, npass=  1  Memory used:  21.61 MW

 Reference energy:                   -214.47876032

 MP2 singlet pair energy:              -0.45422443
 MP2 triplet pair energy:              -0.26335387
 MP2 correlation energy:               -0.71757831
 MP2 total energy:                   -215.19633863

 SCS-MP2 correlation energy:           -0.70893395   (PS=  1.200000  PT=  0.333333)
 SCS-MP2 total energy:               -215.18769427

 ITER.      SQ.NORM     CORR.ENERGY   TOTAL ENERGY   ENERGY CHANGE        DEN1      VAR(S)    VAR(P)  DIIS     TIME  TIME/IT
   1      1.17673801    -0.73100507  -215.20976539    -0.01342676     0.00738736  0.59D-02  0.36D-02  1  1     9.00     2.13
   2      1.19018634    -0.73086920  -215.20962952     0.00013587    -0.01620784  0.97D-04  0.65D-03  2  2    11.02     2.26
   3      1.19690726    -0.73138417  -215.21014449    -0.00051497    -0.00307550  0.19D-03  0.35D-04  3  3    13.06     2.27
   4      1.20011525    -0.73130607  -215.21006639     0.00007811    -0.00117242  0.32D-04  0.71D-05  4  4    15.15     2.31
   5      1.20216800    -0.73125515  -215.21001547     0.00005092    -0.00050754  0.37D-05  0.11D-05  5  5    17.32     2.39
   6      1.20274632    -0.73123792  -215.20999825     0.00001722    -0.00004835  0.62D-06  0.17D-06  6  6    19.47     2.40
   7      1.20294127    -0.73122578  -215.20998610     0.00001214    -0.00001904  0.90D-07  0.31D-07  6  1    21.46     2.40
   8      1.20297856    -0.73122556  -215.20998588     0.00000022    -0.00000722  0.22D-07  0.62D-08  6  2    23.50     2.39
   9      1.20298473    -0.73122628  -215.20998660    -0.00000072     0.00000384  0.49D-08  0.12D-08  6  4    25.50     2.38

 Norm of t1 vector:      0.11337897      S-energy:    -0.00000083      T1 diagnostic:  0.01709252
                                                                       D1 diagnostic:  0.07146432
                                                                       D2 diagnostic:  0.14950720 (external, symmetry=1)


 Total CPU time for triples:     24.15 sec


 RESULTS
 =======

  Reference energy                   -214.478760321880
  CCSD singlet pair energy             -0.496741661176
  CCSD triplet pair energy             -0.234483784476
  CCSD correlation energy              -0.731226276736

  Triples (T) contribution             -0.025867356655
  Total correlation energy             -0.757093633391

  CCSD total energy                  -215.209986598616
  CCSD[T] energy                     -215.237808280313
  CCSD-T energy                      -215.235061963942
 !CCSD(T) total energy               -215.235853955271

 Timing summary (sec):

 STEP                 CPU(USER)    SYS     CPU(TOT)    WALL
 Transformation          1.40      0.15      1.55      1.76
 CCSD iterations        24.14      1.02     25.16     21.60
 Triples                24.15      1.39     25.54     27.64

 Program statistics:

 Available memory in ccsd:               805305870
 Min. memory needed in ccsd:               2884166
 Max. memory used in ccsd:                 3801126
 Max. memory used in cckext:               3021045 ( 9 integral passes)



 **********************************************************************************************************************************
 DATASETS  * FILE   NREC   LENGTH (MB)   RECORD NAMES
              1      20      318.83       500      610      700      900      950      970     1000      129      960     1100   
                                          VAR    BASINP    GEOM    SYMINP    ZMAT    AOBASIS   BASIS     P2S    ABASIS      S 
                                         1400     1410     1200     1210     1080     1600     1650     1300     1700     1380   
                                           T        V       H0       H01     AOSYM     SMH    MOLCAS    ERIS     OPER     JKOP   

              2       4        0.82       700     1000      520     2100   
                                         GEOM     BASIS   MCVARS     RHF  

 PROGRAMS   *        TOTAL   CCSD(T)    HF-SCF       INT
 CPU TIMES  *        49.60     43.94      3.25      2.31
 REAL TIME  *        60.87 SEC
 DISK USED  *       802.48 MB
 **********************************************************************************************************************************

 Dump information in style XML to xml output                                                                      

 Orbitals will not be exported.

 **********************************************************************************************************************************

 CCSD(T)/cc-pVTZ energy=   -215.235853955271

         CCSD(T)          HF-SCF
   -215.23585396   -214.47876032
 **********************************************************************************************************************************
 Molpro calculation terminated
