
 Working directory              : /var/folders/2v/xbgp75_9785319ghcgb4zr4r0000gp/T//molpro.nbK2PLv5de/
 Global scratch directory       : /var/folders/2v/xbgp75_9785319ghcgb4zr4r0000gp/T//molpro.nbK2PLv5de/
 Wavefunction directory         : /Users/sacpjk/wfu/
 Main file repository           : /var/folders/2v/xbgp75_9785319ghcgb4zr4r0000gp/T//molpro.nbK2PLv5de/

 id        : peterk

 Nodes                        nprocs
 Cardiff-University-G34YLXT77Y    1
 GA implementation: MPI file
 GA implementation (serial work in mppx): MPI file

 Using customized tuning parameters: mindgm=1; mindgv=20; mindgc=4; mindgr=1; noblas=0; minvec=7
 default implementation of scratch files=df  


 Variables initialized (1032), CPU time= 0.00 sec
 
 symmetry,nosym
 
 
 geometry={
           12
     N         -0.79328369     -1.37400766     -0.32036436
     P         -1.76898046      0.00000000      0.03727417
     N         -0.79328369      1.37400766     -0.32036436
     P          0.88449023      1.53198202      0.03727417
     N          1.58656739      0.00000000     -0.32036436
     P          0.88449023     -1.53198202      0.03727417
     H         -1.08668589     -1.88219517     -1.14115553
     H         -1.47492030      0.00000000      1.42424573
     H         -1.08668589      1.88219517     -1.14115553
     H          0.73746015      1.27731845      1.42424573
     H          2.17337177      0.00000000     -1.14115553
     H          0.73746015     -1.27731845      1.42424573
 }
 basis=cc-pVTZ
 
 
 
 hf; hf; papt; mp2
 
 
 
 {put,xml;noorbitals,nobasis}
 Commands initialized (841), CPU time= 0.00 sec, 704 directives.
 Default parameters read. Elapsed time= 0.53 sec

 Checking input...
 Passed
1


                                         ***  PROGRAM SYSTEM MOLPRO  ***
                                       Copyright, TTI GmbH Stuttgart, 2015
                                    Version 2023.1 linked Tue Jun  6 09:54:11 2023


 **********************************************************************************************************************************
 LABEL *                                                                                                                                                                 
  64 bit serial version                                                                  DATE: 13-Jun-23          TIME: 06:15:46  
 **********************************************************************************************************************************

 SHA1:             8ebb0dd001088a5c915591db1a321413035db0b1
 **********************************************************************************************************************************

 Memory per process:       393 MW
 Total memory per node:    524 MW
 Total GA space:           131 MW

 GA preallocation disabled
 GA check enabled

 Variable memory set to 393.2 MW

 ZSYMEL=NOSYM


 Geometry recognized as XYZ

 SETTING BASIS          =    CC-PVTZ


 Recomputing integrals since basis changed


 Using spherical harmonics

 Library entry N      S cc-pVTZ              selected for orbital group  1
 Library entry N      P cc-pVTZ              selected for orbital group  1
 Library entry N      D cc-pVTZ              selected for orbital group  1
 Library entry N      F cc-pVTZ              selected for orbital group  1
 Library entry P      S cc-pVTZ              selected for orbital group  2
 Library entry P      P cc-pVTZ              selected for orbital group  2
 Library entry P      D cc-pVTZ              selected for orbital group  2
 Library entry P      F cc-pVTZ              selected for orbital group  2
 Library entry H      S cc-pVTZ              selected for orbital group  7
 Library entry H      P cc-pVTZ              selected for orbital group  7
 Library entry H      D cc-pVTZ              selected for orbital group  7


 PROGRAM * SEWARD (Integral evaluation for generally contracted gaussian basis sets)     Author: Roland Lindh, 1990

 Geometry written to block  1 of record 700


 Point group  C1  



 ATOMIC COORDINATES

 NR  ATOM    CHARGE       X              Y              Z

   1  N       7.00   -1.499088913   -2.596498171   -0.605400900
   2  P      15.00   -3.342888589    0.000000000    0.070437973
   3  N       7.00   -1.499088913    2.596498171   -0.605400900
   4  P      15.00    1.671444295    2.895026446    0.070437973
   5  N       7.00    2.998177845    0.000000000   -0.605400900
   6  P      15.00    1.671444295   -2.895026446    0.070437973
   7  H       1.00   -2.053538716   -3.556833384   -2.156471417
   8  H       1.00   -2.787195423    0.000000000    2.691434364
   9  H       1.00   -2.053538716    3.556833384   -2.156471417
  10  H       1.00    1.393597711    2.413782044    2.691434364
  11  H       1.00    4.107077412    0.000000000   -2.156471417
  12  H       1.00    1.393597711   -2.413782044    2.691434364

 Bond lengths in Bohr (Angstrom)

 1-2  3.255481251  1-6  3.255481245  1-7  1.906692963  2-3  3.255481251  2-8  2.679256796
     ( 1.722726489)     ( 1.722726485)     ( 1.008978464)     ( 1.722726489)     ( 1.417801638)

  3- 4  3.255481245   3- 9  1.906692963   4- 5  3.255481258   4-10  2.679256796   5- 6  3.255481258
       ( 1.722726485)       ( 1.008978464)       ( 1.722726492)       ( 1.417801639)       ( 1.722726492)

  5-11  1.906692948   6-12  2.679256796
       ( 1.008978456)       ( 1.417801639)

 Bond angles

  1- 2- 3  105.79875380   1- 2- 8   94.91157002   1- 6- 5  105.79875394   1- 6-12   94.91157003

  2-1-6  125.56521225   2-1-7  113.94737884   2-3-4  125.56521225   2-3-9  113.94737884

  3- 2- 8   94.91157002   3- 4- 5  105.79875394   3- 4-10   94.91157003   4- 3- 9  113.94737925

  4- 5- 6  125.56521191   4- 5-11  113.94737899   5- 4-10   94.91156998   5- 6-12   94.91156998

  6- 1- 7  113.94737925   6- 5-11  113.94737899

 NUCLEAR CHARGE:                   72
 NUMBER OF PRIMITIVE AOS:         435
 NUMBER OF SYMMETRY AOS:          399
 NUMBER OF CONTRACTIONS:          276   (  276A   )
 NUMBER OF INNER CORE ORBITALS:     3   (    3A   )
 NUMBER OF OUTER CORE ORBITALS:    15   (   15A   )
 NUMBER OF VALENCE ORBITALS:       30   (   30A   )


 NUCLEAR REPULSION ENERGY  478.78948540


 Eigenvalues of metric

         1 0.100E-02 0.100E-02 0.121E-02 0.173E-02 0.173E-02 0.190E-02 0.190E-02 0.198E-02


 Contracted 2-electron integrals neglected if value below      1.0D-11
 AO integral compression algorithm  1   Integral accuracy      1.0D-11

     2453.668 MB (compressed) written to integral file ( 39.1%)


 NUMBER OF SORTED TWO-ELECTRON INTEGRALS:  730632651.     BUFFER LENGTH:  32768
 NUMBER OF SEGMENTS:  46  SEGMENT LENGTH:   15999984      RECORD LENGTH: 262144

 Memory used in sort:      16.29 MW

 SORT1 READ   783544483. AND WROTE   636929596. INTEGRALS IN   3664 RECORDS. CPU TIME:     6.33 SEC, REAL TIME:     8.51 SEC
 SORT2 READ   636929596. AND WROTE   730632651. INTEGRALS IN   9360 RECORDS. CPU TIME:     4.57 SEC, REAL TIME:     6.00 SEC

 FILE SIZES:   FILE 1:  2486.7 MBYTE,  FILE 4:  7684.0 MBYTE,   TOTAL:  10170.7 MBYTE

 OPERATOR DM      FOR CENTER  0  COORDINATES:    0.000000    0.000000    0.000000


 **********************************************************************************************************************************
 DATASETS  * FILE   NREC   LENGTH (MB)   RECORD NAMES
              1      19     2183.03       500      610      700      900      950      970     1000      129      960     1100   
                                          VAR    BASINP    GEOM    SYMINP    ZMAT    AOBASIS   BASIS     P2S    ABASIS      S 
                                         1400     1410     1200     1210     1080     1600     1650     1300     1700   
                                           T        V       H0       H01     AOSYM     SMH    MOLCAS    ERIS     OPER   

 PROGRAMS   *        TOTAL       INT
 CPU TIMES  *        31.13     31.03
 REAL TIME  *        38.82 SEC
 DISK USED  *         9.47 GB
 **********************************************************************************************************************************


 Program * Restricted Hartree-Fock

 Orbital guess generated from atomic densities. Full valence occupancy:   48

 Initial occupancy:  36

 NELEC=   72   SYM=1   MS2= 0   THRE=1.0D-08   THRD=3.2D-06   THRG=3.2D-06  HFMA2=F  DIIS_START=2   DIIS_MAX=10   DIIS_INCORE=F

 Level shifts:    0.00 (CLOSED)    0.00 (OPEN)    0.30 (GAP_MIN)

 ITER           ETOT              DE          GRAD        DDIFF     DIIS  NEXP   TIME(IT)  TIME(TOT)  DIAG
   1    -1189.13943486   -1189.13943486     0.00D+00     0.57D-01     0     0       3.40      6.60    start
   2    -1189.20912239      -0.06968753     0.25D-02     0.40D-02     1     0       3.44     10.04    diag
   3    -1189.21719833      -0.00807594     0.89D-03     0.12D-02     2     0       3.54     13.58    diag
   4    -1189.21885226      -0.00165394     0.38D-03     0.52D-03     3     0       3.50     17.08    diag
   5    -1189.21893648      -0.00008422     0.70D-04     0.11D-03     4     0       3.76     20.84    diag
   6    -1189.21894506      -0.00000858     0.22D-04     0.36D-04     5     0       3.64     24.48    diag
   7    -1189.21894552      -0.00000046     0.40D-05     0.10D-04     6     0       3.66     28.14    diag
   8    -1189.21894555      -0.00000003     0.11D-05     0.23D-05     7     0       3.74     31.88    fixocc
   9    -1189.21894556      -0.00000000     0.35D-06     0.91D-06     8     0       3.53     35.41    diag
  10    -1189.21894556      -0.00000000     0.13D-06     0.21D-06     0     0       3.55     38.96    diag/orth

 Final occupancy:  36

 !RHF STATE 1.1 Energy              -1189.218945559027
  RHF One-electron energy           -2596.322138383541
  RHF Two-electron energy             928.313707425057
  RHF Kinetic energy                 1188.777627645021
  RHF Nuclear energy                  478.789485399457
  RHF Virial quotient                  -1.000371236726

 !RHF STATE 1.1 Dipole moment           0.00000001     0.00000000    -0.53927071
 Dipole moment /Debye                   0.00000003     0.00000000    -1.37068943

 Orbital energies:

           1.1          2.1          3.1          4.1          5.1          6.1          7.1          8.1          9.1         10.1
    -79.983420   -79.983420   -79.983420   -15.556374   -15.556374   -15.556357    -7.518237    -7.518237    -7.518227    -5.411946

          11.1         12.1         13.1         14.1         15.1         16.1         17.1         18.1         19.1         20.1
     -5.411945    -5.411945    -5.411627    -5.411621    -5.411621    -5.411128    -5.411118    -5.411118    -1.214619    -1.150167

          21.1         22.1         23.1         24.1         25.1         26.1         27.1         28.1         29.1         30.1
     -1.150167    -0.835708    -0.835708    -0.789661    -0.638179    -0.638179    -0.607767    -0.606207    -0.539317    -0.539317

          31.1         32.1         33.1         34.1         35.1         36.1         37.1         38.1
     -0.490168    -0.417114    -0.411294    -0.411294    -0.347180    -0.347180     0.123916     0.126196


 HOMO     36.1    -0.347180 =      -9.4472eV
 LUMO     37.1     0.123916 =       3.3719eV
 LUMO-HOMO         0.471095 =      12.8192eV

 Orbitals saved in record  2100.2


 **********************************************************************************************************************************
 DATASETS  * FILE   NREC   LENGTH (MB)   RECORD NAMES
              1      19     2183.03       500      610      700      900      950      970     1000      129      960     1100   
                                          VAR    BASINP    GEOM    SYMINP    ZMAT    AOBASIS   BASIS     P2S    ABASIS      S 
                                         1400     1410     1200     1210     1080     1600     1650     1300     1700   
                                           T        V       H0       H01     AOSYM     SMH    MOLCAS    ERIS     OPER   

              2       4        1.77       700     1000      520     2100   
                                         GEOM     BASIS   MCVARS     RHF  

 PROGRAMS   *        TOTAL    HF-SCF       INT
 CPU TIMES  *        70.09     38.95     31.03
 REAL TIME  *        84.13 SEC
 DISK USED  *         9.47 GB
 **********************************************************************************************************************************


 Program * Restricted Hartree-Fock

 Molecular orbitals read from record     2100.2  Type=RHF/CANONICAL  

 Initial occupancy:  36

 NELEC=   72   SYM=1   MS2= 0   THRE=1.0D-08   THRD=3.2D-06   THRG=3.2D-06  HFMA2=F  DIIS_START=2   DIIS_MAX=10   DIIS_INCORE=F

 Level shifts:    0.00 (CLOSED)    0.00 (OPEN)    0.30 (GAP_MIN)

 ITER           ETOT              DE          GRAD        DDIFF     DIIS  NEXP   TIME(IT)  TIME(TOT)  DIAG
   1    -1189.21894556   -1189.21894556     0.00D+00     0.58D-01     0     0       3.55      3.55    start
   2    -1189.21894556      -0.00000000     0.54D-07     0.11D-06     1     0       3.60      7.15    diag

 Final occupancy:  36

 !RHF STATE 1.1 Energy              -1189.218945559113
  RHF One-electron energy           -2596.322144210239
  RHF Two-electron energy             928.313713251669
  RHF Kinetic energy                 1188.777628609686
  RHF Nuclear energy                  478.789485399457
  RHF Virial quotient                  -1.000371235914

 !RHF STATE 1.1 Dipole moment           0.00000001     0.00000000    -0.53930071
 Dipole moment /Debye                   0.00000003     0.00000000    -1.37076567

 Orbital energies:

           1.1          2.1          3.1          4.1          5.1          6.1          7.1          8.1          9.1         10.1
    -79.983421   -79.983421   -79.983420   -15.556373   -15.556373   -15.556356    -7.518238    -7.518238    -7.518228    -5.411947

          11.1         12.1         13.1         14.1         15.1         16.1         17.1         18.1         19.1         20.1
     -5.411945    -5.411945    -5.411627    -5.411621    -5.411621    -5.411129    -5.411118    -5.411118    -1.214619    -1.150166

          21.1         22.1         23.1         24.1         25.1         26.1         27.1         28.1         29.1         30.1
     -1.150166    -0.835708    -0.835708    -0.789661    -0.638179    -0.638179    -0.607767    -0.606207    -0.539317    -0.539317

          31.1         32.1         33.1         34.1         35.1         36.1         37.1         38.1
     -0.490168    -0.417114    -0.411294    -0.411294    -0.347179    -0.347179     0.123916     0.126196


 HOMO     36.1    -0.347179 =      -9.4472eV
 LUMO     37.1     0.123916 =       3.3719eV
 LUMO-HOMO         0.471095 =      12.8192eV

 Orbitals saved in record  2101.2


 **********************************************************************************************************************************
 DATASETS  * FILE   NREC   LENGTH (MB)   RECORD NAMES
              1      19     2183.03       500      610      700      900      950      970     1000      129      960     1100   
                                          VAR    BASINP    GEOM    SYMINP    ZMAT    AOBASIS   BASIS     P2S    ABASIS      S 
                                         1400     1410     1200     1210     1080     1600     1650     1300     1700   
                                           T        V       H0       H01     AOSYM     SMH    MOLCAS    ERIS     OPER   

              2       5        3.91       700     1000      520     2100     2101   
                                         GEOM     BASIS   MCVARS     RHF      RHF  

 PROGRAMS   *        TOTAL    HF-SCF    HF-SCF       INT
 CPU TIMES  *        77.26      7.16     38.95     31.03
 REAL TIME  *        92.68 SEC
 DISK USED  *         9.47 GB
 **********************************************************************************************************************************


 PROGRAM * PAPT (Closed-shell)     Authors: C. Hampel, H.-J. Werner, 1991, P.J. Knowles, 2021


 Convergence thresholds:  THRVAR = 1.00D-08  THRDEN = 1.00D-06

 Number of core orbitals:          18 (  18 )
 Number of closed-shell orbitals:  18 (  18 )
 Number of external orbitals:     240 ( 240 )

 Molecular orbitals read from record     2101.2  Type=RHF/CANONICAL  

 Number of N-1 electron functions:              18
 Number of N-2 electron functions:             171
 Number of singly external CSFs:              4320
 Number of doubly external CSFs:           9333360
 Total number of CSFs:                     9337681

 Length of J-op  integral file:               0.00 MB
 Length of K-op  integral file:               5.29 MB

 Integral transformation finished. Total CPU:  11.60 sec, npass=  1  Memory used:  22.84 MW

 Reference energy:                  -1189.21894556

                        CORR.ENERGY   TOTAL ENERGY   ENERGY CHANGE
 MP2:                   -1.07189349 -1190.29083905    -1.07189349

 SCS-MP2 correlation energy:           -1.06155895   (PS=  1.200000  PT=  0.333333)
 SCS-MP2 total energy:              -1190.28050451
 Iteration:   1     0.2146D+00
 Iteration:   2     0.3031D+00
 Iteration:   3     0.5255D-01
 Iteration:   4     0.4339D-01
 Iteration:   5     0.4925D-01
 Iteration:   6     0.1079D-01
 Iteration:   7     0.3105D-01
 Iteration:   8     0.3635D-02
 Iteration:   9     0.2666D-02
 Iteration:  10     0.3080D-02
 Iteration:  11     0.4106D-03
 Iteration:  12     0.1126D-02
 Iteration:  13     0.1305D-03
 Iteration:  14     0.6777D-04
 PAPT operator written to  7000.1
 PAPT orbitals and eigenvalues written to  7000.2

 MP3(D):                -1.11527243 -1190.33421799    -0.04337894



 RESULTS
 =======

  Reference energy                  -1189.218945559115
  MP3 singlet pair energy              -0.751425771817
  MP3 triplet pair energy              -0.363846659296
  MP3 correlation energy               -1.115272431112

 !MP3 total energy                  -1190.334217990227

 Timing summary (sec):

 STEP                 CPU(USER)    SYS     CPU(TOT)    WALL
 Transformation         12.15      1.40     13.55     14.22
 CCSD iterations       142.14      1.51    143.65     70.39

 Program statistics:

 Available memory in ccsd:               393214668
 Min. memory needed in ccsd:              22706089
 Max. memory used in ccsd:                31188841
 Max. memory used in cckext:              26863856 ( 1 integral passes)



 **********************************************************************************************************************************
 DATASETS  * FILE   NREC   LENGTH (MB)   RECORD NAMES
              1      21     2333.74       500      610      700      900      950      970     1000      129      960     1100   
                                          VAR    BASINP    GEOM    SYMINP    ZMAT    AOBASIS   BASIS     P2S    ABASIS      S 
                                         1400     1410     1200     1210     1080     1600     1650     1300     1700     1380   
                                           T        V       H0       H01     AOSYM     SMH    MOLCAS    ERIS     OPER     JKOP   
                                         7000   
                                        PAPT AO    

              2       6        5.76       700     1000      520     2100     2101     7000   
                                         GEOM     BASIS   MCVARS     RHF      RHF     PAPT   

 PROGRAMS   *        TOTAL      PAPT    HF-SCF    HF-SCF       INT
 CPU TIMES  *       154.19     76.93      7.16     38.95     31.03
 REAL TIME  *       177.60 SEC
 DISK USED  *         9.47 GB
 **********************************************************************************************************************************


 PROGRAM * MP2 (Closed-shell)     Authors: C. Hampel, H.-J. Werner, 1991, M. Deegan, P.J. Knowles, 1992


 Convergence thresholds:  THRVAR = 1.00D-08  THRDEN = 1.00D-06

 Number of core orbitals:          18 (  18 )
 Number of closed-shell orbitals:  18 (  18 )
 Number of external orbitals:     240 ( 240 )

 Molecular orbitals read from record     7000.2  Type=PAPT/CANONICAL (state 1.1)

 Number of N-1 electron functions:              18
 Number of N-2 electron functions:             171
 Number of singly external CSFs:              4320
 Number of doubly external CSFs:           9333360
 Total number of CSFs:                     9337681

 Length of J-op  integral file:               0.00 MB
 Length of K-op  integral file:               5.29 MB

 Integral transformation finished. Total CPU:   9.95 sec, npass=  1  Memory used:  22.84 MW
 Orbital energies read from record       7000.2  Type=PAPT/CANONICAL (state 1.1)

 Memory needed for MP2:                      0.35 MW

 SCS-MP2 correlation energy:           -1.125866320339   (PS=  1.200000  PT=  0.333333)
 SCS-MP2 total energy:              -1190.344811879454


  Reference energy                  -1189.218945559115
  MP2 singlet pair energy              -0.731943870933
  MP2 triplet pair energy              -0.397821978032
  MP2 correlation energy               -1.129765848965

 !MP2 total energy                  -1190.348711408080


 **********************************************************************************************************************************
 DATASETS  * FILE   NREC   LENGTH (MB)   RECORD NAMES
              1      21     2333.74       500      610      700      900      950      970     1000      129      960     1100   
                                          VAR    BASINP    GEOM    SYMINP    ZMAT    AOBASIS   BASIS     P2S    ABASIS      S 
                                         1400     1410     1200     1210     1080     1600     1650     1300     1700     1380   
                                           T        V       H0       H01     AOSYM     SMH    MOLCAS    ERIS     OPER     JKOP   
                                         7000   
                                        PAPT AO    

              2       6        5.76       700     1000      520     2100     2101     7000   
                                         GEOM     BASIS   MCVARS     RHF      RHF     PAPT   

 PROGRAMS   *        TOTAL       MP2      PAPT    HF-SCF    HF-SCF       INT
 CPU TIMES  *       168.38     14.19     76.93      7.16     38.95     31.03
 REAL TIME  *       194.22 SEC
 DISK USED  *         9.47 GB
 **********************************************************************************************************************************

 Dump information in style XML to xml output                                                                      

 Orbitals will not be exported.

 **********************************************************************************************************************************

 MP2/cc-pVTZ energy=  -1190.348711408080

             MP2            PAPT          HF-SCF          HF-SCF
  -1190.34871141  -1190.33421799  -1189.21894556  -1189.21894556
 **********************************************************************************************************************************
 Molpro calculation terminated
