
 Working directory              : /var/folders/2v/xbgp75_9785319ghcgb4zr4r0000gp/T//molpro.r39Fzhx0tI/
 Global scratch directory       : /var/folders/2v/xbgp75_9785319ghcgb4zr4r0000gp/T//molpro.r39Fzhx0tI/
 Wavefunction directory         : /Users/sacpjk/wfu/
 Main file repository           : /var/folders/2v/xbgp75_9785319ghcgb4zr4r0000gp/T//molpro.r39Fzhx0tI/

 id        : peterk

 Nodes                        nprocs
 Cardiff-University-G34YLXT77Y    1
 GA implementation: MPI file
 GA implementation (serial work in mppx): MPI file

 Using customized tuning parameters: mindgm=1; mindgv=20; mindgc=4; mindgr=1; noblas=0; minvec=7
 default implementation of scratch files=df  


 Variables initialized (1032), CPU time= 0.00 sec
 
 symmetry,nosym
 
 
 geometry={
            8
     N          0.00000000      0.00000000     -0.36875516
     H          0.00000000      0.00000000     -1.38378716
     C          1.22577450      0.00000000      0.15784007
     H          1.33931529      0.00000000      1.22986735
     H          2.06809426      0.00000000     -0.51143626
     C         -1.22577450      0.00000000      0.15784007
     H         -1.33931529      0.00000000      1.22986735
     H         -2.06809426      0.00000000     -0.51143626
 }
 basis=cc-pVDZ
 
 
 
 hf; ccsd(t)
 
 
 
 {put,xml;noorbitals,nobasis}
 Commands initialized (841), CPU time= 0.00 sec, 704 directives.
 Default parameters read. Elapsed time= 1.11 sec

 Checking input...
 Passed
1


                                         ***  PROGRAM SYSTEM MOLPRO  ***
                                       Copyright, TTI GmbH Stuttgart, 2015
                                    Version 2023.1 linked Tue Jun  6 09:54:11 2023


 **********************************************************************************************************************************
 LABEL *                                                                                                                                                                 
  64 bit serial version                                                                  DATE: 11-Jun-23          TIME: 23:22:42  
 **********************************************************************************************************************************

 SHA1:             8ebb0dd001088a5c915591db1a321413035db0b1
 **********************************************************************************************************************************

 Memory per process:       393 MW
 Total memory per node:    524 MW
 Total GA space:           131 MW

 GA preallocation disabled
 GA check enabled

 Variable memory set to 393.2 MW

 ZSYMEL=NOSYM


 Geometry recognized as XYZ

 SETTING BASIS          =    CC-PVDZ


 Recomputing integrals since basis changed


 Using spherical harmonics

 Library entry N      S cc-pVDZ              selected for orbital group  1
 Library entry N      P cc-pVDZ              selected for orbital group  1
 Library entry N      D cc-pVDZ              selected for orbital group  1
 Library entry H      S cc-pVDZ              selected for orbital group  2
 Library entry H      P cc-pVDZ              selected for orbital group  2
 Library entry C      S cc-pVDZ              selected for orbital group  3
 Library entry C      P cc-pVDZ              selected for orbital group  3
 Library entry C      D cc-pVDZ              selected for orbital group  3


 PROGRAM * SEWARD (Integral evaluation for generally contracted gaussian basis sets)     Author: Roland Lindh, 1990

 Geometry written to block  1 of record 700


 Point group  C1  



 ATOMIC COORDINATES

 NR  ATOM    CHARGE       X              Y              Z

   1  N       7.00    0.000000000    0.000000000   -0.696846259
   2  H       1.00    0.000000000    0.000000000   -2.614978747
   3  C       6.00    2.316378096    0.000000000    0.298274504
   4  H       1.00    2.530939093    0.000000000    2.324112461
   5  H       1.00    3.908131751    0.000000000   -0.966474462
   6  C       6.00   -2.316378096    0.000000000    0.298274504
   7  H       1.00   -2.530939093    0.000000000    2.324112461
   8  H       1.00   -3.908131751    0.000000000   -0.966474462

 Bond lengths in Bohr (Angstrom)

 1-2  1.918132488  1-3  2.521085642  1-6  2.521085642  3-4  2.037168587  3-5  2.033044428
     ( 1.015032000)     ( 1.334101069)     ( 1.334101069)     ( 1.078023191)     ( 1.075840780)

 6-7  2.037168587  6-8  2.033044428
     ( 1.078023191)     ( 1.075840780)

 Bond angles

  1-3-4  119.29424335   1-3-5  118.28217784   1-6-7  119.29424335   1-6-8  118.28217784

  2-1-3  113.24845886   2-1-6  113.24845886   3-1-6  133.50308228   4-3-5  122.42357881

  7-6-8  122.42357881

 NUCLEAR CHARGE:                   24
 NUMBER OF PRIMITIVE AOS:         116
 NUMBER OF SYMMETRY AOS:          113
 NUMBER OF CONTRACTIONS:           67   (   67A   )
 NUMBER OF INNER CORE ORBITALS:     0   (    0A   )
 NUMBER OF OUTER CORE ORBITALS:     3   (    3A   )
 NUMBER OF VALENCE ORBITALS:       17   (   17A   )


 NUCLEAR REPULSION ENERGY   73.05044046

 EXTRA SYMMETRY OF AOS IN SYMMETRY 1:   1 1 1 1 2 1 1 2 1 1   2 1 1 2 1 1 1 2 1 1   1 1 1 2 1 1 2 1 1 2   1 1 2 1 1 1 2 1 1 1
                                        1 2 1 1 1 1 1 2 1 1   2 1 1 2 1 1 2 1 1 1   2 1 1 1 1 2 1

 Eigenvalues of metric

         1 0.672E-02 0.790E-02 0.171E-01 0.180E-01 0.189E-01 0.285E-01 0.332E-01 0.352E-01


 Contracted 2-electron integrals neglected if value below      1.0D-11
 AO integral compression algorithm  1   Integral accuracy      1.0D-11

     7.864 MB (compressed) written to integral file ( 32.3%)


 NUMBER OF SORTED TWO-ELECTRON INTEGRALS:    2595781.     BUFFER LENGTH:  32768
 NUMBER OF SEGMENTS:   1  SEGMENT LENGTH:    2595781      RECORD LENGTH: 524288

 Memory used in sort:       3.15 MW

 SORT1 READ     3024651. AND WROTE     1342849. INTEGRALS IN      4 RECORDS. CPU TIME:     0.02 SEC, REAL TIME:     0.02 SEC
 SORT2 READ     1342849. AND WROTE     2595781. INTEGRALS IN     30 RECORDS. CPU TIME:     0.04 SEC, REAL TIME:     0.05 SEC

 FILE SIZES:   FILE 1:    38.1 MBYTE,  FILE 4:    16.8 MBYTE,   TOTAL:     55.0 MBYTE

 OPERATOR DM      FOR CENTER  0  COORDINATES:    0.000000    0.000000    0.000000


 **********************************************************************************************************************************
 DATASETS  * FILE   NREC   LENGTH (MB)   RECORD NAMES
              1      19       34.93       500      610      700      900      950      970     1000      129      960     1100   
                                          VAR    BASINP    GEOM    SYMINP    ZMAT    AOBASIS   BASIS     P2S    ABASIS      S 
                                         1400     1410     1200     1210     1080     1600     1650     1300     1700   
                                           T        V       H0       H01     AOSYM     SMH    MOLCAS    ERIS     OPER   

 PROGRAMS   *        TOTAL       INT
 CPU TIMES  *         0.41      0.32
 REAL TIME  *         5.54 SEC
 DISK USED  *        52.88 MB
 **********************************************************************************************************************************


 Program * Restricted Hartree-Fock

 Orbital guess generated from atomic densities. Full valence occupancy:   20

 Initial occupancy:  12

 NELEC=   24   SYM=1   MS2= 0   THRE=1.0D-08   THRD=3.2D-06   THRG=3.2D-06  HFMA2=F  DIIS_START=2   DIIS_MAX=10   DIIS_INCORE=F

 Level shifts:    0.00 (CLOSED)    0.00 (OPEN)    0.30 (GAP_MIN)

 ITER           ETOT              DE          GRAD        DDIFF     DIIS  NEXP   TIME(IT)  TIME(TOT)  DIAG
   1     -132.95604980    -132.95604980     0.00D+00     0.13D+00     0     0       0.01      0.02    start
   2     -132.98830973      -0.03225994     0.68D-02     0.14D-01     1     0       0.01      0.03    diag
   3     -132.99415746      -0.00584773     0.32D-02     0.50D-02     2     0       0.02      0.05    diag
   4     -132.99478268      -0.00062522     0.90D-03     0.16D-02     3     0       0.01      0.06    diag
   5     -132.99480694      -0.00002426     0.16D-03     0.32D-03     4     0       0.01      0.07    diag
   6     -132.99480908      -0.00000213     0.44D-04     0.95D-04     5     0       0.01      0.08    diag
   7     -132.99480927      -0.00000019     0.10D-04     0.27D-04     6     0       0.02      0.10    diag
   8     -132.99480929      -0.00000002     0.34D-05     0.92D-05     7     0       0.01      0.11    fixocc
   9     -132.99480929      -0.00000000     0.73D-06     0.24D-05     8     0       0.01      0.12    diag
  10     -132.99480929      -0.00000000     0.11D-06     0.25D-06     0     0       0.01      0.13    diag/orth

 Final occupancy:  12

 !RHF STATE 1.1 Energy               -132.994809287270
  RHF One-electron energy            -323.176648043510
  RHF Two-electron energy             117.131398296306
  RHF Kinetic energy                  132.743430487743
  RHF Nuclear energy                   73.050440459934
  RHF Virial quotient                  -1.001893719325

 !RHF STATE 1.1 Dipole moment           0.00000000    -0.00000000    -0.56876410
 Dipole moment /Debye                   0.00000000    -0.00000000    -1.44565415

 Orbital energies:

           1.1          2.1          3.1          4.1          5.1          6.1          7.1          8.1          9.1         10.1
    -15.677368   -11.230165   -11.230112    -1.292966    -0.965852    -0.833832    -0.710500    -0.649870    -0.556491    -0.542520

          11.1         12.1         13.1         14.1
     -0.536256    -0.230992     0.145674     0.166867


 HOMO     12.1    -0.230992 =      -6.2856eV
 LUMO     13.1     0.145674 =       3.9640eV
 LUMO-HOMO         0.376666 =      10.2496eV

 Orbitals saved in record  2100.2


 **********************************************************************************************************************************
 DATASETS  * FILE   NREC   LENGTH (MB)   RECORD NAMES
              1      19       34.93       500      610      700      900      950      970     1000      129      960     1100   
                                          VAR    BASINP    GEOM    SYMINP    ZMAT    AOBASIS   BASIS     P2S    ABASIS      S 
                                         1400     1410     1200     1210     1080     1600     1650     1300     1700   
                                           T        V       H0       H01     AOSYM     SMH    MOLCAS    ERIS     OPER   

              2       4        0.57       700     1000      520     2100   
                                         GEOM     BASIS   MCVARS     RHF  

 PROGRAMS   *        TOTAL    HF-SCF       INT
 CPU TIMES  *         0.54      0.13      0.32
 REAL TIME  *         6.69 SEC
 DISK USED  *        52.88 MB
 **********************************************************************************************************************************


 PROGRAM * CCSD (Closed-shell coupled cluster)     Authors: C. Hampel, H.-J. Werner, 1991, M. Deegan, P.J. Knowles, 1992


 Convergence thresholds:  THRVAR = 1.00D-08  THRDEN = 1.00D-06

 CCSD(T)     terms to be evaluated (factor= 1.000)


 Number of core orbitals:           3 (   3 )
 Number of closed-shell orbitals:   9 (   9 )
 Number of external orbitals:      55 (  55 )

 Molecular orbitals read from record     2100.2  Type=RHF/CANONICAL  

 Number of N-1 electron functions:               9
 Number of N-2 electron functions:              45
 Number of singly external CSFs:               495
 Number of doubly external CSFs:            122760
 Total number of CSFs:                      123256

 Length of J-op  integral file:               0.00 MB
 Length of K-op  integral file:               0.37 MB
 Length of 3-ext integral record:             0.00 MB

 Memory could be reduced to 2.33 Mwords without degradation in triples

 Integral transformation finished. Total CPU:   0.05 sec, npass=  1  Memory used:   2.00 MW

 Reference energy:                   -132.99480929

 MP2 singlet pair energy:              -0.29749602
 MP2 triplet pair energy:              -0.17097496
 MP2 correlation energy:               -0.46847098
 MP2 total energy:                   -133.46328027

 SCS-MP2 correlation energy:           -0.46337965   (PS=  1.200000  PT=  0.333333)
 SCS-MP2 total energy:               -133.45818893

 ITER.      SQ.NORM     CORR.ENERGY   TOTAL ENERGY   ENERGY CHANGE        DEN1      VAR(S)    VAR(P)  DIIS     TIME  TIME/IT
   1      1.18276807    -0.49267909  -133.48748838    -0.02420811    -0.00997732  0.24D-02  0.34D-02  1  1     0.85     0.27
   2      1.19980274    -0.49579210  -133.49060139    -0.00311302    -0.01381889  0.65D-04  0.59D-03  2  2     0.97     0.25
   3      1.20679614    -0.49605599  -133.49086527    -0.00026388    -0.00281642  0.50D-04  0.50D-04  3  3     1.10     0.22
   4      1.21035022    -0.49616183  -133.49097111    -0.00010584    -0.00083324  0.40D-05  0.88D-05  4  4     1.27     0.23
   5      1.21178822    -0.49617112  -133.49098041    -0.00000929    -0.00020932  0.88D-06  0.94D-06  5  5     1.37     0.25
   6      1.21219794    -0.49615997  -133.49096926     0.00001115    -0.00003595  0.40D-07  0.75D-07  6  6     1.53     0.26
   7      1.21226660    -0.49616112  -133.49097041    -0.00000115     0.00000034  0.13D-08  0.71D-08  6  2     1.63     0.25
   8      1.21227069    -0.49616106  -133.49097035     0.00000006     0.00000027  0.35D-09  0.63D-09  6  1     1.75     0.24
   9      1.21227390    -0.49616100  -133.49097029     0.00000006    -0.00000015  0.14D-10  0.75D-10  6  3     1.90     0.24

 Norm of t1 vector:      0.07707502      S-energy:     0.00000014      T1 diagnostic:  0.01284584
                                                                       D1 diagnostic:  0.03690406
                                                                       D2 diagnostic:  0.22830565 (external, symmetry=1)

 Doubles amplitudes (print threshold =  0.500E-01):

         I         J         SYM. A    SYM. B    A         B      T(IJ, AB)

         7         7         1         1         1         1     -0.06103675
         9         9         1         1         1         1     -0.16516883


 Total CPU time for triples:      0.60 sec


 RESULTS
 =======

  Reference energy                   -132.994809287270
  CCSD singlet pair energy             -0.345445964570
  CCSD triplet pair energy             -0.150715171689
  CCSD correlation energy              -0.496161000373

  Triples (T) contribution             -0.019708963448
  Total correlation energy             -0.515869963821

  CCSD total energy                  -133.490970287643
  CCSD[T] energy                     -133.511288401597
  CCSD-T energy                      -133.510496027326
 !CCSD(T) total energy               -133.510679251091

 Timing summary (sec):

 STEP                 CPU(USER)    SYS     CPU(TOT)    WALL
 Transformation          0.05      0.01      0.06      0.31
 CCSD iterations         1.85      0.09      1.94      2.50
 Triples                 0.60      0.04      0.64      0.66

 Program statistics:

 Available memory in ccsd:               393215664
 Min. memory needed in ccsd:                388739
 Max. memory used in ccsd:                  484958
 Max. memory used in cckext:                472553 ( 9 integral passes)



 **********************************************************************************************************************************
 DATASETS  * FILE   NREC   LENGTH (MB)   RECORD NAMES
              1      20       43.14       500      610      700      900      950      970     1000      129      960     1100   
                                          VAR    BASINP    GEOM    SYMINP    ZMAT    AOBASIS   BASIS     P2S    ABASIS      S 
                                         1400     1410     1200     1210     1080     1600     1650     1300     1700     1380   
                                           T        V       H0       H01     AOSYM     SMH    MOLCAS    ERIS     OPER     JKOP   

              2       4        0.57       700     1000      520     2100   
                                         GEOM     BASIS   MCVARS     RHF  

 PROGRAMS   *        TOTAL   CCSD(T)    HF-SCF       INT
 CPU TIMES  *         2.40      1.86      0.13      0.32
 REAL TIME  *        11.75 SEC
 DISK USED  *        65.23 MB
 **********************************************************************************************************************************

 Dump information in style XML to xml output                                                                      

 Orbitals will not be exported.

 **********************************************************************************************************************************

 CCSD(T)/cc-pVDZ energy=   -133.510679251091

         CCSD(T)          HF-SCF
   -133.51067925   -132.99480929
 **********************************************************************************************************************************
 Molpro calculation terminated
