
 Working directory              : /var/folders/2v/xbgp75_9785319ghcgb4zr4r0000gp/T//molpro.VbY0JJZkF7/
 Global scratch directory       : /var/folders/2v/xbgp75_9785319ghcgb4zr4r0000gp/T//molpro.VbY0JJZkF7/
 Wavefunction directory         : /Users/sacpjk/wfu/
 Main file repository           : /var/folders/2v/xbgp75_9785319ghcgb4zr4r0000gp/T//molpro.VbY0JJZkF7/

 id        : peterk

 Nodes                        nprocs
 Cardiff-University-G34YLXT77Y    1
 GA implementation: MPI file
 GA implementation (serial work in mppx): MPI file

 Using customized tuning parameters: mindgm=1; mindgv=20; mindgc=4; mindgr=1; noblas=0; minvec=7
 default implementation of scratch files=df  


 Variables initialized (1032), CPU time= 0.01 sec
 
 symmetry,nosym
 
 
 geometry={
           11
     C         -1.14801349     -0.57975568      0.03120696
     C         -1.08021984      0.78192529      0.02639005
     N          1.30543743      1.13121591      0.11743732
     N          1.57534155     -0.09591016      0.00445069
     C          1.06337833     -1.19481227      0.00478589
     H         -1.31347505     -1.11800370      0.95840071
     H         -1.34813898     -1.12998002     -0.87963506
     H         -1.11376040      1.35419025      0.94257550
     H         -1.16281172      1.34381802     -0.89587363
     H          1.77093124      1.66037919     -0.62483756
     H          1.45133094     -2.15306682      0.31509914
 }
 basis=cc-pVTZ
 
 
 
 hf; hf; papt; mp4
 
 
 
 {put,xml;noorbitals,nobasis}
 Commands initialized (841), CPU time= 0.00 sec, 704 directives.
 Default parameters read. Elapsed time= 1.56 sec

 Checking input...
 Passed
1


                                         ***  PROGRAM SYSTEM MOLPRO  ***
                                       Copyright, TTI GmbH Stuttgart, 2015
                                    Version 2023.1 linked Tue Jun  6 09:54:11 2023


 **********************************************************************************************************************************
 LABEL *                                                                                                                                                                 
  64 bit serial version                                                                  DATE: 11-Jun-23          TIME: 14:55:23  
 **********************************************************************************************************************************

 SHA1:             8ebb0dd001088a5c915591db1a321413035db0b1
 **********************************************************************************************************************************

 Memory per process:       393 MW
 Total memory per node:    524 MW
 Total GA space:           131 MW

 GA preallocation disabled
 GA check enabled

 Variable memory set to 393.2 MW

 ZSYMEL=NOSYM


 Geometry recognized as XYZ

 SETTING BASIS          =    CC-PVTZ


 Recomputing integrals since basis changed


 Using spherical harmonics

 Library entry C      S cc-pVTZ              selected for orbital group  1
 Library entry C      P cc-pVTZ              selected for orbital group  1
 Library entry C      D cc-pVTZ              selected for orbital group  1
 Library entry C      F cc-pVTZ              selected for orbital group  1
 Library entry N      S cc-pVTZ              selected for orbital group  2
 Library entry N      P cc-pVTZ              selected for orbital group  2
 Library entry N      D cc-pVTZ              selected for orbital group  2
 Library entry N      F cc-pVTZ              selected for orbital group  2
 Library entry H      S cc-pVTZ              selected for orbital group  4
 Library entry H      P cc-pVTZ              selected for orbital group  4
 Library entry H      D cc-pVTZ              selected for orbital group  4


 PROGRAM * SEWARD (Integral evaluation for generally contracted gaussian basis sets)     Author: Roland Lindh, 1990

 Geometry written to block  1 of record 700


 Point group  C1  



 ATOMIC COORDINATES

 NR  ATOM    CHARGE       X              Y              Z

   1  C       6.00   -2.169431083   -1.095579454    0.058972608
   2  C       6.00   -2.041319652    1.477624648    0.049869967
   3  N       7.00    2.466919216    2.137688258    0.221924372
   4  N       7.00    2.976964082   -0.181243935    0.008410585
   5  C       6.00    2.009493811   -2.257867961    0.009044021
   6  H       1.00   -2.482108116   -2.112720799    1.811114860
   7  H       1.00   -2.547613450   -2.135352764   -1.662269353
   8  H       1.00   -2.104702124    2.559048693    1.781209547
   9  H       1.00   -2.197395685    2.539448019   -1.692955803
  10  H       1.00    3.346575029    3.137661932   -1.180771861
  11  H       1.00    2.742617993   -4.068706618    0.595451077

 Bond lengths in Bohr (Angstrom)

 1-2  2.576407334  1-6  2.049962418  1-7  2.046173093  2-8  2.042310467  2-9  2.046770692
     ( 1.363376047)     ( 1.084793395)     ( 1.082788170)     ( 1.080744157)     ( 1.083104406)

  3- 4  2.383942201   3-10  1.934243630   4- 5  2.290931355   5-11  2.039725703
       ( 1.261527885)       ( 1.023557649)       ( 1.212308665)       ( 1.079376359)

 Bond angles

  1-2-8  121.62203767   1-2-9  121.15476259   2-1-6  120.40858136   2-1-7  120.91338229

  3- 4- 5  142.31262266   4- 3-10  109.91558835   4- 5-11  130.77046409   6- 1- 7  116.01874710

  8-2-9  116.40935928

 NUCLEAR CHARGE:                   38
 NUMBER OF PRIMITIVE AOS:         337
 NUMBER OF SYMMETRY AOS:          306
 NUMBER OF CONTRACTIONS:          234   (  234A   )
 NUMBER OF INNER CORE ORBITALS:     0   (    0A   )
 NUMBER OF OUTER CORE ORBITALS:     5   (    5A   )
 NUMBER OF VALENCE ORBITALS:       26   (   26A   )


 NUCLEAR REPULSION ENERGY  160.16494666


 Eigenvalues of metric

         1 0.369E-03 0.870E-03 0.924E-03 0.125E-02 0.133E-02 0.142E-02 0.145E-02 0.157E-02


 Contracted 2-electron integrals neglected if value below      1.0D-11
 AO integral compression algorithm  1   Integral accuracy      1.0D-11

     1346.109 MB (compressed) written to integral file ( 41.4%)


 NUMBER OF SORTED TWO-ELECTRON INTEGRALS:  378001260.     BUFFER LENGTH:  32768
 NUMBER OF SEGMENTS:  24  SEGMENT LENGTH:   15999762      RECORD LENGTH: 524288

 Memory used in sort:      16.56 MW

 SORT1 READ   406016940. AND WROTE   339133609. INTEGRALS IN    981 RECORDS. CPU TIME:     3.23 SEC, REAL TIME:     4.35 SEC
 SORT2 READ   339133609. AND WROTE   378001260. INTEGRALS IN   5135 RECORDS. CPU TIME:     2.47 SEC, REAL TIME:     3.56 SEC

 FILE SIZES:   FILE 1:  1378.3 MBYTE,  FILE 4:  4114.7 MBYTE,   TOTAL:   5493.0 MBYTE

 OPERATOR DM      FOR CENTER  0  COORDINATES:    0.000000    0.000000    0.000000


 **********************************************************************************************************************************
 DATASETS  * FILE   NREC   LENGTH (MB)   RECORD NAMES
              1      19     1204.12       500      610      700      900      950      970     1000      129      960     1100   
                                          VAR    BASINP    GEOM    SYMINP    ZMAT    AOBASIS   BASIS     P2S    ABASIS      S 
                                         1400     1410     1200     1210     1080     1600     1650     1300     1700   
                                           T        V       H0       H01     AOSYM     SMH    MOLCAS    ERIS     OPER   

 PROGRAMS   *        TOTAL       INT
 CPU TIMES  *        14.96     14.86
 REAL TIME  *        21.97 SEC
 DISK USED  *         5.12 GB
 **********************************************************************************************************************************


 Program * Restricted Hartree-Fock

 Orbital guess generated from atomic densities. Full valence occupancy:   31

 Initial occupancy:  19

 NELEC=   38   SYM=1   MS2= 0   THRE=1.0D-08   THRD=3.2D-06   THRG=3.2D-06  HFMA2=F  DIIS_START=2   DIIS_MAX=10   DIIS_INCORE=F

 Level shifts:    0.00 (CLOSED)    0.00 (OPEN)    0.30 (GAP_MIN)

 ITER           ETOT              DE          GRAD        DDIFF     DIIS  NEXP   TIME(IT)  TIME(TOT)  DIAG
   1     -225.79282088    -225.79282088     0.00D+00     0.49D-01     0     0       2.14      4.07    start
   2     -225.84541360      -0.05259272     0.37D-02     0.53D-02     1     0       2.12      6.19    diag
   3     -225.86693415      -0.02152055     0.24D-02     0.22D-02     2     0       2.13      8.32    diag
   4     -225.86953806      -0.00260391     0.63D-03     0.80D-03     3     0       2.19     10.51    diag
   5     -225.87022926      -0.00069120     0.31D-03     0.37D-03     4     0       2.16     12.67    diag
   6     -225.87050916      -0.00027989     0.13D-03     0.20D-03     5     0       2.13     14.80    diag
   7     -225.87068973      -0.00018058     0.80D-04     0.21D-03     6     0       2.11     16.91    diag
   8     -225.87076378      -0.00007405     0.48D-04     0.17D-03     7     0       2.10     19.01    fixocc
   9     -225.87077565      -0.00001188     0.18D-04     0.77D-04     8     0       2.14     21.15    diag
  10     -225.87077660      -0.00000094     0.72D-05     0.19D-04     9     0       2.18     23.33    diag/orth
  11     -225.87077677      -0.00000017     0.28D-05     0.79D-05     9     0       2.15     25.48    diag
  12     -225.87077682      -0.00000005     0.15D-05     0.45D-05     9     0       2.19     27.67    diag
  13     -225.87077683      -0.00000001     0.63D-06     0.22D-05     9     0       2.15     29.82    diag
  14     -225.87077684      -0.00000000     0.40D-06     0.13D-05     9     0       2.09     31.91    diag
  15     -225.87077684      -0.00000000     0.25D-06     0.43D-06     0     0       2.18     34.09    diag

 Final occupancy:  19

 !RHF STATE 1.1 Energy               -225.870776836602
  RHF One-electron energy            -622.556154459802
  RHF Two-electron energy             236.520430960297
  RHF Kinetic energy                  225.493929365342
  RHF Nuclear energy                  160.164946662903
  RHF Virial quotient                  -1.001671208943

 !RHF STATE 1.1 Dipole moment           0.31251565    -0.52200807    -0.25004041
 Dipole moment /Debye                   0.79433554    -1.32681217    -0.63553934

 Orbital energies:

           1.1          2.1          3.1          4.1          5.1          6.1          7.1          8.1          9.1         10.1
    -15.670264   -15.589769   -11.293115   -11.223567   -11.218985    -1.365068    -1.107368    -1.016183    -0.790349    -0.783082

          11.1         12.1         13.1         14.1         15.1         16.1         17.1         18.1         19.1         20.1
     -0.704085    -0.639304    -0.626052    -0.586764    -0.569741    -0.497920    -0.400541    -0.359006    -0.316470     0.101818

          21.1
      0.139590


 HOMO     19.1    -0.316470 =      -8.6116eV
 LUMO     20.1     0.101818 =       2.7706eV
 LUMO-HOMO         0.418288 =      11.3822eV

 Orbitals saved in record  2100.2


 **********************************************************************************************************************************
 DATASETS  * FILE   NREC   LENGTH (MB)   RECORD NAMES
              1      19     1204.12       500      610      700      900      950      970     1000      129      960     1100   
                                          VAR    BASINP    GEOM    SYMINP    ZMAT    AOBASIS   BASIS     P2S    ABASIS      S 
                                         1400     1410     1200     1210     1080     1600     1650     1300     1700   
                                           T        V       H0       H01     AOSYM     SMH    MOLCAS    ERIS     OPER   

              2       4        1.41       700     1000      520     2100   
                                         GEOM     BASIS   MCVARS     RHF  

 PROGRAMS   *        TOTAL    HF-SCF       INT
 CPU TIMES  *        49.05     34.09     14.86
 REAL TIME  *        60.66 SEC
 DISK USED  *         5.12 GB
 **********************************************************************************************************************************


 Program * Restricted Hartree-Fock

 Molecular orbitals read from record     2100.2  Type=RHF/CANONICAL  

 Initial occupancy:  19

 NELEC=   38   SYM=1   MS2= 0   THRE=1.0D-08   THRD=3.2D-06   THRG=3.2D-06  HFMA2=F  DIIS_START=2   DIIS_MAX=10   DIIS_INCORE=F

 Level shifts:    0.00 (CLOSED)    0.00 (OPEN)    0.30 (GAP_MIN)

 ITER           ETOT              DE          GRAD        DDIFF     DIIS  NEXP   TIME(IT)  TIME(TOT)  DIAG
   1     -225.87077684    -225.87077684     0.00D+00     0.51D-01     0     0       2.07      2.07    start
   2     -225.87077684      -0.00000000     0.19D-06     0.33D-06     1     0       2.11      4.18    diag

 Final occupancy:  19

 !RHF STATE 1.1 Energy               -225.870776837156
  RHF One-electron energy            -622.556195147916
  RHF Two-electron energy             236.520471647857
  RHF Kinetic energy                  225.493956662389
  RHF Nuclear energy                  160.164946662903
  RHF Virial quotient                  -1.001671087688

 !RHF STATE 1.1 Dipole moment           0.31249227    -0.52204366    -0.25004902
 Dipole moment /Debye                   0.79427611    -1.32690263    -0.63556121

 Orbital energies:

           1.1          2.1          3.1          4.1          5.1          6.1          7.1          8.1          9.1         10.1
    -15.670281   -15.589773   -11.293110   -11.223561   -11.218980    -1.365073    -1.107372    -1.016179    -0.790348    -0.783082

          11.1         12.1         13.1         14.1         15.1         16.1         17.1         18.1         19.1         20.1
     -0.704087    -0.639307    -0.626051    -0.586768    -0.569738    -0.497918    -0.400543    -0.359005    -0.316470     0.101818

          21.1
      0.139589


 HOMO     19.1    -0.316470 =      -8.6116eV
 LUMO     20.1     0.101818 =       2.7706eV
 LUMO-HOMO         0.418287 =      11.3822eV

 Orbitals saved in record  2101.2


 **********************************************************************************************************************************
 DATASETS  * FILE   NREC   LENGTH (MB)   RECORD NAMES
              1      19     1204.12       500      610      700      900      950      970     1000      129      960     1100   
                                          VAR    BASINP    GEOM    SYMINP    ZMAT    AOBASIS   BASIS     P2S    ABASIS      S 
                                         1400     1410     1200     1210     1080     1600     1650     1300     1700   
                                           T        V       H0       H01     AOSYM     SMH    MOLCAS    ERIS     OPER   

              2       5        2.98       700     1000      520     2100     2101   
                                         GEOM     BASIS   MCVARS     RHF      RHF  

 PROGRAMS   *        TOTAL    HF-SCF    HF-SCF       INT
 CPU TIMES  *        53.24      4.19     34.09     14.86
 REAL TIME  *        65.98 SEC
 DISK USED  *         5.12 GB
 **********************************************************************************************************************************


 PROGRAM * PAPT (Closed-shell)     Authors: C. Hampel, H.-J. Werner, 1991, P.J. Knowles, 2021


 Convergence thresholds:  THRVAR = 1.00D-08  THRDEN = 1.00D-06

 Number of core orbitals:           5 (   5 )
 Number of closed-shell orbitals:  14 (  14 )
 Number of external orbitals:     215 ( 215 )

 Molecular orbitals read from record     2101.2  Type=RHF/CANONICAL  

 Number of N-1 electron functions:              14
 Number of N-2 electron functions:             105
 Number of singly external CSFs:              3010
 Number of doubly external CSFs:           4531555
 Total number of CSFs:                     4534566

 Length of J-op  integral file:               0.00 MB
 Length of K-op  integral file:               3.82 MB

 Integral transformation finished. Total CPU:   5.26 sec, npass=  1  Memory used:  10.67 MW

 Reference energy:                   -225.87077684

                        CORR.ENERGY   TOTAL ENERGY   ENERGY CHANGE
 MP2:                   -0.95361507  -226.82439191    -0.95361507

 SCS-MP2 correlation energy:           -0.93800744   (PS=  1.200000  PT=  0.333333)
 SCS-MP2 total energy:               -226.80878428
 Iteration:   1     0.3201D+00
 Iteration:   2     0.6172D+00
 Iteration:   3     0.8878D-01
 Iteration:   4     0.1155D+00
 Iteration:   5     0.4287D-01
 Iteration:   6     0.3442D-01
 Iteration:   7     0.2227D-01
 Iteration:   8     0.7614D-02
 Iteration:   9     0.3302D+00
 Iteration:  10     0.3159D-02
 Iteration:  11     0.7972D-02
 Iteration:  12     0.2525D-02
 Iteration:  13     0.2485D-02
 Iteration:  14     0.3689D-02
 Iteration:  15     0.9483D-03
 Iteration:  16     0.1028D-01
 Iteration:  17     0.5391D-03
 Iteration:  18     0.6922D-03
 Iteration:  19     0.2437D-03
 Iteration:  20     0.1616D-03
 Iteration:  21     0.1958D-03
 Iteration:  22     0.3968D-04
 PAPT operator written to  7000.1
 PAPT orbitals and eigenvalues written to  7000.2

 MP3(D):                -0.95392110  -226.82469793    -0.00030602



 RESULTS
 =======

  Reference energy                   -225.870776837157
  MP3 singlet pair energy              -0.638682747537
  MP3 triplet pair energy              -0.315238348439
  MP3 correlation energy               -0.953921095976

 !MP3 total energy                   -226.824697933133

 Timing summary (sec):

 STEP                 CPU(USER)    SYS     CPU(TOT)    WALL
 Transformation          5.52      0.48      6.00      6.50
 CCSD iterations        88.53      0.79     89.32     40.25

 Program statistics:

 Available memory in ccsd:               393215197
 Min. memory needed in ccsd:              11443386
 Max. memory used in ccsd:                15533437
 Max. memory used in cckext:              12026809 ( 1 integral passes)



 **********************************************************************************************************************************
 DATASETS  * FILE   NREC   LENGTH (MB)   RECORD NAMES
              1      21     1271.06       500      610      700      900      950      970     1000      129      960     1100   
                                          VAR    BASINP    GEOM    SYMINP    ZMAT    AOBASIS   BASIS     P2S    ABASIS      S 
                                         1400     1410     1200     1210     1080     1600     1650     1300     1700     1380   
                                           T        V       H0       H01     AOSYM     SMH    MOLCAS    ERIS     OPER     JKOP   
                                         7000   
                                        PAPT AO    

              2       6        4.34       700     1000      520     2100     2101     7000   
                                         GEOM     BASIS   MCVARS     RHF      RHF     PAPT   

 PROGRAMS   *        TOTAL      PAPT    HF-SCF    HF-SCF       INT
 CPU TIMES  *        93.94     40.70      4.19     34.09     14.86
 REAL TIME  *       113.10 SEC
 DISK USED  *         5.12 GB
 **********************************************************************************************************************************


 PROGRAM * MP4 (Closed-shell)     Authors: C. Hampel, H.-J. Werner, 1991, M. Deegan, P.J. Knowles, 1992


 Convergence thresholds:  THRVAR = 1.00D-08  THRDEN = 1.00D-06

 MP4(T)     terms to be evaluated (factor= 0.000)


 Number of core orbitals:           5 (   5 )
 Number of closed-shell orbitals:  14 (  14 )
 Number of external orbitals:     215 ( 215 )

 Molecular orbitals read from record     7000.2  Type=PAPT/CANONICAL (state 1.1)

 Number of N-1 electron functions:              14
 Number of N-2 electron functions:             105
 Number of singly external CSFs:              3010
 Number of doubly external CSFs:           4531555
 Total number of CSFs:                     4534566

 Length of J-op  integral file:               0.00 MB
 Length of K-op  integral file:               3.82 MB

 Memory could be reduced to 175.54 Mwords without degradation in triples

 Integral transformation finished. Total CPU:  14.25 sec, npass=  1  Memory used: 107.18 MW
 Orbital energies read from record       7000.2  Type=PAPT/CANONICAL (state 1.1)

 Reference energy:                   -225.87077684

                        CORR.ENERGY   TOTAL ENERGY   ENERGY CHANGE
 MP2:                   -0.96515058  -226.83592741    -0.96515058

 SCS-MP2 correlation energy:           -0.95527184   (PS=  1.200000  PT=  0.333333)
 SCS-MP2 total energy:               -226.82604868

 MP3(D):                -0.96538783  -226.83616467    -0.00023726
 MP4(DQ):               -0.94974081  -226.82051764     0.01564703
 MP4(SDQ):              -0.96003288  -226.83080971    -0.01029207

 Norm of t1 vector:      0.09326297      S-energy:    -0.01029207      T1 diagnostic:  0.01246279

 Largest off-diagonal element in interal  block of Fock matrix:  0.13D+00
 Largest off-diagonal element in external block of Fock matrix:  0.24D+00


 Total CPU time for triples:    384.31 sec


 RESULTS
 =======

  Reference energy                   -225.870776837156
  MP4(SDQ) singlet pair energy         -0.633984326092
  MP4(SDQ) triplet pair energy         -0.315756481686
  MP4(SDQ) correlation energy          -0.960032876767

  Triples contribution                 -0.060099992884
  Total correlation energy             -1.020132869651

  MP4(SDQ) total energy              -226.830809713923
 !MP4(SDTQ) total energy             -226.890909706807

 Timing summary (sec):

 STEP                 CPU(USER)    SYS     CPU(TOT)    WALL
 Transformation         16.67      1.50     18.17     19.12
 CCSD iterations       117.28      0.55    117.83     25.29
 Triples               384.31     11.59    395.90    417.36

 Program statistics:

 Available memory in ccsd:               393215197
 Min. memory needed in ccsd:              11443386
 Max. memory used in ccsd:                15533437
 Max. memory used in cckext:              12026809 ( 1 integral passes)



 **********************************************************************************************************************************
 DATASETS  * FILE   NREC   LENGTH (MB)   RECORD NAMES
              1      22     1804.30       500      610      700      900      950      970     1000      129      960     1100   
                                          VAR    BASINP    GEOM    SYMINP    ZMAT    AOBASIS   BASIS     P2S    ABASIS      S 
                                         1400     1410     1200     1210     1080     1600     1650     1300     1700     1380   
                                           T        V       H0       H01     AOSYM     SMH    MOLCAS    ERIS     OPER     JKOP   
                                         7000     1380(1)
                                        PAPT AO   JKOP   

              2       6        4.34       700     1000      520     2100     2101     7000   
                                         GEOM     BASIS   MCVARS     RHF      RHF     PAPT   

 PROGRAMS   *        TOTAL       MP4      PAPT    HF-SCF    HF-SCF       INT
 CPU TIMES  *       518.15    424.20     40.70      4.19     34.09     14.86
 REAL TIME  *       575.29 SEC
 DISK USED  *         5.12 GB
 **********************************************************************************************************************************

 Dump information in style XML to xml output                                                                      

 Orbitals will not be exported.

 **********************************************************************************************************************************

 MP4/cc-pVTZ energy=   -226.890909706807

             MP4            PAPT          HF-SCF          HF-SCF
   -226.89090971   -226.82469793   -225.87077684   -225.87077684
 **********************************************************************************************************************************
 Molpro calculation terminated
