
 Working directory              : /var/folders/2v/xbgp75_9785319ghcgb4zr4r0000gp/T//molpro.I8A8PrDrzL/
 Global scratch directory       : /var/folders/2v/xbgp75_9785319ghcgb4zr4r0000gp/T//molpro.I8A8PrDrzL/
 Wavefunction directory         : /Users/sacpjk/wfu/
 Main file repository           : /var/folders/2v/xbgp75_9785319ghcgb4zr4r0000gp/T//molpro.I8A8PrDrzL/

 id        : peterk

 Nodes                        nprocs
 Cardiff-University-G34YLXT77Y    1
 GA implementation: MPI file
 GA implementation (serial work in mppx): MPI file

 Using customized tuning parameters: mindgm=1; mindgv=20; mindgc=4; mindgr=1; noblas=0; minvec=7
 default implementation of scratch files=df  


 Variables initialized (1032), CPU time= 0.00 sec
 
 symmetry,nosym
 
 
 geometry={
            1
     CL         0.00000000      0.00000000      0.00000000
 }
 basis=cc-pVDZ
 
 
 spin=1
 uhf
 
 
 
 {put,xml;noorbitals,nobasis}
 Commands initialized (841), CPU time= 0.00 sec, 704 directives.
 Default parameters read. Elapsed time= 0.29 sec

 Checking input...
 Passed
1


                                         ***  PROGRAM SYSTEM MOLPRO  ***
                                       Copyright, TTI GmbH Stuttgart, 2015
                                    Version 2023.1 linked Tue Jun  6 09:54:11 2023


 **********************************************************************************************************************************
 LABEL *                                                                                                                                                                 
  64 bit serial version                                                                  DATE: 09-Jun-23          TIME: 09:28:09  
 **********************************************************************************************************************************

 SHA1:             8ebb0dd001088a5c915591db1a321413035db0b1
 **********************************************************************************************************************************

 Memory per process:       805 MW
 Total memory per node:   1074 MW
 Total GA space:           268 MW

 GA preallocation disabled
 GA check enabled

 Variable memory set to 805.3 MW

 ZSYMEL=NOSYM


 Geometry recognized as XYZ

 SETTING BASIS          =    CC-PVDZ
 SETTING SPIN           =         1.00000000                                  


 Recomputing integrals since basis changed


 Using spherical harmonics

 Library entry CL     S cc-pVDZ              selected for orbital group  1
 Library entry CL     P cc-pVDZ              selected for orbital group  1
 Library entry CL     D cc-pVDZ              selected for orbital group  1


 PROGRAM * SEWARD (Integral evaluation for generally contracted gaussian basis sets)     Author: Roland Lindh, 1990

 Geometry written to block  1 of record 700

 Orientation using atomic masses  
 Molecule type: Atom
 Rotational constants:       0.0000000      0.0000000      0.0000000 GHz  (calculated with average atomic masses)

 Point group  C1  



 ATOMIC COORDINATES

 NR  ATOM    CHARGE       X              Y              Z

   1  CL     17.00    0.000000000    0.000000000    0.000000000

 NUCLEAR CHARGE:                   17
 NUMBER OF PRIMITIVE AOS:          42
 NUMBER OF SYMMETRY AOS:           41
 NUMBER OF CONTRACTIONS:           18   (   18A   )
 NUMBER OF INNER CORE ORBITALS:     1   (    1A   )
 NUMBER OF OUTER CORE ORBITALS:     4   (    4A   )
 NUMBER OF VALENCE ORBITALS:        4   (    4A   )


 NUCLEAR REPULSION ENERGY    0.00000000

 EXTRA SYMMETRY OF AOS IN SYMMETRY 1:   1 1 1 1 2 3 4 2 3 4   2 3 4 5 6 7 8 9

 Eigenvalues of metric

         1 0.346E-01 0.125E+00 0.125E+00 0.125E+00 0.100E+01 0.100E+01 0.100E+01 0.100E+01


 Contracted 2-electron integrals neglected if value below      1.0D-11
 AO integral compression algorithm  1   Integral accuracy      1.0D-11

     0.262 MB (compressed) written to integral file ( 42.4%)


 NUMBER OF SORTED TWO-ELECTRON INTEGRALS:      14706.     BUFFER LENGTH:  32768
 NUMBER OF SEGMENTS:   1  SEGMENT LENGTH:      14706      RECORD LENGTH: 524288

 Memory used in sort:       0.57 MW

 SORT1 READ       19124. AND WROTE        2041. INTEGRALS IN      1 RECORDS. CPU TIME:     0.00 SEC, REAL TIME:     0.00 SEC
 SORT2 READ        2041. AND WROTE       14706. INTEGRALS IN      1 RECORDS. CPU TIME:     0.00 SEC, REAL TIME:     0.01 SEC

 FILE SIZES:   FILE 1:    30.2 MBYTE,  FILE 4:     4.3 MBYTE,   TOTAL:     34.5 MBYTE

 OPERATOR DM      FOR CENTER  0  COORDINATES:    0.000000    0.000000    0.000000


 **********************************************************************************************************************************
 DATASETS  * FILE   NREC   LENGTH (MB)   RECORD NAMES
              1      19       28.62       500      610      700      900      950      970     1000      129      960     1100   
                                          VAR    BASINP    GEOM    SYMINP    ZMAT    AOBASIS   BASIS     P2S    ABASIS      S 
                                         1400     1410     1200     1210     1080     1600     1650     1300     1700   
                                           T        V       H0       H01     AOSYM     SMH    MOLCAS    ERIS     OPER   

 PROGRAMS   *        TOTAL       INT
 CPU TIMES  *         0.15      0.07
 REAL TIME  *         0.73 SEC
 DISK USED  *        33.22 MB
 **********************************************************************************************************************************


 Program * Unrestricted Hartree-Fock

 Orbital guess generated from atomic densities. Full valence occupancy:    9

 Initial alpha occupancy:   9
 Initial beta  occupancy:   8

 Elapsed time for starting guess:      0.00 sec

 NELEC=   17   SYM=1   MS2=1   THRE=1.0D-08   THRD=3.2D-06   THRG=3.2D-06  HFMA2=F  DIIS_START=2   DIIS_MAX=10   DIIS_INCORE=F

 Initial level shifts:    0.20 (ALPHA)    0.20 (BETA)

 ITER         ETOT            DE          GRAD         DDIFF    DIIS  NEXP   TIME(IT)  TIME(TOT)  DIAG
   1   -459.46576551  -459.46576551     0.00D+00     0.00D+00     0     0       0.00      0.00    start
   2   -459.47043686    -0.00467135     0.69D-02     0.43D+00     1     0       0.00      0.00    diag
   3   -459.47109403    -0.00065717     0.24D-02     0.11D-01     2     0       0.00      0.00    diag
   4   -459.47114017    -0.00004613     0.68D-03     0.36D-02     3     0       0.00      0.00    diag
   5   -459.47114317    -0.00000300     0.16D-03     0.12D-02     4     0       0.00      0.00    diag
   6   -459.47114347    -0.00000030     0.44D-04     0.42D-03     5     0       0.01      0.01    diag
   7   -459.47114348    -0.00000002     0.89D-05     0.15D-03     5     0       0.00      0.01    diag
   8   -459.47114349    -0.00000000     0.22D-05     0.26D-04     5     0       0.00      0.01    diag
   9   -459.47114349    -0.00000000     0.45D-06     0.30D-05     5     0       0.00      0.01    diag

 Final alpha occupancy:   9
 Final beta  occupancy:   8

 !UHF STATE 1.1 Energy               -459.471143485674
  UHF One-electron energy            -634.914306269549
  UHF Two-electron energy             175.443162783875
  UHF Kinetic energy                  459.477780507697
  UHF Nuclear energy                    0.000000000000
  UHF Virial quotient                  -0.999985555293

 !UHF STATE 1.1 Dipole moment          -0.00000000     0.00000000    -0.00000000
 Dipole moment /Debye                  -0.00000000     0.00000000    -0.00000000

 EXPECTATION VALUE OF S**2:             0.75566658

 Orbital energies for positive spin:

           1.1          2.1          3.1          4.1          5.1          6.1          7.1          8.1          9.1         10.1
   -104.884802   -10.607802    -8.093629    -8.067920    -8.067920    -1.131979    -0.574147    -0.499452    -0.499452     0.687927

          11.1
      0.732987

 Orbital energies for negative spin:

           1.1          2.1          3.1          4.1          5.1          6.1          7.1          8.1          9.1         10.1
   -104.873687   -10.596481    -8.062049    -8.062049    -8.045259    -1.011028    -0.475166    -0.475166    -0.033127     0.742796


 HOMO     -8.1    -0.475166 =     -12.9299eV
 LUMO     -9.1    -0.033127 =      -0.9014eV
 LUMO-HOMO         0.442039 =      12.0285eV

 Orbitals saved in record  2200.2

 Occupation number threshold for pseudo-canonical orbitals: 1.9990 (occupied), 0.0010 (virtual)

 Number of pseudo-canonical occupied orbitals per symmetry:    7
 Number of active natural orbitals per symmetry:               3

 Natural orbitals saved to record    2200.2 (Orbital set 3)

 Orbital spaces for UNO-CAS (Min. occupation: 0.020  Max. occupation: 1.980):

 Closed:        8
 Active:        1


 **********************************************************************************************************************************
 DATASETS  * FILE   NREC   LENGTH (MB)   RECORD NAMES
              1      19       28.62       500      610      700      900      950      970     1000      129      960     1100   
                                          VAR    BASINP    GEOM    SYMINP    ZMAT    AOBASIS   BASIS     P2S    ABASIS      S 
                                         1400     1410     1200     1210     1080     1600     1650     1300     1700   
                                           T        V       H0       H01     AOSYM     SMH    MOLCAS    ERIS     OPER   

              2       4        0.40       700     1000      520     2200   
                                         GEOM     BASIS   MCVARS     UHF  

              4       3        0.12      2900     3000     3100   

 PROGRAMS   *        TOTAL   UHF-SCF       INT
 CPU TIMES  *         0.16      0.01      0.07
 REAL TIME  *         0.87 SEC
 DISK USED  *        33.22 MB
 **********************************************************************************************************************************

 Dump information in style XML to xml output                                                                      

 Orbitals will not be exported.

 **********************************************************************************************************************************

 UHF/cc-pVDZ energy=   -459.471143485674

         UHF-SCF
   -459.47114349
 **********************************************************************************************************************************
 Molpro calculation terminated
