
 Working directory              : /tmp/peterk/molpro.BOWnTVyinJ/
 Global scratch directory       : /tmp/peterk/molpro.BOWnTVyinJ/
 Wavefunction directory         : /home/peterk/wfu/
 Main file repository           : /tmp/peterk/molpro.BOWnTVyinJ/

 id        : peterk

 Nodes     nprocs
 marat        1
 GA implementation: MPI file
 GA implementation (serial work in mppx): MPI file

 Using customized tuning parameters: mindgm=1; mindgv=20; mindgc=4; mindgr=1; noblas=0; minvec=7
 default implementation of scratch files=df  


 Variables initialized (1032), CPU time= 0.00 sec
 
 symmetry,nosym
 
 
 geometry={
           10
     N          0.26705172      0.69636738     -0.56173710
     N          1.35510702      0.81253986      0.35870941
     H          1.84787308     -0.08681106      0.41533588
     H          0.95114425      1.00024418      1.27451809
     H          0.69417443      0.79066305     -1.48682628
     N         -0.26705172     -0.69636738     -0.56173710
     N         -1.35510702     -0.81253986      0.35870941
     H         -0.69417443     -0.79066305     -1.48682628
     H         -0.95114425     -1.00024418      1.27451809
     H         -1.84787308      0.08681106      0.41533588
 }
 basis=cc-pVDZ
 
 
 
 hf; ccsd(t)
 
 
 
 {put,xml;noorbitals,nobasis}
 Commands initialized (841), CPU time= 0.01 sec, 708 directives.
 Default parameters read. Elapsed time= 0.06 sec

 Checking input...
 Passed
1


                                         ***  PROGRAM SYSTEM MOLPRO  ***
                                       Copyright, TTI GmbH Stuttgart, 2015
                                    Version 2023.1 linked Sat Jun 10 08:01:27 2023


 **********************************************************************************************************************************
 LABEL *                                                                                                                                                                 
  (16 PROC) 64 bit serial version                                                        DATE: 13-Jun-23          TIME: 11:40:21  
 **********************************************************************************************************************************

 SHA1:             8376d659ba1296ca7ee514c57770fe2c96af278c
 **********************************************************************************************************************************

 Memory per process:      1074 MW
 Total memory per node:   1074 MW

 GA preallocation disabled
 GA check disabled

 Variable memory set to 1073.7 MW

 ZSYMEL=NOSYM


 Geometry recognized as XYZ

 SETTING BASIS          =    CC-PVDZ


 Recomputing integrals since basis changed


 Using spherical harmonics

 Library entry N      S cc-pVDZ              selected for orbital group  1
 Library entry N      P cc-pVDZ              selected for orbital group  1
 Library entry N      D cc-pVDZ              selected for orbital group  1
 Library entry H      S cc-pVDZ              selected for orbital group  2
 Library entry H      P cc-pVDZ              selected for orbital group  2


 PROGRAM * SEWARD (Integral evaluation for generally contracted gaussian basis sets)     Author: Roland Lindh, 1990

 Geometry written to block  1 of record 700


 Point group  C1  



 ATOMIC COORDINATES

 NR  ATOM    CHARGE       X              Y              Z

   1  N       7.00    0.504654612    1.315943630   -1.061529273
   2  N       7.00    2.560781137    1.535477801    0.677862543
   3  H       1.00    3.491974034   -0.164049128    0.784871063
   4  H       1.00    1.797402138    1.890187558    2.408490131
   5  H       1.00    1.311799555    1.494136621   -2.809694464
   6  N       7.00   -0.504654612   -1.315943630   -1.061529273
   7  N       7.00   -2.560781137   -1.535477801    0.677862543
   8  H       1.00   -1.311799555   -1.494136621   -2.809694464
   9  H       1.00   -1.797402138   -1.890187558    2.408490131
  10  H       1.00   -3.491974034    0.164049128    0.784871063

 Bond lengths in Bohr (Angstrom)

 1-2  2.702098339  1-5  1.933731428  1-6  2.818782656  2-3  1.940866512  2-4  1.924483920
     ( 1.429888862)     ( 1.023286604)     ( 1.491635544)     ( 1.027062327)     ( 1.018393033)

  6- 7  2.702098339   6- 8  1.933731428   7- 9  1.924483920   7-10  1.940866512
       ( 1.429888862)       ( 1.023286604)       ( 1.018393033)       ( 1.027062327)

 Bond angles

  1-2-3  109.23428917   1-2-4  106.97847166   1-6-7  110.38485651   1-6-8  103.62095394

  2-1-5  104.88275036   2-1-6  110.38485651   3-2-4  107.58548703   5-1-6  103.62095394

  6- 7- 9  106.97847166   6- 7-10  109.23428917   7- 6- 8  104.88275036   9- 7-10  107.58548703

 NUCLEAR CHARGE:                   34
 NUMBER OF PRIMITIVE AOS:         150
 NUMBER OF SYMMETRY AOS:          146
 NUMBER OF CONTRACTIONS:           86   (   86A   )
 NUMBER OF INNER CORE ORBITALS:     0   (    0A   )
 NUMBER OF OUTER CORE ORBITALS:     4   (    4A   )
 NUMBER OF VALENCE ORBITALS:       22   (   22A   )


 NUCLEAR REPULSION ENERGY  135.83614119

 Eigenvalues of metric

         1 0.491E-02 0.588E-02 0.133E-01 0.205E-01 0.320E-01 0.366E-01 0.369E-01 0.393E-01


 Contracted 2-electron integrals neglected if value below      1.0D-11
 AO integral compression algorithm  1   Integral accuracy      1.0D-11

     33.292 MB (compressed) written to integral file ( 52.2%)


 NUMBER OF SORTED TWO-ELECTRON INTEGRALS:    6999411.     BUFFER LENGTH:  32768
 NUMBER OF SEGMENTS:   1  SEGMENT LENGTH:    6999411      RECORD LENGTH: 524288

 Memory used in sort:       7.56 MW

 SORT1 READ     7921471. AND WROTE     6887255. INTEGRALS IN     20 RECORDS. CPU TIME:     0.07 SEC, REAL TIME:     0.11 SEC
 SORT2 READ     6887255. AND WROTE     6999411. INTEGRALS IN    127 RECORDS. CPU TIME:     0.12 SEC, REAL TIME:     0.15 SEC

 FILE SIZES:   FILE 1:    63.7 MBYTE,  FILE 4:    84.0 MBYTE,   TOTAL:    147.7 MBYTE

 OPERATOR DM      FOR CENTER  0  COORDINATES:    0.000000    0.000000    0.000000


 **********************************************************************************************************************************
 DATASETS  * FILE   NREC   LENGTH (MB)   RECORD NAMES
              1      19       56.77       500      610      700      900      950      970     1000      129      960     1100   
                                          VAR    BASINP    GEOM    SYMINP    ZMAT    AOBASIS   BASIS     P2S    ABASIS      S 
                                         1400     1410     1200     1210     1080     1600     1650     1300     1700   
                                           T        V       H0       H01     AOSYM     SMH    MOLCAS    ERIS     OPER   

 PROGRAMS   *        TOTAL       INT
 CPU TIMES  *         1.22      1.12
 REAL TIME  *         2.03 SEC
 DISK USED  *       141.31 MB
 **********************************************************************************************************************************


 Program * Restricted Hartree-Fock

 Orbital guess generated from atomic densities. Full valence occupancy:   26

 Initial occupancy:  17

 NELEC=   34   SYM=1   MS2= 0   THRE=1.0D-08   THRD=3.2D-06   THRG=3.2D-06  HFMA2=F  DIIS_START=2   DIIS_MAX=10   DIIS_INCORE=F

 Level shifts:    0.00 (CLOSED)    0.00 (OPEN)    0.30 (GAP_MIN)

 ITER           ETOT              DE          GRAD        DDIFF     DIIS  NEXP   TIME(IT)  TIME(TOT)  DIAG
   1     -221.13700374    -221.13700374     0.00D+00     0.12D+00     0     0       0.04      0.07    start
   2     -221.18234171      -0.04533798     0.62D-02     0.12D-01     1     0       0.03      0.10    diag
   3     -221.18711964      -0.00477793     0.21D-02     0.38D-02     2     0       0.03      0.13    diag
   4     -221.18804503      -0.00092539     0.84D-03     0.14D-02     3     0       0.04      0.17    diag
   5     -221.18810485      -0.00005982     0.16D-03     0.37D-03     4     0       0.04      0.21    diag
   6     -221.18811041      -0.00000555     0.37D-04     0.11D-03     5     0       0.04      0.25    diag
   7     -221.18811086      -0.00000046     0.11D-04     0.36D-04     6     0       0.03      0.28    diag
   8     -221.18811088      -0.00000002     0.25D-05     0.73D-05     7     0       0.03      0.31    fixocc
   9     -221.18811089      -0.00000000     0.87D-06     0.20D-05     8     0       0.04      0.35    diag
  10     -221.18811089      -0.00000000     0.20D-06     0.42D-06     0     0       0.04      0.39    diag/orth

 Final occupancy:  17

 !RHF STATE 1.1 Energy               -221.188110885849
  RHF One-electron energy            -570.423778278888
  RHF Two-electron energy             213.399526198977
  RHF Kinetic energy                  220.775774316059
  RHF Nuclear energy                  135.836141194062
  RHF Virial quotient                  -1.001867671265

 !RHF STATE 1.1 Dipole moment          -0.00000000    -0.00000000     0.09587683
 Dipole moment /Debye                  -0.00000000    -0.00000000     0.24369460

 Orbital energies:

           1.1          2.1          3.1          4.1          5.1          6.1          7.1          8.1          9.1         10.1
    -15.608017   -15.607618   -15.573713   -15.573712    -1.325560    -1.214326    -1.052457    -0.922701    -0.694209    -0.683567

          11.1         12.1         13.1         14.1         15.1         16.1         17.1         18.1         19.1
     -0.660834    -0.624715    -0.578311    -0.480880    -0.446196    -0.394472    -0.371094     0.180734     0.194015


 HOMO     17.1    -0.371094 =     -10.0980eV
 LUMO     18.1     0.180734 =       4.9180eV
 LUMO-HOMO         0.551828 =      15.0160eV

 Orbitals saved in record  2100.2


 **********************************************************************************************************************************
 DATASETS  * FILE   NREC   LENGTH (MB)   RECORD NAMES
              1      19       56.77       500      610      700      900      950      970     1000      129      960     1100   
                                          VAR    BASINP    GEOM    SYMINP    ZMAT    AOBASIS   BASIS     P2S    ABASIS      S 
                                         1400     1410     1200     1210     1080     1600     1650     1300     1700   
                                           T        V       H0       H01     AOSYM     SMH    MOLCAS    ERIS     OPER   

              2       4        0.65       700     1000      520     2100   
                                         GEOM     BASIS   MCVARS     RHF  

 PROGRAMS   *        TOTAL    HF-SCF       INT
 CPU TIMES  *         1.61      0.39      1.12
 REAL TIME  *         2.46 SEC
 DISK USED  *       141.31 MB
 **********************************************************************************************************************************


 PROGRAM * CCSD (Closed-shell coupled cluster)     Authors: C. Hampel, H.-J. Werner, 1991, M. Deegan, P.J. Knowles, 1992


 Convergence thresholds:  THRVAR = 1.00D-08  THRDEN = 1.00D-06

 CCSD(T)     terms to be evaluated (factor= 1.000)


 Number of core orbitals:           4 (   4 )
 Number of closed-shell orbitals:  13 (  13 )
 Number of external orbitals:      69 (  69 )

 Molecular orbitals read from record     2100.2  Type=RHF/CANONICAL  

 Number of N-1 electron functions:              13
 Number of N-2 electron functions:              91
 Number of singly external CSFs:               897
 Number of doubly external CSFs:            402753
 Total number of CSFs:                      403651

 Length of J-op  integral file:               0.00 MB
 Length of K-op  integral file:               0.57 MB
 Length of 3-ext integral record:             0.00 MB

 Memory could be reduced to 6.23 Mwords without degradation in triples

 Integral transformation finished. Total CPU:   0.28 sec, npass=  1  Memory used:   5.80 MW

 Reference energy:                   -221.18811089

 MP2 singlet pair energy:              -0.43165946
 MP2 triplet pair energy:              -0.25985607
 MP2 correlation energy:               -0.69151553
 MP2 total energy:                   -221.87962642

 SCS-MP2 correlation energy:           -0.67967958   (PS=  1.200000  PT=  0.333333)
 SCS-MP2 total energy:               -221.86779046

 ITER.      SQ.NORM     CORR.ENERGY   TOTAL ENERGY   ENERGY CHANGE        DEN1      VAR(S)    VAR(P)  DIIS     TIME  TIME/IT
   1      1.22468512    -0.72645487  -221.91456575    -0.03493933    -0.01726772  0.23D-02  0.37D-02  1  1     3.15     0.86
   2      1.24196282    -0.73049663  -221.91860751    -0.00404176    -0.01811488  0.57D-04  0.46D-03  2  2     4.02     0.89
   3      1.24713651    -0.73074028  -221.91885116    -0.00024365    -0.00299953  0.49D-04  0.24D-04  3  3     4.91     0.90
   4      1.24886714    -0.73079381  -221.91890470    -0.00005354    -0.00071321  0.48D-05  0.35D-05  4  4     5.86     0.92
   5      1.24943600    -0.73080251  -221.91891340    -0.00000870    -0.00014529  0.14D-05  0.39D-06  5  5     6.76     0.93
   6      1.24965117    -0.73079333  -221.91890421     0.00000918    -0.00002995  0.20D-06  0.49D-07  6  6     7.67     0.93
   7      1.24971496    -0.73079154  -221.91890242     0.00000179    -0.00000349  0.15D-07  0.11D-07  6  2     8.58     0.93
   8      1.24973505    -0.73079072  -221.91890161     0.00000082    -0.00000217  0.23D-08  0.12D-08  6  1     9.47     0.93
   9      1.24973983    -0.73079063  -221.91890151     0.00000009     0.00000034  0.39D-09  0.15D-09  6  3    10.37     0.93

 Norm of t1 vector:      0.07412151      S-energy:     0.00000018      T1 diagnostic:  0.01027880
                                                                       D1 diagnostic:  0.02930818
                                                                       D2 diagnostic:  0.15369147 (internal)


 Total CPU time for triples:      8.22 sec


 RESULTS
 =======

  Reference energy                   -221.188110885849
  CCSD singlet pair energy             -0.499153768281
  CCSD triplet pair energy             -0.231637043063
  CCSD correlation energy              -0.730790627460

  Triples (T) contribution             -0.021144975696
  Total correlation energy             -0.751935603156

  CCSD total energy                  -221.918901513309
  CCSD[T] energy                     -221.940668706477
  CCSD-T energy                      -221.939749051325
 !CCSD(T) total energy               -221.940046489005

 Timing summary (sec):

 STEP                 CPU(USER)    SYS     CPU(TOT)    WALL
 Transformation          0.29      0.07      0.36      0.35
 CCSD iterations        10.11      0.31     10.42      8.42
 Triples                 8.22      0.34      8.56      8.56

 Program statistics:

 Available memory in ccsd:              1073741131
 Min. memory needed in ccsd:               1141972
 Max. memory used in ccsd:                 1479972
 Max. memory used in cckext:               1454933 ( 9 integral passes)



 **********************************************************************************************************************************
 DATASETS  * FILE   NREC   LENGTH (MB)   RECORD NAMES
              1      20       81.15       500      610      700      900      950      970     1000      129      960     1100   
                                          VAR    BASINP    GEOM    SYMINP    ZMAT    AOBASIS   BASIS     P2S    ABASIS      S 
                                         1400     1410     1200     1210     1080     1600     1650     1300     1700     1380   
                                           T        V       H0       H01     AOSYM     SMH    MOLCAS    ERIS     OPER     JKOP   

              2       4        0.65       700     1000      520     2100   
                                         GEOM     BASIS   MCVARS     RHF  

 PROGRAMS   *        TOTAL   CCSD(T)    HF-SCF       INT
 CPU TIMES  *        18.26     16.64      0.39      1.12
 REAL TIME  *        19.84 SEC
 DISK USED  *       149.36 MB
 **********************************************************************************************************************************

 Dump information in style XML to xml output                                                                      

 Orbitals will not be exported.

 **********************************************************************************************************************************

 CCSD(T)/cc-pVDZ energy=   -221.940046489005

         CCSD(T)          HF-SCF
   -221.94004649   -221.18811089
 **********************************************************************************************************************************
 Molpro calculation terminated
