
 Working directory              : /var/folders/2v/xbgp75_9785319ghcgb4zr4r0000gp/T//molpro.EGGQRmpRDv/
 Global scratch directory       : /var/folders/2v/xbgp75_9785319ghcgb4zr4r0000gp/T//molpro.EGGQRmpRDv/
 Wavefunction directory         : /Users/sacpjk/wfu/
 Main file repository           : /var/folders/2v/xbgp75_9785319ghcgb4zr4r0000gp/T//molpro.EGGQRmpRDv/

 id        : peterk

 Nodes                        nprocs
 Cardiff-University-G34YLXT77Y    1
 GA implementation: MPI file
 GA implementation (serial work in mppx): MPI file

 Using customized tuning parameters: mindgm=1; mindgv=20; mindgc=4; mindgr=1; noblas=0; minvec=7
 default implementation of scratch files=df  


 Variables initialized (1032), CPU time= 0.00 sec
 
 symmetry,nosym
 
 
 geometry={
 4
  c          0.000000000000    0.000000000000   -0.605439359614
  h          0.000000000000    0.000000000000   -1.669276666645
  c          0.000000000000    0.000000000000    0.606637366315
  h          0.000000000000    0.000000000000    1.668078659891
 }
 basis=aug-cc-pVDZ
 
 
 
 hf; ccsd(t)
 
 
 
 {put,xml;noorbitals,nobasis}
 Commands initialized (841), CPU time= 0.01 sec, 704 directives.
 Default parameters read. Elapsed time= 0.07 sec

 Checking input...
 Passed
1


                                         ***  PROGRAM SYSTEM MOLPRO  ***
                                       Copyright, TTI GmbH Stuttgart, 2015
                                    Version 2023.1 linked Tue Jun  6 09:54:11 2023


 **********************************************************************************************************************************
 LABEL *                                                                                                                                                                 
  64 bit serial version                                                                  DATE: 08-Jun-23          TIME: 21:59:01  
 **********************************************************************************************************************************

 SHA1:             8ebb0dd001088a5c915591db1a321413035db0b1
 **********************************************************************************************************************************

 Memory per process:       805 MW
 Total memory per node:   1074 MW
 Total GA space:           268 MW

 GA preallocation disabled
 GA check enabled

 Variable memory set to 805.3 MW

 ZSYMEL=NOSYM


 Geometry recognized as XYZ

 SETTING BASIS          =    AUG-CC-PVDZ


 Recomputing integrals since basis changed


 Using spherical harmonics

 Library entry C      S aug-cc-pVDZ          selected for orbital group  1
 Library entry C      P aug-cc-pVDZ          selected for orbital group  1
 Library entry C      D aug-cc-pVDZ          selected for orbital group  1
 Library entry H      S aug-cc-pVDZ          selected for orbital group  2
 Library entry H      P aug-cc-pVDZ          selected for orbital group  2


 PROGRAM * SEWARD (Integral evaluation for generally contracted gaussian basis sets)     Author: Roland Lindh, 1990

 Geometry written to block  1 of record 700


 Point group  C1  



 ATOMIC COORDINATES

 NR  ATOM    CHARGE       X              Y              Z

   1  C       6.00    0.000000000    0.000000000   -1.144114575
   2  H       1.00    0.000000000    0.000000000   -3.154475726
   3  C       6.00    0.000000000    0.000000000    1.146378479
   4  H       1.00    0.000000000    0.000000000    3.152211822

 Bond lengths in Bohr (Angstrom)

 1-2  2.010361151  1-3  2.290493054  3-4  2.005833342
     ( 1.063837307)     ( 1.212076726)     ( 1.061441294)

 Bond angles

  1-3-4  179.99999852   2-1-3  180.00000000

 NUCLEAR CHARGE:                   14
 NUMBER OF PRIMITIVE AOS:          96
 NUMBER OF SYMMETRY AOS:           92
 NUMBER OF CONTRACTIONS:           64   (   64A   )
 NUMBER OF INNER CORE ORBITALS:     0   (    0A   )
 NUMBER OF OUTER CORE ORBITALS:     2   (    2A   )
 NUMBER OF VALENCE ORBITALS:       10   (   10A   )


 NUCLEAR REPULSION ENERGY   24.64312929

 EXTRA SYMMETRY OF AOS IN SYMMETRY 1:   1 1 1 1 2 3 1 2 3 1   2 3 1 1 4 2 5 3 1 4   2 5 3 1 1 1 2 3 1 2   3 1 1 1 1 1 2 3 1 2
                                        3 1 2 3 1 1 4 2 5 3   1 4 2 5 3 1 1 1 2 3   1 2 3 1

 Eigenvalues of metric

         1 0.357E-04 0.691E-04 0.638E-03 0.969E-03 0.118E-02 0.118E-02 0.430E-02 0.950E-02


 Contracted 2-electron integrals neglected if value below      1.0D-12
 AO integral compression algorithm  1   Integral accuracy      1.0D-12

     5.505 MB (compressed) written to integral file ( 24.2%)


 NUMBER OF SORTED TWO-ELECTRON INTEGRALS:    2164240.     BUFFER LENGTH:  32768
 NUMBER OF SEGMENTS:   1  SEGMENT LENGTH:    2164240      RECORD LENGTH: 524288

 Memory used in sort:       2.72 MW

 SORT1 READ     2914491. AND WROTE      525430. INTEGRALS IN      2 RECORDS. CPU TIME:     0.01 SEC, REAL TIME:     0.01 SEC
 SORT2 READ      525430. AND WROTE     2164240. INTEGRALS IN     21 RECORDS. CPU TIME:     0.04 SEC, REAL TIME:     0.04 SEC

 FILE SIZES:   FILE 1:    35.7 MBYTE,  FILE 4:     8.5 MBYTE,   TOTAL:     44.1 MBYTE

 OPERATOR DM      FOR CENTER  0  COORDINATES:    0.000000    0.000000    0.000000


 **********************************************************************************************************************************
 DATASETS  * FILE   NREC   LENGTH (MB)   RECORD NAMES
              1      19       32.58       500      610      700      900      950      970     1000      129      960     1100   
                                          VAR    BASINP    GEOM    SYMINP    ZMAT    AOBASIS   BASIS     P2S    ABASIS      S 
                                         1400     1410     1200     1210     1080     1600     1650     1300     1700   
                                           T        V       H0       H01     AOSYM     SMH    MOLCAS    ERIS     OPER   

 PROGRAMS   *        TOTAL       INT
 CPU TIMES  *         0.31      0.22
 REAL TIME  *         0.81 SEC
 DISK USED  *        42.48 MB
 **********************************************************************************************************************************


 Program * Restricted Hartree-Fock

 Orbital guess generated from atomic densities. Full valence occupancy:   12

 Initial occupancy:   7

 NELEC=   14   SYM=1   MS2= 0   THRE=1.0D-08   THRD=3.2D-06   THRG=3.2D-06  HFMA2=F  DIIS_START=2   DIIS_MAX=10   DIIS_INCORE=F

 Level shifts:    0.00 (CLOSED)    0.00 (OPEN)    0.30 (GAP_MIN)

 ITER           ETOT              DE          GRAD        DDIFF     DIIS  NEXP   TIME(IT)  TIME(TOT)  DIAG
   1      -76.81430481     -76.81430481     0.00D+00     0.11D+00     0     0       0.01      0.02    start
   2      -76.82671129      -0.01240648     0.49D-02     0.15D-01     1     0       0.01      0.03    diag
   3      -76.82772581      -0.00101452     0.14D-02     0.24D-02     2     0       0.01      0.04    diag
   4      -76.82784436      -0.00011856     0.35D-03     0.12D-02     3     0       0.01      0.05    diag
   5      -76.82784929      -0.00000493     0.73D-04     0.21D-03     4     0       0.01      0.06    diag
   6      -76.82784945      -0.00000016     0.15D-04     0.38D-04     5     0       0.01      0.07    diag
   7      -76.82784948      -0.00000003     0.82D-05     0.12D-04     6     0       0.01      0.08    diag
   8      -76.82784948      -0.00000000     0.93D-06     0.28D-05     7     0       0.01      0.09    fixocc
   9      -76.82784948      -0.00000000     0.10D-06     0.22D-06     0     0       0.01      0.10    diag

 Final occupancy:   7

 !RHF STATE 1.1 Energy                -76.827849484210
  RHF One-electron energy            -151.323615892909
  RHF Two-electron energy              49.852637116495
  RHF Kinetic energy                   76.645992838323
  RHF Nuclear energy                   24.643129292204
  RHF Virial quotient                  -1.002372683022

 !RHF STATE 1.1 Dipole moment           0.00000000    -0.00000000    -0.00102846
 Dipole moment /Debye                   0.00000000    -0.00000000    -0.00261408

 Orbital energies:

           1.1          2.1          3.1          4.1          5.1          6.1          7.1          8.1          9.1
    -11.256274   -11.252752    -1.031453    -0.769725    -0.680770    -0.409099    -0.409099     0.037449     0.039804


 HOMO      7.1    -0.409099 =     -11.1322eV
 LUMO      8.1     0.037449 =       1.0190eV
 LUMO-HOMO         0.446548 =      12.1512eV

 Orbitals saved in record  2100.2


 **********************************************************************************************************************************
 DATASETS  * FILE   NREC   LENGTH (MB)   RECORD NAMES
              1      19       32.58       500      610      700      900      950      970     1000      129      960     1100   
                                          VAR    BASINP    GEOM    SYMINP    ZMAT    AOBASIS   BASIS     P2S    ABASIS      S 
                                         1400     1410     1200     1210     1080     1600     1650     1300     1700   
                                           T        V       H0       H01     AOSYM     SMH    MOLCAS    ERIS     OPER   

              2       4        0.49       700     1000      520     2100   
                                         GEOM     BASIS   MCVARS     RHF  

 PROGRAMS   *        TOTAL    HF-SCF       INT
 CPU TIMES  *         0.41      0.10      0.22
 REAL TIME  *         1.10 SEC
 DISK USED  *        42.48 MB
 **********************************************************************************************************************************


 PROGRAM * CCSD (Closed-shell coupled cluster)     Authors: C. Hampel, H.-J. Werner, 1991, M. Deegan, P.J. Knowles, 1992


 Convergence thresholds:  THRVAR = 1.00D-08  THRDEN = 1.00D-06

 CCSD(T)     terms to be evaluated (factor= 1.000)


 Number of core orbitals:           2 (   2 )
 Number of closed-shell orbitals:   5 (   5 )
 Number of external orbitals:      57 (  57 )

 Molecular orbitals read from record     2100.2  Type=RHF/CANONICAL  

 Number of N-1 electron functions:               5
 Number of N-2 electron functions:              15
 Number of singly external CSFs:               285
 Number of doubly external CSFs:             40755
 Total number of CSFs:                       41041

 Length of J-op  integral file:               0.00 MB
 Length of K-op  integral file:               0.34 MB
 Length of 3-ext integral record:             0.00 MB

 Memory could be reduced to 1.59 Mwords without degradation in triples

 Integral transformation finished. Total CPU:   0.04 sec, npass=  1  Memory used:   1.03 MW

 Reference energy:                    -76.82784948

 MP2 singlet pair energy:              -0.16864073
 MP2 triplet pair energy:              -0.09559318
 MP2 correlation energy:               -0.26423391
 MP2 total energy:                    -77.09208340

 SCS-MP2 correlation energy:           -0.26184908   (PS=  1.200000  PT=  0.333333)
 SCS-MP2 total energy:                -77.08969856

 ITER.      SQ.NORM     CORR.ENERGY   TOTAL ENERGY   ENERGY CHANGE        DEN1      VAR(S)    VAR(P)  DIIS     TIME  TIME/IT
   1      1.11693573    -0.27756769   -77.10541718    -0.01333378    -0.00464240  0.15D-02  0.22D-02  1  1     0.61     0.05
   2      1.12755121    -0.27964875   -77.10749824    -0.00208106    -0.00832656  0.24D-04  0.38D-03  2  2     0.65     0.04
   3      1.13236499    -0.27999380   -77.10784328    -0.00034505    -0.00211762  0.12D-04  0.44D-04  3  3     0.70     0.05
   4      1.13463518    -0.28011308   -77.10796257    -0.00011928    -0.00068013  0.23D-06  0.39D-05  4  4     0.75     0.06
   5      1.13509257    -0.28011596   -77.10796544    -0.00000288    -0.00010291  0.50D-07  0.26D-06  5  5     0.79     0.06
   6      1.13515346    -0.28011748   -77.10796696    -0.00000152    -0.00001412  0.36D-08  0.19D-07  6  6     0.82     0.05
   7      1.13516292    -0.28011836   -77.10796784    -0.00000088    -0.00000183  0.87D-09  0.20D-08  6  1     0.86     0.05
   8      1.13516220    -0.28011859   -77.10796807    -0.00000023     0.00000107  0.46D-10  0.14D-09  6  2     0.89     0.05

 Norm of t1 vector:      0.05465046      S-energy:    -0.00000002      T1 diagnostic:  0.01222022
                                                                       D1 diagnostic:  0.02549620
                                                                       D2 diagnostic:  0.18452533 (internal)

 Doubles amplitudes (print threshold =  0.500E-01):

         I         J         SYM. A    SYM. B    A         B      T(IJ, AB)

         4         4         1         1        10        10     -0.07116030
         5         5         1         1        11        11     -0.07116030


 Total CPU time for triples:      0.14 sec


 RESULTS
 =======

  Reference energy                    -76.827849484210
  CCSD singlet pair energy             -0.198793871474
  CCSD triplet pair energy             -0.081324693731
  CCSD correlation energy              -0.280118589416

  Triples (T) contribution             -0.012442830612
  Total correlation energy             -0.292561420028

  CCSD total energy                   -77.107968073625
  CCSD[T] energy                      -77.120865392103
  CCSD-T energy                       -77.120169263832
 !CCSD(T) total energy                -77.120410904237

 Timing summary (sec):

 STEP                 CPU(USER)    SYS     CPU(TOT)    WALL
 Transformation          0.04      0.01      0.05      0.09
 CCSD iterations         0.86      0.03      0.89      0.51
 Triples                 0.14      0.00      0.14      0.15

 Program statistics:

 Available memory in ccsd:               805306261
 Min. memory needed in ccsd:                169489
 Max. memory used in ccsd:                  198029
 Max. memory used in cckext:                177553 ( 8 integral passes)



 **********************************************************************************************************************************
 DATASETS  * FILE   NREC   LENGTH (MB)   RECORD NAMES
              1      20       36.94       500      610      700      900      950      970     1000      129      960     1100   
                                          VAR    BASINP    GEOM    SYMINP    ZMAT    AOBASIS   BASIS     P2S    ABASIS      S 
                                         1400     1410     1200     1210     1080     1600     1650     1300     1700     1380   
                                           T        V       H0       H01     AOSYM     SMH    MOLCAS    ERIS     OPER     JKOP   

              2       4        0.49       700     1000      520     2100   
                                         GEOM     BASIS   MCVARS     RHF  

 PROGRAMS   *        TOTAL   CCSD(T)    HF-SCF       INT
 CPU TIMES  *         0.93      0.52      0.10      0.22
 REAL TIME  *         1.88 SEC
 DISK USED  *        45.44 MB
 **********************************************************************************************************************************

 Dump information in style XML to xml output                                                                      

 Orbitals will not be exported.

 **********************************************************************************************************************************

 CCSD(T)/aug-cc-pVDZ energy=    -77.120410904237

         CCSD(T)          HF-SCF
    -77.12041090    -76.82784948
 **********************************************************************************************************************************
 Molpro calculation terminated
