
 Working directory              : /var/folders/2v/xbgp75_9785319ghcgb4zr4r0000gp/T//molpro.sQi1JcSlUE/
 Global scratch directory       : /var/folders/2v/xbgp75_9785319ghcgb4zr4r0000gp/T//molpro.sQi1JcSlUE/
 Wavefunction directory         : /Users/sacpjk/wfu/
 Main file repository           : /var/folders/2v/xbgp75_9785319ghcgb4zr4r0000gp/T//molpro.sQi1JcSlUE/

 id        : peterk

 Nodes                        nprocs
 Cardiff-University-G34YLXT77Y    1
 GA implementation: MPI file
 GA implementation (serial work in mppx): MPI file

 Using customized tuning parameters: mindgm=1; mindgv=20; mindgc=4; mindgr=1; noblas=0; minvec=7
 default implementation of scratch files=df  


 Variables initialized (1032), CPU time= 0.01 sec
 
 symmetry,nosym
 
 
 geometry={
 13
  o         -1.725658698929    0.985176445376   -0.004488198682
  h         -0.753114891893    1.011056221199   -0.009535009727
  c         -2.095409174148   -0.374569734755   -0.009260022770
  h         -3.181662082972   -0.423849691993   -0.005008878932
  h         -1.742144451973   -0.905305597558   -0.898617800828
  h         -1.734818285074   -0.913474749636    0.872205471870
  n          1.182533933068    0.902925205363   -0.014212692653
  h          1.553153485078    1.410701710979    0.778919698223
  h          1.553276772794    1.367263772138   -0.833471526912
  c          1.660285868833   -0.483108241945    0.023248511912
  h          1.268401032225   -1.017133518680   -0.838943217015
  h          2.746997025046   -0.589843409911    0.026283006876
  h          1.268159468103   -0.969838410578    0.912880658849
 }
 basis=aug-cc-pVDZ
 
 
 
 hf; mp3
 
 
 
 {put,xml;noorbitals,nobasis}
 Commands initialized (841), CPU time= 0.00 sec, 704 directives.
 Default parameters read. Elapsed time= 0.07 sec

 Checking input...
 Passed
1


                                         ***  PROGRAM SYSTEM MOLPRO  ***
                                       Copyright, TTI GmbH Stuttgart, 2015
                                    Version 2023.1 linked Tue Jun  6 09:54:11 2023


 **********************************************************************************************************************************
 LABEL *                                                                                                                                                                 
  64 bit serial version                                                                  DATE: 08-Jun-23          TIME: 21:50:06  
 **********************************************************************************************************************************

 SHA1:             8ebb0dd001088a5c915591db1a321413035db0b1
 **********************************************************************************************************************************

 Memory per process:       805 MW
 Total memory per node:   1074 MW
 Total GA space:           268 MW

 GA preallocation disabled
 GA check enabled

 Variable memory set to 805.3 MW

 ZSYMEL=NOSYM


 Geometry recognized as XYZ

 SETTING BASIS          =    AUG-CC-PVDZ


 Recomputing integrals since basis changed


 Using spherical harmonics

 Library entry O      S aug-cc-pVDZ          selected for orbital group  1
 Library entry O      P aug-cc-pVDZ          selected for orbital group  1
 Library entry O      D aug-cc-pVDZ          selected for orbital group  1
 Library entry H      S aug-cc-pVDZ          selected for orbital group  2
 Library entry H      P aug-cc-pVDZ          selected for orbital group  2
 Library entry C      S aug-cc-pVDZ          selected for orbital group  3
 Library entry C      P aug-cc-pVDZ          selected for orbital group  3
 Library entry C      D aug-cc-pVDZ          selected for orbital group  3
 Library entry N      S aug-cc-pVDZ          selected for orbital group  5
 Library entry N      P aug-cc-pVDZ          selected for orbital group  5
 Library entry N      D aug-cc-pVDZ          selected for orbital group  5


 PROGRAM * SEWARD (Integral evaluation for generally contracted gaussian basis sets)     Author: Roland Lindh, 1990

 Geometry written to block  1 of record 700


 Point group  C1  



 ATOMIC COORDINATES

 NR  ATOM    CHARGE       X              Y              Z

   1  O       8.00   -3.261022326    1.861713666   -0.008481466
   2  H       1.00   -1.423180886    1.910619355   -0.018018557
   3  C       6.00   -3.959749458   -0.707834213   -0.017498907
   4  H       1.00   -6.012469958   -0.800959836   -0.009465409
   5  H       1.00   -3.292175884   -1.710779638   -1.698141534
   6  H       1.00   -3.278331435   -1.726217099    1.648229466
   7  N       7.00    2.234665267    1.706281349   -0.026858097
   8  H       1.00    2.935034716    2.665839877    1.471944903
   9  H       1.00    2.935267696    2.583754069   -1.575032919
  10  C       6.00    3.137485581   -0.912942266    0.043933320
  11  H       1.00    2.396930567   -1.922103782   -1.585372914
  12  H       1.00    5.191072042   -1.114642501    0.049667685
  13  H       1.00    2.396474077   -1.832728981    1.725094430

 Bond lengths in Bohr (Angstrom)

 1-2  1.838516761  1-3  2.662870110  3-4  2.054847529  3-5  2.067876603  3-6  2.067869734
     ( 0.972901172)     ( 1.409130178)     ( 1.087378484)     ( 1.094273173)     ( 1.094269538)

  7- 8  1.912506305   7- 9  1.912497691   7-10  2.771358564  10-11  2.054621012  10-12  2.063476005
       ( 1.012054752)       ( 1.012050194)       ( 1.466539795)       ( 1.087258616)       ( 1.091944477)

 10-13  2.054606611
       ( 1.087250996)

 Bond angles

  1-3-4  107.80889362   1-3-5  112.70939659   1-3-6  112.70742447   2-1-3  106.73530620

  4- 3- 5  107.67954830   4- 3- 6  107.68099729   5- 3- 6  108.02575012   7-10-11  109.05828429

  7-10-12  114.62388022   7-10-13  109.05680438   8- 7- 9  105.66707886   8- 7-10  109.56459379

  9- 7-10  109.57028934  11-10-12  108.23406659  11-10-13  107.39674284  12-10-13  108.23392760

 NUCLEAR CHARGE:                   36
 NUMBER OF PRIMITIVE AOS:         247
 NUMBER OF SYMMETRY AOS:          239
 NUMBER OF CONTRACTIONS:          173   (  173A   )
 NUMBER OF INNER CORE ORBITALS:     0   (    0A   )
 NUMBER OF OUTER CORE ORBITALS:     4   (    4A   )
 NUMBER OF VALENCE ORBITALS:       25   (   25A   )


 NUCLEAR REPULSION ENERGY  131.81617702


 Eigenvalues of metric

         1 0.188E-03 0.274E-03 0.353E-03 0.531E-03 0.628E-03 0.677E-03 0.694E-03 0.829E-03


 Contracted 2-electron integrals neglected if value below      1.0D-11
 AO integral compression algorithm  1   Integral accuracy      1.0D-11

     497.025 MB (compressed) written to integral file ( 49.0%)


 NUMBER OF SORTED TWO-ELECTRON INTEGRALS:  113273826.     BUFFER LENGTH:  32768
 NUMBER OF SEGMENTS:   8  SEGMENT LENGTH:   15999503      RECORD LENGTH: 524288

 Memory used in sort:      16.56 MW

 SORT1 READ   126858938. AND WROTE   110034436. INTEGRALS IN    319 RECORDS. CPU TIME:     0.91 SEC, REAL TIME:     1.36 SEC
 SORT2 READ   110034436. AND WROTE   113273826. INTEGRALS IN   1896 RECORDS. CPU TIME:     0.77 SEC, REAL TIME:     1.03 SEC

 FILE SIZES:   FILE 1:   528.3 MBYTE,  FILE 4:  1338.0 MBYTE,   TOTAL:   1866.4 MBYTE

 OPERATOR DM      FOR CENTER  0  COORDINATES:    0.000000    0.000000    0.000000


 **********************************************************************************************************************************
 DATASETS  * FILE   NREC   LENGTH (MB)   RECORD NAMES
              1      19      459.36       500      610      700      900      950      970     1000      129      960     1100   
                                          VAR    BASINP    GEOM    SYMINP    ZMAT    AOBASIS   BASIS     P2S    ABASIS      S 
                                         1400     1410     1200     1210     1080     1600     1650     1300     1700   
                                           T        V       H0       H01     AOSYM     SMH    MOLCAS    ERIS     OPER   

 PROGRAMS   *        TOTAL       INT
 CPU TIMES  *         4.57      4.48
 REAL TIME  *         6.07 SEC
 DISK USED  *         1.74 GB
 **********************************************************************************************************************************


 Program * Restricted Hartree-Fock

 Orbital guess generated from atomic densities. Full valence occupancy:   29

 Initial occupancy:  18

 NELEC=   36   SYM=1   MS2= 0   THRE=1.0D-08   THRD=3.2D-06   THRG=3.2D-06  HFMA2=F  DIIS_START=2   DIIS_MAX=10   DIIS_INCORE=F

 Level shifts:    0.00 (CLOSED)    0.00 (OPEN)    0.30 (GAP_MIN)

 ITER           ETOT              DE          GRAD        DDIFF     DIIS  NEXP   TIME(IT)  TIME(TOT)  DIAG
   1     -210.23857102    -210.23857102     0.00D+00     0.65D-01     0     0       0.53      1.04    start
   2     -210.28858582      -0.05001480     0.43D-02     0.73D-02     1     0       0.53      1.57    diag
   3     -210.29788207      -0.00929626     0.21D-02     0.23D-02     2     0       0.54      2.11    diag
   4     -210.29896316      -0.00108109     0.56D-03     0.84D-03     3     0       0.59      2.70    diag
   5     -210.29900921      -0.00004605     0.95D-04     0.19D-03     4     0       0.53      3.23    diag
   6     -210.29901278      -0.00000357     0.30D-04     0.51D-04     5     0       0.60      3.83    diag
   7     -210.29901318      -0.00000040     0.91D-05     0.16D-04     6     0       0.53      4.36    diag
   8     -210.29901320      -0.00000002     0.18D-05     0.39D-05     7     0       0.51      4.87    fixocc
   9     -210.29901320      -0.00000000     0.63D-06     0.13D-05     8     0       0.47      5.34    diag
  10     -210.29901320      -0.00000000     0.15D-06     0.26D-06     0     0       0.50      5.84    diag/orth

 Final occupancy:  18

 !RHF STATE 1.1 Energy               -210.299013202804
  RHF One-electron energy            -547.158571536944
  RHF Two-electron energy             205.043381311245
  RHF Kinetic energy                  210.014528721683
  RHF Nuclear energy                  131.816177022894
  RHF Virial quotient                  -1.001354594289

 !RHF STATE 1.1 Dipole moment           1.37679879    -0.49030677    -0.00482485
 Dipole moment /Debye                   3.49947347    -1.24623551    -0.01226354

 Orbital energies:

           1.1          2.1          3.1          4.1          5.1          6.1          7.1          8.1          9.1         10.1
    -20.528532   -15.573421   -11.265139   -11.256534    -1.328095    -1.197844    -0.918458    -0.900882    -0.685256    -0.670987

          11.1         12.1         13.1         14.1         15.1         16.1         17.1         18.1         19.1         20.1
     -0.622605    -0.594350    -0.575195    -0.566960    -0.536046    -0.482473    -0.417493    -0.415620     0.029777     0.045062


 HOMO     18.1    -0.415620 =     -11.3096eV
 LUMO     19.1     0.029777 =       0.8103eV
 LUMO-HOMO         0.445397 =      12.1199eV

 Orbitals saved in record  2100.2


 **********************************************************************************************************************************
 DATASETS  * FILE   NREC   LENGTH (MB)   RECORD NAMES
              1      19      459.36       500      610      700      900      950      970     1000      129      960     1100   
                                          VAR    BASINP    GEOM    SYMINP    ZMAT    AOBASIS   BASIS     P2S    ABASIS      S 
                                         1400     1410     1200     1210     1080     1600     1650     1300     1700   
                                           T        V       H0       H01     AOSYM     SMH    MOLCAS    ERIS     OPER   

              2       4        1.05       700     1000      520     2100   
                                         GEOM     BASIS   MCVARS     RHF  

 PROGRAMS   *        TOTAL    HF-SCF       INT
 CPU TIMES  *        10.41      5.84      4.48
 REAL TIME  *        13.12 SEC
 DISK USED  *         1.74 GB
 **********************************************************************************************************************************


 PROGRAM * MP3 (Closed-shell)     Authors: C. Hampel, H.-J. Werner, 1991, M. Deegan, P.J. Knowles, 1992


 Convergence thresholds:  THRVAR = 1.00D-08  THRDEN = 1.00D-06

 Number of core orbitals:           4 (   4 )
 Number of closed-shell orbitals:  14 (  14 )
 Number of external orbitals:     155 ( 155 )

 Molecular orbitals read from record     2100.2  Type=RHF/CANONICAL  

 Number of N-1 electron functions:              14
 Number of N-2 electron functions:             105
 Number of singly external CSFs:              2170
 Number of doubly external CSFs:           2355535
 Total number of CSFs:                     2357706

 Length of J-op  integral file:               0.00 MB
 Length of K-op  integral file:               2.12 MB

 Integral transformation finished. Total CPU:   1.59 sec, npass=  1  Memory used:   5.84 MW

 Reference energy:                   -210.29901320

                        CORR.ENERGY   TOTAL ENERGY   ENERGY CHANGE
 MP2:                   -0.70885995  -211.00787315    -0.70885995

 SCS-MP2 correlation energy:           -0.70581080   (PS=  1.200000  PT=  0.333333)
 SCS-MP2 total energy:               -211.00482400

 MP3(D):                -0.75106846  -211.05008167    -0.04220851



 RESULTS
 =======

  Reference energy                   -210.299013202805
  MP3 singlet pair energy              -0.513679963612
  MP3 triplet pair energy              -0.237388500806
  MP3 correlation energy               -0.751068464418

 !MP3 total energy                   -211.050081667223

 Timing summary (sec):

 STEP                 CPU(USER)    SYS     CPU(TOT)    WALL
 Transformation          1.66      0.14      1.80      2.11
 CCSD iterations        13.93      0.09     14.02      3.58

 Program statistics:

 Available memory in ccsd:               805305566
 Min. memory needed in ccsd:               6056485
 Max. memory used in ccsd:                 8162274
 Max. memory used in cckext:               6601310 ( 1 integral passes)



 **********************************************************************************************************************************
 DATASETS  * FILE   NREC   LENGTH (MB)   RECORD NAMES
              1      20      495.86       500      610      700      900      950      970     1000      129      960     1100   
                                          VAR    BASINP    GEOM    SYMINP    ZMAT    AOBASIS   BASIS     P2S    ABASIS      S 
                                         1400     1410     1200     1210     1080     1600     1650     1300     1700     1380   
                                           T        V       H0       H01     AOSYM     SMH    MOLCAS    ERIS     OPER     JKOP   

              2       4        1.05       700     1000      520     2100   
                                         GEOM     BASIS   MCVARS     RHF  

 PROGRAMS   *        TOTAL       MP3    HF-SCF       INT
 CPU TIMES  *        15.51      5.10      5.84      4.48
 REAL TIME  *        18.88 SEC
 DISK USED  *         1.74 GB
 **********************************************************************************************************************************

 Dump information in style XML to xml output                                                                      

 Orbitals will not be exported.

 **********************************************************************************************************************************

 MP3/aug-cc-pVDZ energy=   -211.050081667223

             MP3          HF-SCF
   -211.05008167   -210.29901320
 **********************************************************************************************************************************
 Molpro calculation terminated
