
 Working directory              : /var/folders/2v/xbgp75_9785319ghcgb4zr4r0000gp/T//molpro.DL2BI9jmPk/
 Global scratch directory       : /var/folders/2v/xbgp75_9785319ghcgb4zr4r0000gp/T//molpro.DL2BI9jmPk/
 Wavefunction directory         : /Users/sacpjk/wfu/
 Main file repository           : /var/folders/2v/xbgp75_9785319ghcgb4zr4r0000gp/T//molpro.DL2BI9jmPk/

 id        : peterk

 Nodes                        nprocs
 Cardiff-University-G34YLXT77Y    1
 GA implementation: MPI file
 GA implementation (serial work in mppx): MPI file

 Using customized tuning parameters: mindgm=1; mindgv=20; mindgc=4; mindgr=1; noblas=0; minvec=7
 default implementation of scratch files=df  


 Variables initialized (1032), CPU time= 0.00 sec
 
 symmetry,nosym
 
 
 geometry={
           10
     C         -0.10908494     -0.00012170      1.84867956
     C          0.40056224     -0.00008470      0.60878612
     C         -0.40056204     -0.00007770     -0.60878632
     H          1.48267763     -0.00004270      0.47407607
     H         -1.48267743     -0.00011170     -0.47407627
     C          0.10908414     -0.00003170     -1.84867976
     H          1.18301352      0.00022930     -2.02259382
     H          0.52643529      0.00000030      2.72908587
     H         -1.18301332      0.00044230      2.02259462
     H         -0.52643509     -0.00020170     -2.72908607
 }
 basis=cc-pVTZ
 
 
 
 hf; mp4
 
 
 
 {put,xml;noorbitals,nobasis}
 Commands initialized (841), CPU time= 0.01 sec, 704 directives.
 Default parameters read. Elapsed time= 5.73 sec

 Checking input...
 Passed
1


                                         ***  PROGRAM SYSTEM MOLPRO  ***
                                       Copyright, TTI GmbH Stuttgart, 2015
                                    Version 2023.1 linked Tue Jun  6 09:54:11 2023


 **********************************************************************************************************************************
 LABEL *                                                                                                                                                                 
  64 bit serial version                                                                  DATE: 10-Jun-23          TIME: 21:20:45  
 **********************************************************************************************************************************

 SHA1:             8ebb0dd001088a5c915591db1a321413035db0b1
 **********************************************************************************************************************************

 Memory per process:       805 MW
 Total memory per node:   1074 MW
 Total GA space:           268 MW

 GA preallocation disabled
 GA check enabled

 Variable memory set to 805.3 MW

 ZSYMEL=NOSYM


 Geometry recognized as XYZ

 SETTING BASIS          =    CC-PVTZ


 Recomputing integrals since basis changed


 Using spherical harmonics

 Library entry C      S cc-pVTZ              selected for orbital group  1
 Library entry C      P cc-pVTZ              selected for orbital group  1
 Library entry C      D cc-pVTZ              selected for orbital group  1
 Library entry C      F cc-pVTZ              selected for orbital group  1
 Library entry H      S cc-pVTZ              selected for orbital group  2
 Library entry H      P cc-pVTZ              selected for orbital group  2
 Library entry H      D cc-pVTZ              selected for orbital group  2


 PROGRAM * SEWARD (Integral evaluation for generally contracted gaussian basis sets)     Author: Roland Lindh, 1990

 Geometry written to block  1 of record 700


 Point group  C1  



 ATOMIC COORDINATES

 NR  ATOM    CHARGE       X              Y              Z

   1  C       6.00   -0.206140661   -0.000229980    3.493498061
   2  C       6.00    0.756952929   -0.000160060    1.150439035
   3  C       6.00   -0.756952552   -0.000146832   -1.150439413
   4  H       1.00    2.801854652   -0.000080691    0.895873935
   5  H       1.00   -2.801854274   -0.000211082   -0.895874312
   6  C       6.00    0.206139149   -0.000059904   -3.493498439
   7  H       1.00    2.235571555    0.000433314   -3.822148381
   8  H       1.00    0.994818520    0.000000567    5.157224865
   9  H       1.00   -2.235571177    0.000835826    3.822149893
  10  H       1.00   -0.994818142   -0.000381158   -5.157225243

 Bond lengths in Bohr (Angstrom)

 1-2  2.533273547  1-8  2.051899093  1-9  2.055869981  2-3  2.754260598  2-4  2.060685918
     ( 1.340550630)     ( 1.085818239)     ( 1.087919543)     ( 1.457491941)     ( 1.090468026)

  3- 5  2.060685917   3- 6  2.533272829   6- 7  2.055871328   6-10  2.051897999
       ( 1.090468026)       ( 1.340550250)       ( 1.087920255)       ( 1.085817660)

 Bond angles

  1-2-3  124.31166664   1-2-4  119.44079072   2-1-8  121.83173308   2-1-9  121.54345619

  2-3-5  116.24754265   2-3-6  124.31170616   3-2-4  116.24754264   3-6-7  121.54336148

  3- 6-10  121.83181502   5- 3- 6  119.44075119   7- 6-10  116.62482343   8- 1- 9  116.62479681

 NUCLEAR CHARGE:                   30
 NUMBER OF PRIMITIVE AOS:         290
 NUMBER OF SYMMETRY AOS:          264
 NUMBER OF CONTRACTIONS:          204   (  204A   )
 NUMBER OF INNER CORE ORBITALS:     0   (    0A   )
 NUMBER OF OUTER CORE ORBITALS:     4   (    4A   )
 NUMBER OF VALENCE ORBITALS:       22   (   22A   )


 NUCLEAR REPULSION ENERGY  103.54782820


 Eigenvalues of metric

         1 0.333E-03 0.499E-03 0.760E-03 0.879E-03 0.107E-02 0.129E-02 0.134E-02 0.139E-02


 Contracted 2-electron integrals neglected if value below      1.0D-11
 AO integral compression algorithm  1   Integral accuracy      1.0D-11

     625.738 MB (compressed) written to integral file ( 33.5%)


 NUMBER OF SORTED TWO-ELECTRON INTEGRALS:  218624505.     BUFFER LENGTH:  32768
 NUMBER OF SEGMENTS:  14  SEGMENT LENGTH:   15999503      RECORD LENGTH: 524288

 Memory used in sort:      16.56 MW

 SORT1 READ   233391215. AND WROTE   172305900. INTEGRALS IN    500 RECORDS. CPU TIME:     1.81 SEC, REAL TIME:     2.48 SEC
 SORT2 READ   172305900. AND WROTE   218624505. INTEGRALS IN   2387 RECORDS. CPU TIME:     1.63 SEC, REAL TIME:     2.04 SEC

 FILE SIZES:   FILE 1:   657.4 MBYTE,  FILE 4:  2097.2 MBYTE,   TOTAL:   2754.7 MBYTE

 OPERATOR DM      FOR CENTER  0  COORDINATES:    0.000000    0.000000    0.000000


 **********************************************************************************************************************************
 DATASETS  * FILE   NREC   LENGTH (MB)   RECORD NAMES
              1      19      553.68       500      610      700      900      950      970     1000      129      960     1100   
                                          VAR    BASINP    GEOM    SYMINP    ZMAT    AOBASIS   BASIS     P2S    ABASIS      S 
                                         1400     1410     1200     1210     1080     1600     1650     1300     1700   
                                           T        V       H0       H01     AOSYM     SMH    MOLCAS    ERIS     OPER   

 PROGRAMS   *        TOTAL       INT
 CPU TIMES  *         8.41      8.32
 REAL TIME  *        22.22 SEC
 DISK USED  *         2.57 GB
 **********************************************************************************************************************************


 Program * Restricted Hartree-Fock

 Orbital guess generated from atomic densities. Full valence occupancy:   26

 Initial occupancy:  15

 NELEC=   30   SYM=1   MS2= 0   THRE=1.0D-08   THRD=3.2D-06   THRG=3.2D-06  HFMA2=F  DIIS_START=2   DIIS_MAX=10   DIIS_INCORE=F

 Level shifts:    0.00 (CLOSED)    0.00 (OPEN)    0.30 (GAP_MIN)

 ITER           ETOT              DE          GRAD        DDIFF     DIIS  NEXP   TIME(IT)  TIME(TOT)  DIAG
   1     -154.93227143    -154.93227143     0.00D+00     0.51D-01     0     0       1.14      2.23    start
   2     -154.97227877      -0.04000734     0.31D-02     0.44D-02     1     0       1.13      3.36    diag
   3     -154.97628489      -0.00400612     0.10D-02     0.13D-02     2     0       1.14      4.50    diag
   4     -154.97687143      -0.00058654     0.35D-03     0.53D-03     3     0       1.15      5.65    diag
   5     -154.97689899      -0.00002756     0.92D-04     0.11D-03     4     0       1.15      6.80    diag
   6     -154.97690170      -0.00000271     0.21D-04     0.42D-04     5     0       1.17      7.97    diag
   7     -154.97690188      -0.00000018     0.46D-05     0.97D-05     6     0       1.15      9.12    diag
   8     -154.97690189      -0.00000002     0.13D-05     0.26D-05     7     0       1.16     10.28    fixocc
   9     -154.97690189      -0.00000000     0.30D-06     0.61D-06     8     0       1.15     11.43    diag
  10     -154.97690189      -0.00000000     0.72D-07     0.11D-06     0     0       1.15     12.58    diag/orth

 Final occupancy:  15

 !RHF STATE 1.1 Energy               -154.976901893261
  RHF One-electron energy            -412.562849767813
  RHF Two-electron energy             154.038119673237
  RHF Kinetic energy                  154.687130558640
  RHF Nuclear energy                  103.547828201315
  RHF Virial quotient                  -1.001873273708

 !RHF STATE 1.1 Dipole moment          -0.00000020     0.00023585    -0.00000001
 Dipole moment /Debye                  -0.00000051     0.00059946    -0.00000004

 Orbital energies:

           1.1          2.1          3.1          4.1          5.1          6.1          7.1          8.1          9.1         10.1
    -11.240277   -11.239446   -11.229934   -11.229928    -1.089955    -0.998450    -0.826461    -0.752666    -0.643513    -0.633067

          11.1         12.1         13.1         14.1         15.1         16.1         17.1
     -0.557739    -0.542812    -0.492515    -0.443374    -0.323171     0.109928     0.158625


 HOMO     15.1    -0.323171 =      -8.7939eV
 LUMO     16.1     0.109928 =       2.9913eV
 LUMO-HOMO         0.433099 =      11.7852eV

 Orbitals saved in record  2100.2


 **********************************************************************************************************************************
 DATASETS  * FILE   NREC   LENGTH (MB)   RECORD NAMES
              1      19      553.68       500      610      700      900      950      970     1000      129      960     1100   
                                          VAR    BASINP    GEOM    SYMINP    ZMAT    AOBASIS   BASIS     P2S    ABASIS      S 
                                         1400     1410     1200     1210     1080     1600     1650     1300     1700   
                                           T        V       H0       H01     AOSYM     SMH    MOLCAS    ERIS     OPER   

              2       4        1.19       700     1000      520     2100   
                                         GEOM     BASIS   MCVARS     RHF  

 PROGRAMS   *        TOTAL    HF-SCF       INT
 CPU TIMES  *        20.99     12.58      8.32
 REAL TIME  *        39.57 SEC
 DISK USED  *         2.57 GB
 **********************************************************************************************************************************


 PROGRAM * MP4 (Closed-shell)     Authors: C. Hampel, H.-J. Werner, 1991, M. Deegan, P.J. Knowles, 1992


 Convergence thresholds:  THRVAR = 1.00D-08  THRDEN = 1.00D-06

 MP4(T)     terms to be evaluated (factor= 0.000)


 Number of core orbitals:           4 (   4 )
 Number of closed-shell orbitals:  11 (  11 )
 Number of external orbitals:     189 ( 189 )

 Molecular orbitals read from record     2100.2  Type=RHF/CANONICAL  

 Number of N-1 electron functions:              11
 Number of N-2 electron functions:              66
 Number of singly external CSFs:              2079
 Number of doubly external CSFs:           2162160
 Total number of CSFs:                     2164240

 Length of J-op  integral file:               0.00 MB
 Length of K-op  integral file:               2.92 MB

 Memory could be reduced to 96.95 Mwords without degradation in triples

 Integral transformation finished. Total CPU:   4.56 sec, npass=  1  Memory used:  56.67 MW

 Reference energy:                   -154.97690189

                        CORR.ENERGY   TOTAL ENERGY   ENERGY CHANGE
 MP2:                   -0.65074394  -155.62764583    -0.65074394

 SCS-MP2 correlation energy:           -0.65307331   (PS=  1.200000  PT=  0.333333)
 SCS-MP2 total energy:               -155.62997521

 MP3(D):                -0.68420353  -155.66110542    -0.03345959
 MP4(DQ):               -0.68113826  -155.65804016     0.00306527
 MP4(SDQ):              -0.68668174  -155.66358363    -0.00554347

 Norm of t1 vector:      0.06144447      S-energy:    -0.00554347      T1 diagnostic:  0.00926310


 Total CPU time for triples:    107.44 sec


 RESULTS
 =======

  Reference energy                   -154.976901893262
  MP4(SDQ) singlet pair energy         -0.473892431880
  MP4(SDQ) triplet pair energy         -0.207245831556
  MP4(SDQ) correlation energy          -0.686681736041

  Triples contribution                 -0.032423304654
  Total correlation energy             -0.719105040696

  MP4(SDQ) total energy              -155.663583629303
 !MP4(SDTQ) total energy             -155.696006933957

 Timing summary (sec):

 STEP                 CPU(USER)    SYS     CPU(TOT)    WALL
 Transformation          4.66      0.49      5.15      7.34
 CCSD iterations        28.02      0.27     28.29      9.54
 Triples               107.44      3.96    111.40    141.54

 Program statistics:

 Available memory in ccsd:               805305869
 Min. memory needed in ccsd:               5800879
 Max. memory used in ccsd:                 7702768
 Max. memory used in cckext:               5864010 ( 1 integral passes)



 **********************************************************************************************************************************
 DATASETS  * FILE   NREC   LENGTH (MB)   RECORD NAMES
              1      20      870.60       500      610      700      900      950      970     1000      129      960     1100   
                                          VAR    BASINP    GEOM    SYMINP    ZMAT    AOBASIS   BASIS     P2S    ABASIS      S 
                                         1400     1410     1200     1210     1080     1600     1650     1300     1700     1380   
                                           T        V       H0       H01     AOSYM     SMH    MOLCAS    ERIS     OPER     JKOP   

              2       4        1.19       700     1000      520     2100   
                                         GEOM     BASIS   MCVARS     RHF  

 PROGRAMS   *        TOTAL       MP4    HF-SCF       INT
 CPU TIMES  *       140.04    119.04     12.58      8.32
 REAL TIME  *       198.43 SEC
 DISK USED  *         2.57 GB
 **********************************************************************************************************************************

 Dump information in style XML to xml output                                                                      

 Orbitals will not be exported.

 **********************************************************************************************************************************

 MP4/cc-pVTZ energy=   -155.696006933957

             MP4          HF-SCF
   -155.69600693   -154.97690189
 **********************************************************************************************************************************
 Molpro calculation terminated
