
 Working directory              : /var/folders/2v/xbgp75_9785319ghcgb4zr4r0000gp/T//molpro.V7XmYIMW6R/
 Global scratch directory       : /var/folders/2v/xbgp75_9785319ghcgb4zr4r0000gp/T//molpro.V7XmYIMW6R/
 Wavefunction directory         : /Users/sacpjk/wfu/
 Main file repository           : /var/folders/2v/xbgp75_9785319ghcgb4zr4r0000gp/T//molpro.V7XmYIMW6R/

 id        : peterk

 Nodes                        nprocs
 Cardiff-University-G34YLXT77Y    1
 GA implementation: MPI file
 GA implementation (serial work in mppx): MPI file

 Using customized tuning parameters: mindgm=1; mindgv=20; mindgc=4; mindgr=1; noblas=0; minvec=7
 default implementation of scratch files=df  


 Variables initialized (1032), CPU time= 0.00 sec
 
 symmetry,nosym
 
 
 geometry={
           12
     N         -1.20191411     -0.75939405      0.00000000
     P         -1.05835407      0.12455110     -1.47716751
     N          0.58567944      0.70758372     -1.37545632
     P          1.60012828      0.48099719      0.00000000
     N          0.58567944      0.70758372      1.37545632
     P         -1.05835407      0.12455110      1.47716751
     H         -0.68479837     -1.62767732      0.00000000
     H         -0.84723388     -1.04883155     -2.25457079
     H          0.68270745      1.63664799     -1.76047085
     H          1.56098630     -0.93382834      0.00000000
     H          0.68270745      1.63664799      1.76047085
     H         -0.84723388     -1.04883155      2.25457079
 }
 basis=cc-pVTZ
 
 
 
 hf; ccsd
 
 
 
 {put,xml;noorbitals,nobasis}
 Commands initialized (841), CPU time= 0.01 sec, 704 directives.
 Default parameters read. Elapsed time= 0.52 sec

 Checking input...
 Passed
1


                                         ***  PROGRAM SYSTEM MOLPRO  ***
                                       Copyright, TTI GmbH Stuttgart, 2015
                                    Version 2023.1 linked Tue Jun  6 09:54:11 2023


 **********************************************************************************************************************************
 LABEL *                                                                                                                                                                 
  64 bit serial version                                                                  DATE: 13-Jun-23          TIME: 05:27:25  
 **********************************************************************************************************************************

 SHA1:             8ebb0dd001088a5c915591db1a321413035db0b1
 **********************************************************************************************************************************

 Memory per process:       393 MW
 Total memory per node:    524 MW
 Total GA space:           131 MW

 GA preallocation disabled
 GA check enabled

 Variable memory set to 393.2 MW

 ZSYMEL=NOSYM


 Geometry recognized as XYZ

 SETTING BASIS          =    CC-PVTZ


 Recomputing integrals since basis changed


 Using spherical harmonics

 Library entry N      S cc-pVTZ              selected for orbital group  1
 Library entry N      P cc-pVTZ              selected for orbital group  1
 Library entry N      D cc-pVTZ              selected for orbital group  1
 Library entry N      F cc-pVTZ              selected for orbital group  1
 Library entry P      S cc-pVTZ              selected for orbital group  2
 Library entry P      P cc-pVTZ              selected for orbital group  2
 Library entry P      D cc-pVTZ              selected for orbital group  2
 Library entry P      F cc-pVTZ              selected for orbital group  2
 Library entry H      S cc-pVTZ              selected for orbital group  7
 Library entry H      P cc-pVTZ              selected for orbital group  7
 Library entry H      D cc-pVTZ              selected for orbital group  7


 PROGRAM * SEWARD (Integral evaluation for generally contracted gaussian basis sets)     Author: Roland Lindh, 1990

 Geometry written to block  1 of record 700


 Point group  C1  



 ATOMIC COORDINATES

 NR  ATOM    CHARGE       X              Y              Z

   1  N       7.00   -2.271288493   -1.435046775    0.000000000
   2  P      15.00   -1.999999335    0.235367468   -2.791442034
   3  N       7.00    1.106773738    1.337139441   -2.599235741
   4  P      15.00    3.023804213    0.908952956    0.000000000
   5  N       7.00    1.106773738    1.337139441    2.599235741
   6  P      15.00   -1.999999335    0.235367468    2.791442034
   7  H       1.00   -1.294081370   -3.075864354    0.000000000
   8  H       1.00   -1.601039997   -1.982004380   -4.260521322
   9  H       1.00    1.290130104    3.092816464   -3.326807757
  10  H       1.00    2.949836591   -1.764679810    0.000000000
  11  H       1.00    1.290130104    3.092816464    3.326807757
  12  H       1.00   -1.601039997   -1.982004380    4.260521322

 Bond lengths in Bohr (Angstrom)

 1-2  3.264357545  1-6  3.264357545  1-7  1.909768596  2-3  3.301951494  2-6  5.582884068
     ( 1.727423621)     ( 1.727423621)     ( 1.010606019)     ( 1.747317482)     ( 2.954335020)

  2- 8  2.689628305   3- 4  3.257971140   3- 9  1.909288454   4- 5  3.257971140   4-10  2.674655749
       ( 1.423290005)       ( 1.724044081)       ( 1.010351939)       ( 1.724044081)       ( 1.415366869)

  5- 6  3.301951494   5-11  1.909288454   6-12  2.689628305
       ( 1.747317482)       ( 1.010351939)       ( 1.423290005)

 Bond angles

  1-2-3  101.48795535   1-2-6   31.22617238   1-2-8   93.29834372   1-6-2   31.22617238

  1- 6- 5  101.48795535   1- 6-12   93.29834372   2- 1- 6  117.54765523   2- 1- 7  113.39852665

  2- 3- 4  123.79463993   2- 3- 9  112.02447692   2- 6- 5   86.66293158   2- 6-12  123.10681518

  3- 2- 6   86.66293158   3- 2- 8   99.63174455   3- 4- 5  105.84259494   3- 4-10   96.60965401

  4- 3- 9  111.61490224   4- 5- 6  123.79463993   4- 5-11  111.61490224   5- 4-10   96.60965401

  5- 6-12   99.63174455   6- 1- 7  113.39852665   6- 2- 8  123.10681518   6- 5-11  112.02447692

 NUCLEAR CHARGE:                   72
 NUMBER OF PRIMITIVE AOS:         435
 NUMBER OF SYMMETRY AOS:          399
 NUMBER OF CONTRACTIONS:          276   (  276A   )
 NUMBER OF INNER CORE ORBITALS:     3   (    3A   )
 NUMBER OF OUTER CORE ORBITALS:    15   (   15A   )
 NUMBER OF VALENCE ORBITALS:       30   (   30A   )


 NUCLEAR REPULSION ENERGY  480.51456426


 Eigenvalues of metric

         1 0.106E-02 0.115E-02 0.121E-02 0.155E-02 0.164E-02 0.191E-02 0.196E-02 0.202E-02


 Contracted 2-electron integrals neglected if value below      1.0D-11
 AO integral compression algorithm  1   Integral accuracy      1.0D-11

     2467.037 MB (compressed) written to integral file ( 39.7%)


 NUMBER OF SORTED TWO-ELECTRON INTEGRALS:  730632651.     BUFFER LENGTH:  32768
 NUMBER OF SEGMENTS:  46  SEGMENT LENGTH:   15999984      RECORD LENGTH: 262144

 Memory used in sort:      16.29 MW

 SORT1 READ   777536989. AND WROTE   638839366. INTEGRALS IN   3682 RECORDS. CPU TIME:     6.51 SEC, REAL TIME:     8.67 SEC
 SORT2 READ   638839366. AND WROTE   730632651. INTEGRALS IN   9411 RECORDS. CPU TIME:     4.68 SEC, REAL TIME:     6.30 SEC

 FILE SIZES:   FILE 1:  2500.1 MBYTE,  FILE 4:  7721.8 MBYTE,   TOTAL:  10221.8 MBYTE

 OPERATOR DM      FOR CENTER  0  COORDINATES:    0.000000    0.000000    0.000000


 **********************************************************************************************************************************
 DATASETS  * FILE   NREC   LENGTH (MB)   RECORD NAMES
              1      19     2193.63       500      610      700      900      950      970     1000      129      960     1100   
                                          VAR    BASINP    GEOM    SYMINP    ZMAT    AOBASIS   BASIS     P2S    ABASIS      S 
                                         1400     1410     1200     1210     1080     1600     1650     1300     1700   
                                           T        V       H0       H01     AOSYM     SMH    MOLCAS    ERIS     OPER   

 PROGRAMS   *        TOTAL       INT
 CPU TIMES  *        32.61     32.50
 REAL TIME  *        40.86 SEC
 DISK USED  *         9.52 GB
 **********************************************************************************************************************************


 Program * Restricted Hartree-Fock

 Orbital guess generated from atomic densities. Full valence occupancy:   48

 Initial occupancy:  36

 NELEC=   72   SYM=1   MS2= 0   THRE=1.0D-08   THRD=3.2D-06   THRG=3.2D-06  HFMA2=F  DIIS_START=2   DIIS_MAX=10   DIIS_INCORE=F

 Level shifts:    0.00 (CLOSED)    0.00 (OPEN)    0.30 (GAP_MIN)

 ITER           ETOT              DE          GRAD        DDIFF     DIIS  NEXP   TIME(IT)  TIME(TOT)  DIAG
   1    -1189.11658821   -1189.11658821     0.00D+00     0.57D-01     0     0       3.90      7.36    start
   2    -1189.18890194      -0.07231373     0.26D-02     0.41D-02     1     0       3.98     11.34    diag
   3    -1189.19742989      -0.00852796     0.94D-03     0.12D-02     2     0       3.90     15.24    diag
   4    -1189.19912649      -0.00169659     0.39D-03     0.53D-03     3     0       3.77     19.01    diag
   5    -1189.19921962      -0.00009313     0.74D-04     0.11D-03     4     0       3.74     22.75    diag
   6    -1189.19922919      -0.00000957     0.23D-04     0.39D-04     5     0       3.60     26.35    diag
   7    -1189.19922993      -0.00000074     0.55D-05     0.12D-04     6     0       3.77     30.12    diag
   8    -1189.19923001      -0.00000008     0.16D-05     0.38D-05     7     0       3.76     33.88    fixocc
   9    -1189.19923003      -0.00000001     0.70D-06     0.14D-05     8     0       3.79     37.67    diag
  10    -1189.19923003      -0.00000000     0.28D-06     0.66D-06     9     0       3.77     41.44    diag/orth
  11    -1189.19923003      -0.00000000     0.84D-07     0.17D-06     0     0       3.72     45.16    diag

 Final occupancy:  36

 !RHF STATE 1.1 Energy              -1189.199230027503
  RHF One-electron energy           -2599.553511667580
  RHF Two-electron energy             929.839717384797
  RHF Kinetic energy                 1188.753588001212
  RHF Nuclear energy                  480.514564255280
  RHF Virial quotient                  -1.000374881751

 !RHF STATE 1.1 Dipole moment           0.25953500    -0.12285027     0.00000000
 Dipole moment /Debye                   0.65967217    -0.31225425     0.00000000

 Orbital energies:

           1.1          2.1          3.1          4.1          5.1          6.1          7.1          8.1          9.1         10.1
    -79.989022   -79.989022   -79.986061   -15.564151   -15.555840   -15.555827    -7.523850    -7.523849    -7.520560    -5.417523

          11.1         12.1         13.1         14.1         15.1         16.1         17.1         18.1         19.1         20.1
     -5.417519    -5.417231    -5.417225    -5.416224    -5.416223    -5.414205    -5.413974    -5.413415    -1.220899    -1.151256

          21.1         22.1         23.1         24.1         25.1         26.1         27.1         28.1         29.1         30.1
     -1.146962    -0.843344    -0.837232    -0.758026    -0.672933    -0.630082    -0.617012    -0.598894    -0.550354    -0.521564

          31.1         32.1         33.1         34.1         35.1         36.1         37.1         38.1
     -0.489010    -0.449440    -0.423355    -0.380416    -0.363002    -0.331515     0.100224     0.129262


 HOMO     36.1    -0.331515 =      -9.0210eV
 LUMO     37.1     0.100224 =       2.7272eV
 LUMO-HOMO         0.431739 =      11.7482eV

 Orbitals saved in record  2100.2


 **********************************************************************************************************************************
 DATASETS  * FILE   NREC   LENGTH (MB)   RECORD NAMES
              1      19     2193.63       500      610      700      900      950      970     1000      129      960     1100   
                                          VAR    BASINP    GEOM    SYMINP    ZMAT    AOBASIS   BASIS     P2S    ABASIS      S 
                                         1400     1410     1200     1210     1080     1600     1650     1300     1700   
                                           T        V       H0       H01     AOSYM     SMH    MOLCAS    ERIS     OPER   

              2       4        1.77       700     1000      520     2100   
                                         GEOM     BASIS   MCVARS     RHF  

 PROGRAMS   *        TOTAL    HF-SCF       INT
 CPU TIMES  *        77.78     45.18     32.50
 REAL TIME  *        92.31 SEC
 DISK USED  *         9.52 GB
 **********************************************************************************************************************************


 PROGRAM * CCSD (Closed-shell coupled cluster)     Authors: C. Hampel, H.-J. Werner, 1991, M. Deegan, P.J. Knowles, 1992


 Convergence thresholds:  THRVAR = 1.00D-08  THRDEN = 1.00D-06

 Number of core orbitals:          18 (  18 )
 Number of closed-shell orbitals:  18 (  18 )
 Number of external orbitals:     240 ( 240 )

 Molecular orbitals read from record     2100.2  Type=RHF/CANONICAL  

 Number of N-1 electron functions:              18
 Number of N-2 electron functions:             171
 Number of singly external CSFs:              4320
 Number of doubly external CSFs:           9333360
 Total number of CSFs:                     9337681

 Length of J-op  integral file:               0.00 MB
 Length of K-op  integral file:               5.29 MB
 Length of 3-ext integral record:             0.00 MB

 Integral transformation finished. Total CPU:  27.26 sec, npass=  1  Memory used: 223.30 MW

 Reference energy:                  -1189.19923003

 MP2 singlet pair energy:              -0.68432604
 MP2 triplet pair energy:              -0.38825715
 MP2 correlation energy:               -1.07258318
 MP2 total energy:                  -1190.27181321

 SCS-MP2 correlation energy:           -1.06277347   (PS=  1.200000  PT=  0.333333)
 SCS-MP2 total energy:              -1190.26200350

 ITER.      SQ.NORM     CORR.ENERGY   TOTAL ENERGY   ENERGY CHANGE        DEN1      VAR(S)    VAR(P)  DIIS     TIME  TIME/IT
   1      1.38773169    -1.11829657 -1190.31752660    -0.04571338    -0.01378147  0.62D-02  0.74D-02  1  1   157.79    55.69
   2      1.42032274    -1.12285293 -1190.32208296    -0.00455636    -0.02847808  0.18D-03  0.10D-02  2  2   208.50    54.94
   3      1.43402558    -1.12299119 -1190.32222121    -0.00013826    -0.00633748  0.11D-03  0.56D-04  3  3   265.20    56.99
   4      1.43864935    -1.12297782 -1190.32220785     0.00001337    -0.00142293  0.11D-04  0.84D-05  4  4   317.51    56.69
   5      1.44013380    -1.12297692 -1190.32220694     0.00000091    -0.00027138  0.30D-05  0.85D-06  5  5   371.52    56.92
   6      1.44065304    -1.12295541 -1190.32218544     0.00002151    -0.00006659  0.37D-06  0.14D-06  6  6   435.24    58.95
   7      1.44077250    -1.12295155 -1190.32218157     0.00000386    -0.00000834  0.70D-07  0.26D-07  6  2   497.51    60.07
   8      1.44080721    -1.12295020 -1190.32218023     0.00000134    -0.00000231  0.14D-07  0.45D-08  6  1   556.34    60.43
   9      1.44081555    -1.12295012 -1190.32218015     0.00000008     0.00000149  0.26D-08  0.10D-08  6  4   616.26    60.77
  10      1.44081972    -1.12295015 -1190.32218018    -0.00000003    -0.00000057  0.44D-09  0.14D-09  6  3   673.81    60.83

 Norm of t1 vector:      0.12142190      S-energy:     0.00000031      T1 diagnostic:  0.01430971
                                                                       D1 diagnostic:  0.03714788
                                                                       D2 diagnostic:  0.17792306 (internal)


 RESULTS
 =======

  Reference energy                  -1189.199230027506
  CCSD singlet pair energy             -0.769340237010
  CCSD triplet pair energy             -0.353610228273
  CCSD correlation energy              -1.122950152300

 !CCSD total energy                 -1190.322180179806

 Timing summary (sec):

 STEP                 CPU(USER)    SYS     CPU(TOT)    WALL
 Transformation         27.89      3.60     31.49     33.20
 CCSD iterations       646.30     18.78    665.08    608.91

 Program statistics:

 Available memory in ccsd:               393214668
 Min. memory needed in ccsd:              22706089
 Max. memory used in ccsd:                31188841
 Max. memory used in cckext:              26868824 (10 integral passes)



 **********************************************************************************************************************************
 DATASETS  * FILE   NREC   LENGTH (MB)   RECORD NAMES
              1      20     3297.22       500      610      700      900      950      970     1000      129      960     1100   
                                          VAR    BASINP    GEOM    SYMINP    ZMAT    AOBASIS   BASIS     P2S    ABASIS      S 
                                         1400     1410     1200     1210     1080     1600     1650     1300     1700     1380   
                                           T        V       H0       H01     AOSYM     SMH    MOLCAS    ERIS     OPER     JKOP   

              2       4        1.77       700     1000      520     2100   
                                         GEOM     BASIS   MCVARS     RHF  

 PROGRAMS   *        TOTAL      CCSD    HF-SCF       INT
 CPU TIMES  *       674.09    596.31     45.18     32.50
 REAL TIME  *       734.95 SEC
 DISK USED  *         9.52 GB
 **********************************************************************************************************************************

 Dump information in style XML to xml output                                                                      

 Orbitals will not be exported.

 **********************************************************************************************************************************

 CCSD/cc-pVTZ energy=  -1190.322180179806

            CCSD          HF-SCF
  -1190.32218018  -1189.19923003
 **********************************************************************************************************************************
 Molpro calculation terminated
