
 Working directory              : /var/folders/2v/xbgp75_9785319ghcgb4zr4r0000gp/T//molpro.NvQUb08QWf/
 Global scratch directory       : /var/folders/2v/xbgp75_9785319ghcgb4zr4r0000gp/T//molpro.NvQUb08QWf/
 Wavefunction directory         : /Users/sacpjk/wfu/
 Main file repository           : /var/folders/2v/xbgp75_9785319ghcgb4zr4r0000gp/T//molpro.NvQUb08QWf/

 id        : peterk

 Nodes                        nprocs
 Cardiff-University-G34YLXT77Y    1
 GA implementation: MPI file
 GA implementation (serial work in mppx): MPI file

 Using customized tuning parameters: mindgm=1; mindgv=20; mindgc=4; mindgr=1; noblas=0; minvec=7
 default implementation of scratch files=df  


 Variables initialized (1032), CPU time= 0.00 sec
 
 symmetry,nosym
 
 
 geometry={
           12
     N         -0.79328369     -1.37400766     -0.32036436
     P         -1.76898046      0.00000000      0.03727417
     N         -0.79328369      1.37400766     -0.32036436
     P          0.88449023      1.53198202      0.03727417
     N          1.58656739      0.00000000     -0.32036436
     P          0.88449023     -1.53198202      0.03727417
     H         -1.08668589     -1.88219517     -1.14115553
     H         -1.47492030      0.00000000      1.42424573
     H         -1.08668589      1.88219517     -1.14115553
     H          0.73746015      1.27731845      1.42424573
     H          2.17337177      0.00000000     -1.14115553
     H          0.73746015     -1.27731845      1.42424573
 }
 basis=cc-pVDZ
 
 
 
 hf; hf; papt; mp4
 
 
 
 {put,xml;noorbitals,nobasis}
 Commands initialized (841), CPU time= 0.01 sec, 704 directives.
 Default parameters read. Elapsed time= 0.80 sec

 Checking input...
 Passed
1


                                         ***  PROGRAM SYSTEM MOLPRO  ***
                                       Copyright, TTI GmbH Stuttgart, 2015
                                    Version 2023.1 linked Tue Jun  6 09:54:11 2023


 **********************************************************************************************************************************
 LABEL *                                                                                                                                                                 
  64 bit serial version                                                                  DATE: 13-Jun-23          TIME: 07:19:43  
 **********************************************************************************************************************************

 SHA1:             8ebb0dd001088a5c915591db1a321413035db0b1
 **********************************************************************************************************************************

 Memory per process:       393 MW
 Total memory per node:    524 MW
 Total GA space:           131 MW

 GA preallocation disabled
 GA check enabled

 Variable memory set to 393.2 MW

 ZSYMEL=NOSYM


 Geometry recognized as XYZ

 SETTING BASIS          =    CC-PVDZ


 Recomputing integrals since basis changed


 Using spherical harmonics

 Library entry N      S cc-pVDZ              selected for orbital group  1
 Library entry N      P cc-pVDZ              selected for orbital group  1
 Library entry N      D cc-pVDZ              selected for orbital group  1
 Library entry P      S cc-pVDZ              selected for orbital group  2
 Library entry P      P cc-pVDZ              selected for orbital group  2
 Library entry P      D cc-pVDZ              selected for orbital group  2
 Library entry H      S cc-pVDZ              selected for orbital group  7
 Library entry H      P cc-pVDZ              selected for orbital group  7


 PROGRAM * SEWARD (Integral evaluation for generally contracted gaussian basis sets)     Author: Roland Lindh, 1990

 Geometry written to block  1 of record 700


 Point group  C1  



 ATOMIC COORDINATES

 NR  ATOM    CHARGE       X              Y              Z

   1  N       7.00   -1.499088913   -2.596498171   -0.605400900
   2  P      15.00   -3.342888589    0.000000000    0.070437973
   3  N       7.00   -1.499088913    2.596498171   -0.605400900
   4  P      15.00    1.671444295    2.895026446    0.070437973
   5  N       7.00    2.998177845    0.000000000   -0.605400900
   6  P      15.00    1.671444295   -2.895026446    0.070437973
   7  H       1.00   -2.053538716   -3.556833384   -2.156471417
   8  H       1.00   -2.787195423    0.000000000    2.691434364
   9  H       1.00   -2.053538716    3.556833384   -2.156471417
  10  H       1.00    1.393597711    2.413782044    2.691434364
  11  H       1.00    4.107077412    0.000000000   -2.156471417
  12  H       1.00    1.393597711   -2.413782044    2.691434364

 Bond lengths in Bohr (Angstrom)

 1-2  3.255481251  1-6  3.255481245  1-7  1.906692963  2-3  3.255481251  2-8  2.679256796
     ( 1.722726489)     ( 1.722726485)     ( 1.008978464)     ( 1.722726489)     ( 1.417801638)

  3- 4  3.255481245   3- 9  1.906692963   4- 5  3.255481258   4-10  2.679256796   5- 6  3.255481258
       ( 1.722726485)       ( 1.008978464)       ( 1.722726492)       ( 1.417801639)       ( 1.722726492)

  5-11  1.906692948   6-12  2.679256796
       ( 1.008978456)       ( 1.417801639)

 Bond angles

  1- 2- 3  105.79875380   1- 2- 8   94.91157002   1- 6- 5  105.79875394   1- 6-12   94.91157003

  2-1-6  125.56521225   2-1-7  113.94737884   2-3-4  125.56521225   2-3-9  113.94737884

  3- 2- 8   94.91157002   3- 4- 5  105.79875394   3- 4-10   94.91157003   4- 3- 9  113.94737925

  4- 5- 6  125.56521191   4- 5-11  113.94737899   5- 4-10   94.91156998   5- 6-12   94.91156998

  6- 1- 7  113.94737925   6- 5-11  113.94737899

 NUCLEAR CHARGE:                   72
 NUMBER OF PRIMITIVE AOS:         249
 NUMBER OF SYMMETRY AOS:          243
 NUMBER OF CONTRACTIONS:          126   (  126A   )
 NUMBER OF INNER CORE ORBITALS:     3   (    3A   )
 NUMBER OF OUTER CORE ORBITALS:    15   (   15A   )
 NUMBER OF VALENCE ORBITALS:       30   (   30A   )


 NUCLEAR REPULSION ENERGY  478.78948540


 Eigenvalues of metric

         1 0.397E-02 0.397E-02 0.602E-02 0.143E-01 0.143E-01 0.218E-01 0.309E-01 0.324E-01


 Contracted 2-electron integrals neglected if value below      1.0D-11
 AO integral compression algorithm  1   Integral accuracy      1.0D-11

     130.810 MB (compressed) written to integral file ( 46.1%)


 NUMBER OF SORTED TWO-ELECTRON INTEGRALS:   32012001.     BUFFER LENGTH:  32768
 NUMBER OF SEGMENTS:   3  SEGMENT LENGTH:   15998004      RECORD LENGTH: 524288

 Memory used in sort:      16.56 MW

 SORT1 READ    35458958. AND WROTE    30445393. INTEGRALS IN     89 RECORDS. CPU TIME:     0.26 SEC, REAL TIME:     0.37 SEC
 SORT2 READ    30445393. AND WROTE    32012001. INTEGRALS IN    499 RECORDS. CPU TIME:     0.29 SEC, REAL TIME:     0.36 SEC

 FILE SIZES:   FILE 1:   161.6 MBYTE,  FILE 4:   373.4 MBYTE,   TOTAL:    535.0 MBYTE

 OPERATOR DM      FOR CENTER  0  COORDINATES:    0.000000    0.000000    0.000000


 **********************************************************************************************************************************
 DATASETS  * FILE   NREC   LENGTH (MB)   RECORD NAMES
              1      19      141.95       500      610      700      900      950      970     1000      129      960     1100   
                                          VAR    BASINP    GEOM    SYMINP    ZMAT    AOBASIS   BASIS     P2S    ABASIS      S 
                                         1400     1410     1200     1210     1080     1600     1650     1300     1700   
                                           T        V       H0       H01     AOSYM     SMH    MOLCAS    ERIS     OPER   

 PROGRAMS   *        TOTAL       INT
 CPU TIMES  *         2.45      2.34
 REAL TIME  *         5.34 SEC
 DISK USED  *       510.72 MB
 **********************************************************************************************************************************


 Program * Restricted Hartree-Fock

 Orbital guess generated from atomic densities. Full valence occupancy:   48

 Initial occupancy:  36

 NELEC=   72   SYM=1   MS2= 0   THRE=1.0D-08   THRD=3.2D-06   THRG=3.2D-06  HFMA2=F  DIIS_START=2   DIIS_MAX=10   DIIS_INCORE=F

 Level shifts:    0.00 (CLOSED)    0.00 (OPEN)    0.30 (GAP_MIN)

 ITER           ETOT              DE          GRAD        DDIFF     DIIS  NEXP   TIME(IT)  TIME(TOT)  DIAG
   1    -1189.02118619   -1189.02118619     0.00D+00     0.12D+00     0     0       0.16      0.30    start
   2    -1189.08471955      -0.06353336     0.38D-02     0.10D-01     1     0       0.16      0.46    diag
   3    -1189.09126494      -0.00654540     0.13D-02     0.26D-02     2     0       0.15      0.61    diag
   4    -1189.09251452      -0.00124957     0.54D-03     0.13D-02     3     0       0.15      0.76    diag
   5    -1189.09257301      -0.00005850     0.98D-04     0.24D-03     4     0       0.16      0.92    diag
   6    -1189.09257849      -0.00000548     0.25D-04     0.80D-04     5     0       0.15      1.07    diag
   7    -1189.09257876      -0.00000027     0.48D-05     0.20D-04     6     0       0.15      1.22    diag
   8    -1189.09257878      -0.00000002     0.13D-05     0.44D-05     7     0       0.15      1.37    fixocc
   9    -1189.09257879      -0.00000000     0.40D-06     0.15D-05     8     0       0.16      1.53    diag
  10    -1189.09257879      -0.00000000     0.12D-06     0.27D-06     0     0       0.15      1.68    diag/orth

 Final occupancy:  36

 !RHF STATE 1.1 Energy              -1189.092578786185
  RHF One-electron energy           -2595.981901181102
  RHF Two-electron energy             928.099836995461
  RHF Kinetic energy                 1188.802650232110
  RHF Nuclear energy                  478.789485399457
  RHF Virial quotient                  -1.000243882830

 !RHF STATE 1.1 Dipole moment          -0.00000000    -0.00000000    -0.56149512
 Dipole moment /Debye                  -0.00000001    -0.00000000    -1.42717824

 Orbital energies:

           1.1          2.1          3.1          4.1          5.1          6.1          7.1          8.1          9.1         10.1
    -79.990373   -79.990373   -79.990373   -15.556652   -15.556652   -15.556634    -7.524743    -7.524743    -7.524717    -5.419138

          11.1         12.1         13.1         14.1         15.1         16.1         17.1         18.1         19.1         20.1
     -5.419136    -5.419136    -5.418255    -5.418248    -5.418248    -5.417009    -5.416995    -5.416995    -1.214061    -1.148077

          21.1         22.1         23.1         24.1         25.1         26.1         27.1         28.1         29.1         30.1
     -1.148077    -0.836253    -0.836253    -0.788148    -0.633931    -0.633931    -0.603272    -0.603225    -0.535023    -0.535023

          31.1         32.1         33.1         34.1         35.1         36.1         37.1         38.1
     -0.486649    -0.413427    -0.405261    -0.405261    -0.343412    -0.343412     0.147961     0.147961


 HOMO     36.1    -0.343412 =      -9.3447eV
 LUMO     37.1     0.147961 =       4.0262eV
 LUMO-HOMO         0.491373 =      13.3709eV

 Orbitals saved in record  2100.2


 **********************************************************************************************************************************
 DATASETS  * FILE   NREC   LENGTH (MB)   RECORD NAMES
              1      19      141.95       500      610      700      900      950      970     1000      129      960     1100   
                                          VAR    BASINP    GEOM    SYMINP    ZMAT    AOBASIS   BASIS     P2S    ABASIS      S 
                                         1400     1410     1200     1210     1080     1600     1650     1300     1700   
                                           T        V       H0       H01     AOSYM     SMH    MOLCAS    ERIS     OPER   

              2       4        0.82       700     1000      520     2100   
                                         GEOM     BASIS   MCVARS     RHF  

 PROGRAMS   *        TOTAL    HF-SCF       INT
 CPU TIMES  *         4.13      1.68      2.34
 REAL TIME  *         7.63 SEC
 DISK USED  *       510.72 MB
 **********************************************************************************************************************************


 Program * Restricted Hartree-Fock

 Molecular orbitals read from record     2100.2  Type=RHF/CANONICAL  

 Initial occupancy:  36

 NELEC=   72   SYM=1   MS2= 0   THRE=1.0D-08   THRD=3.2D-06   THRG=3.2D-06  HFMA2=F  DIIS_START=2   DIIS_MAX=10   DIIS_INCORE=F

 Level shifts:    0.00 (CLOSED)    0.00 (OPEN)    0.30 (GAP_MIN)

 ITER           ETOT              DE          GRAD        DDIFF     DIIS  NEXP   TIME(IT)  TIME(TOT)  DIAG
   1    -1189.09257879   -1189.09257879     0.00D+00     0.13D+00     0     0       0.16      0.16    start
   2    -1189.09257879      -0.00000000     0.51D-07     0.13D-06     1     0       0.15      0.31    diag

 Final occupancy:  36

 !RHF STATE 1.1 Energy              -1189.092578786212
  RHF One-electron energy           -2595.981904694914
  RHF Two-electron energy             928.099840509245
  RHF Kinetic energy                 1188.802651616787
  RHF Nuclear energy                  478.789485399457
  RHF Virial quotient                  -1.000243881664

 !RHF STATE 1.1 Dipole moment          -0.00000000    -0.00000000    -0.56150914
 Dipole moment /Debye                  -0.00000001    -0.00000000    -1.42721388

 Orbital energies:

           1.1          2.1          3.1          4.1          5.1          6.1          7.1          8.1          9.1         10.1
    -79.990373   -79.990373   -79.990373   -15.556652   -15.556652   -15.556633    -7.524743    -7.524743    -7.524717    -5.419138

          11.1         12.1         13.1         14.1         15.1         16.1         17.1         18.1         19.1         20.1
     -5.419136    -5.419136    -5.418255    -5.418248    -5.418248    -5.417009    -5.416995    -5.416995    -1.214060    -1.148077

          21.1         22.1         23.1         24.1         25.1         26.1         27.1         28.1         29.1         30.1
     -1.148077    -0.836253    -0.836253    -0.788148    -0.633930    -0.633930    -0.603272    -0.603225    -0.535023    -0.535023

          31.1         32.1         33.1         34.1         35.1         36.1         37.1         38.1
     -0.486650    -0.413427    -0.405261    -0.405261    -0.343412    -0.343412     0.147961     0.147961


 HOMO     36.1    -0.343412 =      -9.3447eV
 LUMO     37.1     0.147961 =       4.0262eV
 LUMO-HOMO         0.491373 =      13.3709eV

 Orbitals saved in record  2101.2


 **********************************************************************************************************************************
 DATASETS  * FILE   NREC   LENGTH (MB)   RECORD NAMES
              1      19      141.95       500      610      700      900      950      970     1000      129      960     1100   
                                          VAR    BASINP    GEOM    SYMINP    ZMAT    AOBASIS   BASIS     P2S    ABASIS      S 
                                         1400     1410     1200     1210     1080     1600     1650     1300     1700   
                                           T        V       H0       H01     AOSYM     SMH    MOLCAS    ERIS     OPER   

              2       5        1.35       700     1000      520     2100     2101   
                                         GEOM     BASIS   MCVARS     RHF      RHF  

 PROGRAMS   *        TOTAL    HF-SCF    HF-SCF       INT
 CPU TIMES  *         4.45      0.32      1.68      2.34
 REAL TIME  *         8.33 SEC
 DISK USED  *       510.72 MB
 **********************************************************************************************************************************


 PROGRAM * PAPT (Closed-shell)     Authors: C. Hampel, H.-J. Werner, 1991, P.J. Knowles, 2021


 Convergence thresholds:  THRVAR = 1.00D-08  THRDEN = 1.00D-06

 Number of core orbitals:          18 (  18 )
 Number of closed-shell orbitals:  18 (  18 )
 Number of external orbitals:      90 (  90 )

 Molecular orbitals read from record     2101.2  Type=RHF/CANONICAL  

 Number of N-1 electron functions:              18
 Number of N-2 electron functions:             171
 Number of singly external CSFs:              1620
 Number of doubly external CSFs:           1313010
 Total number of CSFs:                     1314631

 Length of J-op  integral file:               0.00 MB
 Length of K-op  integral file:               1.15 MB

 Integral transformation finished. Total CPU:   0.65 sec, npass=  1  Memory used:   4.77 MW

 Reference energy:                  -1189.09257879

                        CORR.ENERGY   TOTAL ENERGY   ENERGY CHANGE
 MP2:                   -0.84828209 -1189.94086088    -0.84828209

 SCS-MP2 correlation energy:           -0.83298070   (PS=  1.200000  PT=  0.333333)
 SCS-MP2 total energy:              -1189.92555948
 Iteration:   1     0.2219D+00
 Iteration:   2     0.8064D+00
 Iteration:   3     0.6760D-01
 Iteration:   4     0.5019D-01
 Iteration:   5     0.3321D-01
 Iteration:   6     0.1037D-01
 Iteration:   7     0.1086D+00
 Iteration:   8     0.3076D-02
 Iteration:   9     0.5569D-02
 Iteration:  10     0.1084D-02
 Iteration:  11     0.7734D-03
 Iteration:  12     0.7348D-03
 Iteration:  13     0.1156D-03
 Iteration:  14     0.3339D-03
 Iteration:  15     0.2766D-04
 PAPT operator written to  7000.1
 PAPT orbitals and eigenvalues written to  7000.2

 MP3(D):                -0.89511906 -1189.98769785    -0.04683697



 RESULTS
 =======

  Reference energy                  -1189.092578786212
  MP3 singlet pair energy              -0.595424377976
  MP3 triplet pair energy              -0.299694684520
  MP3 correlation energy               -0.895119062496

 !MP3 total energy                  -1189.987697848708

 Timing summary (sec):

 STEP                 CPU(USER)    SYS     CPU(TOT)    WALL
 Transformation          0.70      0.06      0.76      0.98
 CCSD iterations        11.21      0.17     11.38      8.03

 Program statistics:

 Available memory in ccsd:               393214668
 Min. memory needed in ccsd:               3549286
 Max. memory used in ccsd:                 4650238
 Max. memory used in cckext:               5668073 ( 1 integral passes)



 **********************************************************************************************************************************
 DATASETS  * FILE   NREC   LENGTH (MB)   RECORD NAMES
              1      21      173.41       500      610      700      900      950      970     1000      129      960     1100   
                                          VAR    BASINP    GEOM    SYMINP    ZMAT    AOBASIS   BASIS     P2S    ABASIS      S 
                                         1400     1410     1200     1210     1080     1600     1650     1300     1700     1380   
                                           T        V       H0       H01     AOSYM     SMH    MOLCAS    ERIS     OPER     JKOP   
                                         7000   
                                        PAPT AO    

              2       6        1.81       700     1000      520     2100     2101     7000   
                                         GEOM     BASIS   MCVARS     RHF      RHF     PAPT   

 PROGRAMS   *        TOTAL      PAPT    HF-SCF    HF-SCF       INT
 CPU TIMES  *        11.81      7.36      0.32      1.68      2.34
 REAL TIME  *        17.54 SEC
 DISK USED  *       510.72 MB
 **********************************************************************************************************************************


 PROGRAM * MP4 (Closed-shell)     Authors: C. Hampel, H.-J. Werner, 1991, M. Deegan, P.J. Knowles, 1992


 Convergence thresholds:  THRVAR = 1.00D-08  THRDEN = 1.00D-06

 MP4(T)     terms to be evaluated (factor= 0.000)


 Number of core orbitals:          18 (  18 )
 Number of closed-shell orbitals:  18 (  18 )
 Number of external orbitals:      90 (  90 )

 Molecular orbitals read from record     7000.2  Type=PAPT/CANONICAL (state 1.1)

 Number of N-1 electron functions:              18
 Number of N-2 electron functions:             171
 Number of singly external CSFs:              1620
 Number of doubly external CSFs:           1313010
 Total number of CSFs:                     1314631

 Length of J-op  integral file:               0.00 MB
 Length of K-op  integral file:               1.15 MB

 Memory could be reduced to 18.37 Mwords without degradation in triples

 Integral transformation finished. Total CPU:   1.38 sec, npass=  1  Memory used:  23.92 MW
 Orbital energies read from record       7000.2  Type=PAPT/CANONICAL (state 1.1)

 Reference energy:                  -1189.09257879

                        CORR.ENERGY   TOTAL ENERGY   ENERGY CHANGE
 MP2:                   -0.90821549 -1190.00079428    -0.90821549

 SCS-MP2 correlation energy:           -0.89863807   (PS=  1.200000  PT=  0.333333)
 SCS-MP2 total energy:              -1189.99121685

 MP3(D):                -0.90900207 -1190.00158086    -0.00078658
 MP4(DQ):               -0.90140667 -1189.99398546     0.00759540
 MP4(SDQ):              -0.91011471 -1190.00269349    -0.00870803

 Norm of t1 vector:      0.09511903      S-energy:    -0.00870803      T1 diagnostic:  0.01120989

 Largest off-diagonal element in interal  block of Fock matrix:  0.77D-01
 Largest off-diagonal element in external block of Fock matrix:  0.17D+00


 Total CPU time for triples:     26.52 sec


 RESULTS
 =======

  Reference energy                  -1189.092578786211
  MP4(SDQ) singlet pair energy         -0.602110720958
  MP4(SDQ) triplet pair energy         -0.299295951936
  MP4(SDQ) correlation energy          -0.910114707386

  Triples contribution                 -0.034460553495
  Total correlation energy             -0.944575260880

  MP4(SDQ) total energy             -1190.002693493597
 !MP4(SDTQ) total energy            -1190.037154047091

 Timing summary (sec):

 STEP                 CPU(USER)    SYS     CPU(TOT)    WALL
 Transformation          1.63      0.14      1.77      2.27
 CCSD iterations        17.39      0.16     17.55      6.34
 Triples                26.52      2.16     28.68     31.71

 Program statistics:

 Available memory in ccsd:               393214668
 Min. memory needed in ccsd:               3549286
 Max. memory used in ccsd:                 4650238
 Max. memory used in cckext:               5668073 ( 1 integral passes)



 **********************************************************************************************************************************
 DATASETS  * FILE   NREC   LENGTH (MB)   RECORD NAMES
              1      22      224.02       500      610      700      900      950      970     1000      129      960     1100   
                                          VAR    BASINP    GEOM    SYMINP    ZMAT    AOBASIS   BASIS     P2S    ABASIS      S 
                                         1400     1410     1200     1210     1080     1600     1650     1300     1700     1380   
                                           T        V       H0       H01     AOSYM     SMH    MOLCAS    ERIS     OPER     JKOP   
                                         7000     1380(1)
                                        PAPT AO   JKOP   

              2       6        1.81       700     1000      520     2100     2101     7000   
                                         GEOM     BASIS   MCVARS     RHF      RHF     PAPT   

 PROGRAMS   *        TOTAL       MP4      PAPT    HF-SCF    HF-SCF       INT
 CPU TIMES  *        45.44     33.63      7.36      0.32      1.68      2.34
 REAL TIME  *        58.38 SEC
 DISK USED  *       510.72 MB
 **********************************************************************************************************************************

 Dump information in style XML to xml output                                                                      

 Orbitals will not be exported.

 **********************************************************************************************************************************

 MP4/cc-pVDZ energy=  -1190.037154047091

             MP4            PAPT          HF-SCF          HF-SCF
  -1190.03715405  -1189.98769785  -1189.09257879  -1189.09257879
 **********************************************************************************************************************************
 Molpro calculation terminated
