
 Working directory              : /var/folders/2v/xbgp75_9785319ghcgb4zr4r0000gp/T//molpro.bnUcvYHalC/
 Global scratch directory       : /var/folders/2v/xbgp75_9785319ghcgb4zr4r0000gp/T//molpro.bnUcvYHalC/
 Wavefunction directory         : /Users/sacpjk/wfu/
 Main file repository           : /var/folders/2v/xbgp75_9785319ghcgb4zr4r0000gp/T//molpro.bnUcvYHalC/

 id        : peterk

 Nodes                        nprocs
 Cardiff-University-G34YLXT77Y    1
 GA implementation: MPI file
 GA implementation (serial work in mppx): MPI file

 Using customized tuning parameters: mindgm=1; mindgv=20; mindgc=4; mindgr=1; noblas=0; minvec=7
 default implementation of scratch files=df  


 Variables initialized (1032), CPU time= 0.01 sec
 
 symmetry,nosym
 
 
 geometry={
           17
     SI         0.95111717     -2.34248323      0.00000000
     SI         2.89848985     -1.03325876      0.00000000
     SI        -0.99433708     -1.00453120      0.00000000
     SI        -0.50864801      1.29196677      0.00000000
     SI        -2.47062147      2.57854369      0.00000000
     H          0.94975038     -3.21957328     -1.20217863
     H          0.94975038     -3.21957328      1.20217863
     H         -1.81620882     -1.31657238      1.20081987
     H         -1.81620882     -1.31657238     -1.20081987
     H          0.30852143      1.61775107     -1.20050887
     H          0.30852143      1.61775107      1.20050887
     H         -2.17074349      4.03381275      0.00000000
     H         -3.27850228      2.26099322     -1.20543585
     H         -3.27850228      2.26099322      1.20543585
     H          4.11885639     -1.88075049      0.00000000
     H          2.92438262     -0.16424840     -1.20428156
     H          2.92438262     -0.16424840      1.20428156
 }
 basis=cc-pVTZ
 
 
 
 hf; mp2
 
 
 
 {put,xml;noorbitals,nobasis}
 Commands initialized (841), CPU time= 0.00 sec, 704 directives.
 Default parameters read. Elapsed time= 0.26 sec

 Checking input...
 Passed
1


                                         ***  PROGRAM SYSTEM MOLPRO  ***
                                       Copyright, TTI GmbH Stuttgart, 2015
                                    Version 2023.1 linked Tue Jun  6 09:54:11 2023


 **********************************************************************************************************************************
 LABEL *                                                                                                                                                                 
  64 bit serial version                                                                  DATE: 12-Jun-23          TIME: 23:42:03  
 **********************************************************************************************************************************

 SHA1:             8ebb0dd001088a5c915591db1a321413035db0b1
 **********************************************************************************************************************************

 Memory per process:       393 MW
 Total memory per node:    524 MW
 Total GA space:           131 MW

 GA preallocation disabled
 GA check enabled

 Variable memory set to 393.2 MW

 ZSYMEL=NOSYM


 Geometry recognized as XYZ

 SETTING BASIS          =    CC-PVTZ


 Recomputing integrals since basis changed


 Using spherical harmonics

 Library entry SI     S cc-pVTZ              selected for orbital group  1
 Library entry SI     P cc-pVTZ              selected for orbital group  1
 Library entry SI     D cc-pVTZ              selected for orbital group  1
 Library entry SI     F cc-pVTZ              selected for orbital group  1
 Library entry H      S cc-pVTZ              selected for orbital group  2
 Library entry H      P cc-pVTZ              selected for orbital group  2
 Library entry H      D cc-pVTZ              selected for orbital group  2


 PROGRAM * SEWARD (Integral evaluation for generally contracted gaussian basis sets)     Author: Roland Lindh, 1990

 Geometry written to block  1 of record 700


 Point group  C1  



 ATOMIC COORDINATES

 NR  ATOM    CHARGE       X              Y              Z

   1  SI     14.00    1.797350964   -4.426651756    0.000000000
   2  SI     14.00    5.477351992   -1.952576072    0.000000000
   3  SI     14.00   -1.879024757   -1.898288852    0.000000000
   4  SI     14.00   -0.961205433    2.441463357    0.000000000
   5  SI     14.00   -4.668797936    4.872741374    0.000000000
   6  H       1.00    1.794768105   -6.084111737   -2.271788364
   7  H       1.00    1.794768105   -6.084111737    2.271788364
   8  H       1.00   -3.432137255   -2.487961221    2.269220679
   9  H       1.00   -3.432137255   -2.487961221   -2.269220679
  10  H       1.00    0.583021006    3.057106460   -2.268632974
  11  H       1.00    0.583021006    3.057106460    2.268632974
  12  H       1.00   -4.102110683    7.622801336    0.000000000
  13  H       1.00   -6.195471408    4.272657955   -2.277943617
  14  H       1.00   -6.195471408    4.272657955    2.277943617
  15  H       1.00    7.783510524   -3.554103335    0.000000000
  16  H       1.00    5.526282235   -0.310384492   -2.275762325
  17  H       1.00    5.526282235   -0.310384492    2.275762325

 Bond lengths in Bohr (Angstrom)

  1- 2  4.434349789   1- 3  4.461878239   1- 6  2.812152668   1- 7  2.812152668   2-15  2.807713794
       ( 2.346556854)       ( 2.361124282)       ( 1.488127106)       ( 1.488127106)       ( 1.485778154)

  2-16  2.806827660   2-17  2.806827660   3- 4  4.435745884   3- 8  2.812336116   3- 9  2.812336116
       ( 1.485309233)       ( 1.485309233)       ( 2.347295635)       ( 1.488224182)       ( 1.488224182)

  4- 5  4.433661575   4-10  2.812533964   4-11  2.812533964   5-12  2.807839780   5-13  2.807108677
       ( 2.346192667)       ( 1.488328879)       ( 1.488328879)       ( 1.485844824)       ( 1.485457940)

  5-14  2.807108677
       ( 1.485457940)

 Bond angles

  1- 2-15  111.30863625   1- 2-16  109.93158359   1- 2-17  109.93158359   1- 3- 4  112.57598178

  1-3-8  109.64640063   1-3-9  109.64640063   2-1-3  111.56937561   2-1-6  109.24475078

  2-1-7  109.24475078   3-1-6  109.46478162   3-1-7  109.46478162   3-4-5  111.31353681

  3- 4-10  109.13301168   3- 4-11  109.13301168   4- 3- 8  108.62690914   4- 3- 9  108.62690914

  4- 5-12  111.61152508   4- 5-13  109.72886965   4- 5-14  109.72886965   5- 4-10  109.82227336

  5- 4-11  109.82227336   6- 1- 7  107.77216476   8- 3- 9  107.58462000  10- 4-11  107.53308939

 12- 5-13  108.61075935  12- 5-14  108.61075935  13- 5-14  108.48373924  15- 2-16  108.62707412

 15- 2-17  108.62707412  16- 2-17  108.34739023

 NUCLEAR CHARGE:                   82
 NUMBER OF PRIMITIVE AOS:         524
 NUMBER OF SYMMETRY AOS:          487
 NUMBER OF CONTRACTIONS:          338   (  338A   )
 NUMBER OF INNER CORE ORBITALS:     5   (    5A   )
 NUMBER OF OUTER CORE ORBITALS:    20   (   20A   )
 NUMBER OF VALENCE ORBITALS:       32   (   32A   )


 NUCLEAR REPULSION ENERGY  469.02428364


 Eigenvalues of metric

         1 0.660E-03 0.101E-02 0.112E-02 0.117E-02 0.141E-02 0.161E-02 0.193E-02 0.195E-02


 Contracted 2-electron integrals neglected if value below      1.0D-11
 AO integral compression algorithm  1   Integral accuracy      1.0D-11

     3129.737 MB (compressed) written to integral file ( 26.9%)


 NUMBER OF SORTED TWO-ELECTRON INTEGRALS: 1641157986.     BUFFER LENGTH:  32768
 NUMBER OF SEGMENTS:  52  SEGMENT LENGTH:   31998710      RECORD LENGTH: 524288

 Memory used in sort:      32.56 MW

 SORT1 READ  1454085408. AND WROTE   882985380. INTEGRALS IN   2553 RECORDS. CPU TIME:    10.57 SEC, REAL TIME:    14.00 SEC
 SORT2 READ   882985380. AND WROTE  1641157986. INTEGRALS IN  11939 RECORDS. CPU TIME:     8.52 SEC, REAL TIME:    14.98 SEC

 FILE SIZES:   FILE 1:  3164.2 MBYTE,  FILE 4: 10708.1 MBYTE,   TOTAL:  13872.4 MBYTE

 OPERATOR DM      FOR CENTER  0  COORDINATES:    0.000000    0.000000    0.000000


 **********************************************************************************************************************************
 DATASETS  * FILE   NREC   LENGTH (MB)   RECORD NAMES
              1      19     2694.49       500      610      700      900      950      970     1000      129      960     1100   
                                          VAR    BASINP    GEOM    SYMINP    ZMAT    AOBASIS   BASIS     P2S    ABASIS      S 
                                         1400     1410     1200     1210     1080     1600     1650     1300     1700   
                                           T        V       H0       H01     AOSYM     SMH    MOLCAS    ERIS     OPER   

 PROGRAMS   *        TOTAL       INT
 CPU TIMES  *        50.15     50.06
 REAL TIME  *        64.79 SEC
 DISK USED  *        12.92 GB
 **********************************************************************************************************************************


 Program * Restricted Hartree-Fock

 Orbital guess generated from atomic densities. Full valence occupancy:   57

 Initial occupancy:  41

 NELEC=   82   SYM=1   MS2= 0   THRE=1.0D-08   THRD=3.2D-06   THRG=3.2D-06  HFMA2=F  DIIS_START=2   DIIS_MAX=10   DIIS_INCORE=F

 Level shifts:    0.00 (CLOSED)    0.00 (OPEN)    0.30 (GAP_MIN)

 ITER           ETOT              DE          GRAD        DDIFF     DIIS  NEXP   TIME(IT)  TIME(TOT)  DIAG
   1    -1451.63259533   -1451.63259533     0.00D+00     0.51D-01     0     0       6.73     13.17    start
   2    -1451.69381060      -0.06121527     0.13D-02     0.24D-02     1     0       7.02     20.19    diag
   3    -1451.70240061      -0.00859001     0.44D-03     0.85D-03     2     0       7.09     27.28    diag
   4    -1451.70265474      -0.00025413     0.85D-04     0.19D-03     3     0       7.31     34.59    diag
   5    -1451.70267492      -0.00002018     0.24D-04     0.67D-04     4     0       6.97     41.56    diag
   6    -1451.70267597      -0.00000105     0.48D-05     0.21D-04     5     0       7.14     48.70    diag
   7    -1451.70267601      -0.00000004     0.11D-05     0.39D-05     6     0       6.87     55.57    diag
   8    -1451.70267601      -0.00000000     0.26D-06     0.94D-06     7     0       6.28     61.85    fixocc
   9    -1451.70267601      -0.00000000     0.71D-07     0.17D-06     0     0       6.25     68.10    diag

 Final occupancy:  41

 !RHF STATE 1.1 Energy              -1451.702676012540
  RHF One-electron energy           -2948.372001194643
  RHF Two-electron energy            1027.645041541702
  RHF Kinetic energy                 1451.798788598665
  RHF Nuclear energy                  469.024283640402
  RHF Virial quotient                  -0.999933797585

 !RHF STATE 1.1 Dipole moment           0.00715036    -0.02757553    -0.00000000
 Dipole moment /Debye                   0.01817439    -0.07009000    -0.00000000

 Orbital energies:

           1.1          2.1          3.1          4.1          5.1          6.1          7.1          8.1          9.1         10.1
    -68.775712   -68.774957   -68.774644   -68.773878   -68.772779    -6.125327    -6.124696    -6.124666    -6.123958    -6.123174

          11.1         12.1         13.1         14.1         15.1         16.1         17.1         18.1         19.1         20.1
     -4.231252    -4.231209    -4.231181    -4.230678    -4.230566    -4.230560    -4.230511    -4.230464    -4.230447    -4.229760

          21.1         22.1         23.1         24.1         25.1         26.1         27.1         28.1         29.1         30.1
     -4.229637    -4.229538    -4.228950    -4.228874    -4.228834    -0.781626    -0.751442    -0.711502    -0.672270    -0.635159

          31.1         32.1         33.1         34.1         35.1         36.1         37.1         38.1         39.1         40.1
     -0.515224    -0.498128    -0.491924    -0.489108    -0.485042    -0.475661    -0.462193    -0.443076    -0.423381    -0.390375

          41.1         42.1         43.1
     -0.368581     0.096022     0.104823


 HOMO     41.1    -0.368581 =     -10.0296eV
 LUMO     42.1     0.096022 =       2.6129eV
 LUMO-HOMO         0.464604 =      12.6425eV

 Orbitals saved in record  2100.2


 **********************************************************************************************************************************
 DATASETS  * FILE   NREC   LENGTH (MB)   RECORD NAMES
              1      19     2694.49       500      610      700      900      950      970     1000      129      960     1100   
                                          VAR    BASINP    GEOM    SYMINP    ZMAT    AOBASIS   BASIS     P2S    ABASIS      S 
                                         1400     1410     1200     1210     1080     1600     1650     1300     1700   
                                           T        V       H0       H01     AOSYM     SMH    MOLCAS    ERIS     OPER   

              2       4        2.44       700     1000      520     2100   
                                         GEOM     BASIS   MCVARS     RHF  

 PROGRAMS   *        TOTAL    HF-SCF       INT
 CPU TIMES  *       118.25     68.10     50.06
 REAL TIME  *       141.88 SEC
 DISK USED  *        12.92 GB
 **********************************************************************************************************************************


 PROGRAM * MP2 (Closed-shell)     Authors: C. Hampel, H.-J. Werner, 1991, M. Deegan, P.J. Knowles, 1992


 Convergence thresholds:  THRVAR = 1.00D-08  THRDEN = 1.00D-06

 Number of core orbitals:          25 (  25 )
 Number of closed-shell orbitals:  16 (  16 )
 Number of external orbitals:     297 ( 297 )

 Molecular orbitals read from record     2100.2  Type=RHF/CANONICAL  

 Number of N-1 electron functions:              16
 Number of N-2 electron functions:             136
 Number of singly external CSFs:              4752
 Number of doubly external CSFs:          11293128
 Total number of CSFs:                    11297881

 Length of J-op  integral file:               0.00 MB
 Length of K-op  integral file:               7.91 MB

 Integral transformation finished. Total CPU:  13.64 sec, npass=  1  Memory used:  27.90 MW

 Memory needed for MP2:                      0.52 MW

 SCS-MP2 correlation energy:           -0.679337120099   (PS=  1.200000  PT=  0.333333)
 SCS-MP2 total energy:              -1452.382013132628


  Reference energy                  -1451.702676012530
  MP2 singlet pair energy              -0.490676109334
  MP2 triplet pair energy              -0.145487875015
  MP2 correlation energy               -0.636163984349

 !MP2 total energy                  -1452.338839996878


 **********************************************************************************************************************************
 DATASETS  * FILE   NREC   LENGTH (MB)   RECORD NAMES
              1      20     2874.23       500      610      700      900      950      970     1000      129      960     1100   
                                          VAR    BASINP    GEOM    SYMINP    ZMAT    AOBASIS   BASIS     P2S    ABASIS      S 
                                         1400     1410     1200     1210     1080     1600     1650     1300     1700     1380   
                                           T        V       H0       H01     AOSYM     SMH    MOLCAS    ERIS     OPER     JKOP   

              2       4        2.44       700     1000      520     2100   
                                         GEOM     BASIS   MCVARS     RHF  

 PROGRAMS   *        TOTAL       MP2    HF-SCF       INT
 CPU TIMES  *       132.84     14.59     68.10     50.06
 REAL TIME  *       158.53 SEC
 DISK USED  *        12.92 GB
 **********************************************************************************************************************************

 Dump information in style XML to xml output                                                                      

 Orbitals will not be exported.

 **********************************************************************************************************************************

 MP2/cc-pVTZ energy=  -1452.338839996878

             MP2          HF-SCF
  -1452.33884000  -1451.70267601
 **********************************************************************************************************************************
 Molpro calculation terminated
