
 Working directory              : /tmp/peterk/molpro.0YdVA48MCQ/
 Global scratch directory       : /tmp/peterk/molpro.0YdVA48MCQ/
 Wavefunction directory         : /home/peterk/wfu/
 Main file repository           : /tmp/peterk/molpro.0YdVA48MCQ/

 id        : peterk

 Nodes     nprocs
 marat        1
 GA implementation: MPI file
 GA implementation (serial work in mppx): MPI file

 Using customized tuning parameters: mindgm=1; mindgv=20; mindgc=4; mindgr=1; noblas=0; minvec=7
 default implementation of scratch files=df  


 Variables initialized (1032), CPU time= 0.01 sec
 
 symmetry,nosym
 
 
 geometry={
            7
     F          2.24953292     -0.16163470     -0.00906451
     C          0.83989310      0.02030650      0.00310752
     H          0.35178382     -0.87134447     -0.36481550
     H          0.52242274      0.21318049      1.01958309
     H          0.60022397      0.86229312     -0.63454561
     O         -1.81896698     -0.15832046     -0.00598050
     H         -2.74488958      0.09551952     -0.00828450
 }
 basis=cc-pVQZ
 
 charge=-1
 
 hf; mp4
 
 
 
 {put,xml;noorbitals,nobasis}
 Commands initialized (841), CPU time= 0.00 sec, 708 directives.
 Default parameters read. Elapsed time= 0.05 sec

 Checking input...
 Passed
1


                                         ***  PROGRAM SYSTEM MOLPRO  ***
                                       Copyright, TTI GmbH Stuttgart, 2015
                                    Version 2023.1 linked Sat Jun 10 08:01:27 2023


 **********************************************************************************************************************************
 LABEL *                                                                                                                                                                 
  (16 PROC) 64 bit serial version                                                        DATE: 10-Jun-23          TIME: 16:11:32  
 **********************************************************************************************************************************

 SHA1:             8376d659ba1296ca7ee514c57770fe2c96af278c
 **********************************************************************************************************************************

 Memory per process:      1074 MW
 Total memory per node:   1074 MW

 GA preallocation disabled
 GA check disabled

 Variable memory set to 1073.7 MW

 ZSYMEL=NOSYM


 Geometry recognized as XYZ

 SETTING BASIS          =    CC-PVQZ
 SETTING CHARGE         =        -1.00000000                                  


 Recomputing integrals since basis changed


 Using spherical harmonics

 Library entry F      S cc-pVQZ              selected for orbital group  1
 Library entry F      P cc-pVQZ              selected for orbital group  1
 Library entry F      D cc-pVQZ              selected for orbital group  1
 Library entry F      F cc-pVQZ              selected for orbital group  1
 Library entry F      G cc-pVQZ              selected for orbital group  1
 Library entry C      S cc-pVQZ              selected for orbital group  2
 Library entry C      P cc-pVQZ              selected for orbital group  2
 Library entry C      D cc-pVQZ              selected for orbital group  2
 Library entry C      F cc-pVQZ              selected for orbital group  2
 Library entry C      G cc-pVQZ              selected for orbital group  2
 Library entry H      S cc-pVQZ              selected for orbital group  3
 Library entry H      P cc-pVQZ              selected for orbital group  3
 Library entry H      D cc-pVQZ              selected for orbital group  3
 Library entry H      F cc-pVQZ              selected for orbital group  3
 Library entry O      S cc-pVQZ              selected for orbital group  4
 Library entry O      P cc-pVQZ              selected for orbital group  4
 Library entry O      D cc-pVQZ              selected for orbital group  4
 Library entry O      F cc-pVQZ              selected for orbital group  4
 Library entry O      G cc-pVQZ              selected for orbital group  4


 PROGRAM * SEWARD (Integral evaluation for generally contracted gaussian basis sets)     Author: Roland Lindh, 1990

 Geometry written to block  1 of record 700


 Point group  C1  



 ATOMIC COORDINATES

 NR  ATOM    CHARGE       X              Y              Z

   1  F       9.00    4.251001127   -0.305445315   -0.017129441
   2  C       6.00    1.587167933    0.038373724    0.005872362
   3  H       1.00    0.664775075   -1.646602409   -0.689401381
   4  H       1.00    0.987235900    0.402852741    1.926732801
   5  H       1.00    1.134258917    1.629497836   -1.199117416
   6  O       8.00   -3.437349422   -0.299182309   -0.011301507
   7  H       1.00   -5.187089549    0.180505732   -0.015655436

 Bond lengths in Bohr (Angstrom)

 1-2  2.686028276  2-3  2.042880008  2-4  2.045108366  2-5  2.046656513  6-7  1.814307054
     ( 1.421384952)     ( 1.081045545)     ( 1.082224741)     ( 1.083043985)     ( 0.960089946)

 Bond angles

  1-2-3  109.83382105   1-2-4  108.77070472   1-2-5  108.29649717   3-2-4  109.52435453

  3-2-5  109.93347062   4-2-5  110.45808017

 NUCLEAR CHARGE:                   27
 NUMBER OF PRIMITIVE AOS:         397
 NUMBER OF SYMMETRY AOS:          332
 NUMBER OF CONTRACTIONS:          285   (  285A   )
 NUMBER OF INNER CORE ORBITALS:     0   (    0A   )
 NUMBER OF OUTER CORE ORBITALS:     3   (    3A   )
 NUMBER OF VALENCE ORBITALS:       16   (   16A   )


 NUCLEAR REPULSION ENERGY   67.43070998


 Eigenvalues of metric

         1 0.128E-03 0.254E-03 0.272E-03 0.280E-03 0.431E-03 0.492E-03 0.578E-03 0.108E-02


 Contracted 2-electron integrals neglected if value below      1.0D-11
 AO integral compression algorithm  1   Integral accuracy      1.0D-11

     2348.810 MB (compressed) written to integral file ( 33.5%)


 NUMBER OF SORTED TWO-ELECTRON INTEGRALS:  830505390.     BUFFER LENGTH:  32768
 NUMBER OF SEGMENTS:  52  SEGMENT LENGTH:   15999984      RECORD LENGTH: 262144

 Memory used in sort:      16.29 MW

 SORT1 READ   875429763. AND WROTE   587621527. INTEGRALS IN   3388 RECORDS. CPU TIME:     7.11 SEC, REAL TIME:    13.82 SEC
 SORT2 READ   587621527. AND WROTE   830505390. INTEGRALS IN   8960 RECORDS. CPU TIME:     6.66 SEC, REAL TIME:    13.38 SEC

 FILE SIZES:   FILE 1:  2381.9 MBYTE,  FILE 4:  7105.2 MBYTE,   TOTAL:   9487.1 MBYTE

 OPERATOR DM      FOR CENTER  0  COORDINATES:    0.000000    0.000000    0.000000


 **********************************************************************************************************************************
 DATASETS  * FILE   NREC   LENGTH (MB)   RECORD NAMES
              1      19     1993.27       500      610      700      900      950      970     1000      129      960     1100   
                                          VAR    BASINP    GEOM    SYMINP    ZMAT    AOBASIS   BASIS     P2S    ABASIS      S 
                                         1400     1410     1200     1210     1080     1600     1650     1300     1700   
                                           T        V       H0       H01     AOSYM     SMH    MOLCAS    ERIS     OPER   

 PROGRAMS   *        TOTAL       INT
 CPU TIMES  *        36.63     36.52
 REAL TIME  *        54.28 SEC
 DISK USED  *         8.84 GB
 **********************************************************************************************************************************


 Program * Restricted Hartree-Fock

 Orbital guess generated from atomic densities. Full valence occupancy:   19

 Initial occupancy:  14

 NELEC=   28   SYM=1   MS2= 0   THRE=1.0D-08   THRD=3.2D-06   THRG=3.2D-06  HFMA2=F  DIIS_START=2   DIIS_MAX=10   DIIS_INCORE=F

 Level shifts:    0.00 (CLOSED)    0.00 (OPEN)    0.30 (GAP_MIN)

 ITER           ETOT              DE          GRAD        DDIFF     DIIS  NEXP   TIME(IT)  TIME(TOT)  DIAG
   1     -214.38244193    -214.38244193     0.00D+00     0.37D-01     0     0       4.52      8.85    start
   2     -214.45480521      -0.07236327     0.67D-02     0.78D-02     1     0       4.53     13.38    diag
   3     -214.53020033      -0.07539513     0.55D-02     0.34D-02     2     0       4.52     17.90    diag
   4     -214.53079537      -0.00059504     0.34D-03     0.34D-03     3     0       4.55     22.45    diag
   5     -214.53086622      -0.00007084     0.14D-03     0.13D-03     4     0       4.56     27.01    diag
   6     -214.53087425      -0.00000803     0.45D-04     0.40D-04     5     0       4.52     31.53    diag
   7     -214.53087490      -0.00000066     0.10D-04     0.15D-04     6     0       4.51     36.04    diag
   8     -214.53087496      -0.00000006     0.25D-05     0.45D-05     7     0       4.53     40.57    fixocc
   9     -214.53087497      -0.00000001     0.84D-06     0.13D-05     8     0       4.53     45.10    diag
  10     -214.53087497      -0.00000000     0.24D-06     0.32D-06     0     0       4.51     49.61    diag/orth

 Final occupancy:  14

 !RHF STATE 1.1 Energy               -214.530874967243
  RHF One-electron energy            -437.653267988435
  RHF Two-electron energy             155.691683045783
  RHF Kinetic energy                  214.504300696464
  RHF Nuclear energy                   67.430709975409
  RHF Virial quotient                  -1.000123886890

 !RHF STATE 1.1 Dipole moment           1.53891179     0.47555579     0.01618333
 Dipole moment /Debye                   3.91152362     1.20874226     0.04113393

 Orbital energies:

           1.1          2.1          3.1          4.1          5.1          6.1          7.1          8.1          9.1         10.1
    -26.096820   -20.171716   -11.107031    -1.401238    -0.906623    -0.761073    -0.510548    -0.509228    -0.485499    -0.349462

          11.1         12.1         13.1         14.1         15.1         16.1
     -0.346621    -0.254514    -0.117593    -0.117010     0.282408     0.349022


 HOMO     14.1    -0.117010 =      -3.1840eV
 LUMO     15.1     0.282408 =       7.6847eV
 LUMO-HOMO         0.399418 =      10.8687eV

 Orbitals saved in record  2100.2


 **********************************************************************************************************************************
 DATASETS  * FILE   NREC   LENGTH (MB)   RECORD NAMES
              1      19     1993.27       500      610      700      900      950      970     1000      129      960     1100   
                                          VAR    BASINP    GEOM    SYMINP    ZMAT    AOBASIS   BASIS     P2S    ABASIS      S 
                                         1400     1410     1200     1210     1080     1600     1650     1300     1700   
                                           T        V       H0       H01     AOSYM     SMH    MOLCAS    ERIS     OPER   

              2       4        1.76       700     1000      520     2100   
                                         GEOM     BASIS   MCVARS     RHF  

 PROGRAMS   *        TOTAL    HF-SCF       INT
 CPU TIMES  *        86.25     49.62     36.52
 REAL TIME  *       109.06 SEC
 DISK USED  *         8.84 GB
 **********************************************************************************************************************************


 PROGRAM * MP4 (Closed-shell)     Authors: C. Hampel, H.-J. Werner, 1991, M. Deegan, P.J. Knowles, 1992


 Convergence thresholds:  THRVAR = 1.00D-08  THRDEN = 1.00D-06

 MP4(T)     terms to be evaluated (factor= 0.000)


 Number of core orbitals:           3 (   3 )
 Number of closed-shell orbitals:  11 (  11 )
 Number of external orbitals:     271 ( 271 )

 Molecular orbitals read from record     2100.2  Type=RHF/CANONICAL  

 Number of N-1 electron functions:              11
 Number of N-2 electron functions:              66
 Number of singly external CSFs:              2981
 Number of doubly external CSFs:           4444671
 Total number of CSFs:                     4447653

 Length of J-op  integral file:               0.00 MB
 Length of K-op  integral file:               5.64 MB

 Memory could be reduced to 280.53 Mwords without degradation in triples

 Integral transformation finished. Total CPU:  26.85 sec, npass=  1  Memory used: 150.09 MW

 Reference energy:                   -214.53087497

                        CORR.ENERGY   TOTAL ENERGY   ENERGY CHANGE
 MP2:                   -0.76781716  -215.29869212    -0.76781716

 SCS-MP2 correlation energy:           -0.76429806   (PS=  1.200000  PT=  0.333333)
 SCS-MP2 total energy:               -215.29517303

 MP3(D):                -0.77075311  -215.30162808    -0.00293596
 MP4(DQ):               -0.77242407  -215.30329904    -0.00167096
 MP4(SDQ):              -0.77883858  -215.30971354    -0.00641451

 Norm of t1 vector:      0.06273261      S-energy:    -0.00641451      T1 diagnostic:  0.00945730


 Total CPU time for triples:    449.72 sec


 RESULTS
 =======

  Reference energy                   -214.530874967244
  MP4(SDQ) singlet pair energy         -0.522465052499
  MP4(SDQ) triplet pair energy         -0.249959019408
  MP4(SDQ) correlation energy          -0.778838577368

  Triples contribution                 -0.029601100004
  Total correlation energy             -0.808439677372

  MP4(SDQ) total energy              -215.309713544611
 !MP4(SDTQ) total energy             -215.339314644615

 Timing summary (sec):

 STEP                 CPU(USER)    SYS     CPU(TOT)    WALL
 Transformation         27.15      1.96     29.11     29.30
 CCSD iterations       123.72      0.84    124.56     50.65
 Triples               449.72      9.01    458.73    481.73

 Program statistics:

 Available memory in ccsd:              1073741326
 Min. memory needed in ccsd:              11746667
 Max. memory used in ccsd:                15703279
 Max. memory used in cckext:              11402446 ( 1 integral passes)



 **********************************************************************************************************************************
 DATASETS  * FILE   NREC   LENGTH (MB)   RECORD NAMES
              1      20     2894.16       500      610      700      900      950      970     1000      129      960     1100   
                                          VAR    BASINP    GEOM    SYMINP    ZMAT    AOBASIS   BASIS     P2S    ABASIS      S 
                                         1400     1410     1200     1210     1080     1600     1650     1300     1700     1380   
                                           T        V       H0       H01     AOSYM     SMH    MOLCAS    ERIS     OPER     JKOP   

              2       4        1.76       700     1000      520     2100   
                                         GEOM     BASIS   MCVARS     RHF  

 PROGRAMS   *        TOTAL       MP4    HF-SCF       INT
 CPU TIMES  *       600.25    514.00     49.62     36.52
 REAL TIME  *       671.08 SEC
 DISK USED  *         8.84 GB
 **********************************************************************************************************************************

 Dump information in style XML to xml output                                                                      

 Orbitals will not be exported.

 **********************************************************************************************************************************

 MP4/cc-pVQZ energy=   -215.339314644615

             MP4          HF-SCF
   -215.33931464   -214.53087497
 **********************************************************************************************************************************
 Molpro calculation terminated
