
 Working directory              : /tmp/peterk/molpro.CEFKVzE4p4/
 Global scratch directory       : /tmp/peterk/molpro.CEFKVzE4p4/
 Wavefunction directory         : /home/peterk/wfu/
 Main file repository           : /tmp/peterk/molpro.CEFKVzE4p4/

 id        : peterk

 Nodes     nprocs
 marat        1
 GA implementation: MPI file
 GA implementation (serial work in mppx): MPI file

 Using customized tuning parameters: mindgm=1; mindgv=20; mindgc=4; mindgr=1; noblas=0; minvec=7
 default implementation of scratch files=df  


 Variables initialized (1032), CPU time= 0.00 sec
 
 symmetry,nosym
 
 
 geometry={
           12
     N         -0.79328369     -1.37400766     -0.32036436
     P         -1.76898046      0.00000000      0.03727417
     N         -0.79328369      1.37400766     -0.32036436
     P          0.88449023      1.53198202      0.03727417
     N          1.58656739      0.00000000     -0.32036436
     P          0.88449023     -1.53198202      0.03727417
     H         -1.08668589     -1.88219517     -1.14115553
     H         -1.47492030      0.00000000      1.42424573
     H         -1.08668589      1.88219517     -1.14115553
     H          0.73746015      1.27731845      1.42424573
     H          2.17337177      0.00000000     -1.14115553
     H          0.73746015     -1.27731845      1.42424573
 }
 basis=cc-pVTZ
 
 
 
 hf; ccsd(t)
 
 
 
 {put,xml;noorbitals,nobasis}
 Commands initialized (841), CPU time= 0.00 sec, 708 directives.
 Default parameters read. Elapsed time= 0.05 sec

 Checking input...
 Passed
1


                                         ***  PROGRAM SYSTEM MOLPRO  ***
                                       Copyright, TTI GmbH Stuttgart, 2015
                                    Version 2023.1 linked Sat Jun 10 08:01:27 2023


 **********************************************************************************************************************************
 LABEL *                                                                                                                                                                 
  (16 PROC) 64 bit serial version                                                        DATE: 13-Jun-23          TIME: 15:23:28  
 **********************************************************************************************************************************

 SHA1:             8376d659ba1296ca7ee514c57770fe2c96af278c
 **********************************************************************************************************************************

 Memory per process:      1074 MW
 Total memory per node:   1074 MW

 GA preallocation disabled
 GA check disabled

 Variable memory set to 1073.7 MW

 ZSYMEL=NOSYM


 Geometry recognized as XYZ

 SETTING BASIS          =    CC-PVTZ


 Recomputing integrals since basis changed


 Using spherical harmonics

 Library entry N      S cc-pVTZ              selected for orbital group  1
 Library entry N      P cc-pVTZ              selected for orbital group  1
 Library entry N      D cc-pVTZ              selected for orbital group  1
 Library entry N      F cc-pVTZ              selected for orbital group  1
 Library entry P      S cc-pVTZ              selected for orbital group  2
 Library entry P      P cc-pVTZ              selected for orbital group  2
 Library entry P      D cc-pVTZ              selected for orbital group  2
 Library entry P      F cc-pVTZ              selected for orbital group  2
 Library entry H      S cc-pVTZ              selected for orbital group  7
 Library entry H      P cc-pVTZ              selected for orbital group  7
 Library entry H      D cc-pVTZ              selected for orbital group  7


 PROGRAM * SEWARD (Integral evaluation for generally contracted gaussian basis sets)     Author: Roland Lindh, 1990

 Geometry written to block  1 of record 700


 Point group  C1  



 ATOMIC COORDINATES

 NR  ATOM    CHARGE       X              Y              Z

   1  N       7.00   -1.499088913   -2.596498171   -0.605400900
   2  P      15.00   -3.342888589    0.000000000    0.070437973
   3  N       7.00   -1.499088913    2.596498171   -0.605400900
   4  P      15.00    1.671444295    2.895026446    0.070437973
   5  N       7.00    2.998177845    0.000000000   -0.605400900
   6  P      15.00    1.671444295   -2.895026446    0.070437973
   7  H       1.00   -2.053538716   -3.556833384   -2.156471417
   8  H       1.00   -2.787195423    0.000000000    2.691434364
   9  H       1.00   -2.053538716    3.556833384   -2.156471417
  10  H       1.00    1.393597711    2.413782044    2.691434364
  11  H       1.00    4.107077412    0.000000000   -2.156471417
  12  H       1.00    1.393597711   -2.413782044    2.691434364

 Bond lengths in Bohr (Angstrom)

 1-2  3.255481251  1-6  3.255481245  1-7  1.906692963  2-3  3.255481251  2-8  2.679256796
     ( 1.722726489)     ( 1.722726485)     ( 1.008978464)     ( 1.722726489)     ( 1.417801638)

  3- 4  3.255481245   3- 9  1.906692963   4- 5  3.255481258   4-10  2.679256796   5- 6  3.255481258
       ( 1.722726485)       ( 1.008978464)       ( 1.722726492)       ( 1.417801639)       ( 1.722726492)

  5-11  1.906692948   6-12  2.679256796
       ( 1.008978456)       ( 1.417801639)

 Bond angles

  1- 2- 3  105.79875380   1- 2- 8   94.91157002   1- 6- 5  105.79875394   1- 6-12   94.91157003

  2-1-6  125.56521225   2-1-7  113.94737884   2-3-4  125.56521225   2-3-9  113.94737884

  3- 2- 8   94.91157002   3- 4- 5  105.79875394   3- 4-10   94.91157003   4- 3- 9  113.94737925

  4- 5- 6  125.56521191   4- 5-11  113.94737899   5- 4-10   94.91156998   5- 6-12   94.91156998

  6- 1- 7  113.94737925   6- 5-11  113.94737899

 NUCLEAR CHARGE:                   72
 NUMBER OF PRIMITIVE AOS:         435
 NUMBER OF SYMMETRY AOS:          399
 NUMBER OF CONTRACTIONS:          276   (  276A   )
 NUMBER OF INNER CORE ORBITALS:     3   (    3A   )
 NUMBER OF OUTER CORE ORBITALS:    15   (   15A   )
 NUMBER OF VALENCE ORBITALS:       30   (   30A   )


 NUCLEAR REPULSION ENERGY  478.78948540


 Eigenvalues of metric

         1 0.100E-02 0.100E-02 0.121E-02 0.173E-02 0.173E-02 0.190E-02 0.190E-02 0.198E-02


 Contracted 2-electron integrals neglected if value below      1.0D-11
 AO integral compression algorithm  1   Integral accuracy      1.0D-11

     2453.668 MB (compressed) written to integral file ( 39.1%)


 NUMBER OF SORTED TWO-ELECTRON INTEGRALS:  730632651.     BUFFER LENGTH:  32768
 NUMBER OF SEGMENTS:  46  SEGMENT LENGTH:   15999984      RECORD LENGTH: 262144

 Memory used in sort:      16.29 MW

 SORT1 READ   783544483. AND WROTE   636929596. INTEGRALS IN   3664 RECORDS. CPU TIME:    32.64 SEC, REAL TIME:   385.55 SEC
 SORT2 READ   636929596. AND WROTE   730632651. INTEGRALS IN   9360 RECORDS. CPU TIME:    17.05 SEC, REAL TIME:   134.46 SEC

 FILE SIZES:   FILE 1:  2486.7 MBYTE,  FILE 4:  7684.0 MBYTE,   TOTAL:  10170.7 MBYTE

 OPERATOR DM      FOR CENTER  0  COORDINATES:    0.000000    0.000000    0.000000


 **********************************************************************************************************************************
 DATASETS  * FILE   NREC   LENGTH (MB)   RECORD NAMES
              1      19     2183.03       500      610      700      900      950      970     1000      129      960     1100   
                                          VAR    BASINP    GEOM    SYMINP    ZMAT    AOBASIS   BASIS     P2S    ABASIS      S 
                                         1400     1410     1200     1210     1080     1600     1650     1300     1700   
                                           T        V       H0       H01     AOSYM     SMH    MOLCAS    ERIS     OPER   

 PROGRAMS   *        TOTAL       INT
 CPU TIMES  *        76.35     76.26
 REAL TIME  *       553.89 SEC
 DISK USED  *         9.47 GB
 **********************************************************************************************************************************


 Program * Restricted Hartree-Fock

 Orbital guess generated from atomic densities. Full valence occupancy:   48

 Initial occupancy:  36

 NELEC=   72   SYM=1   MS2= 0   THRE=1.0D-08   THRD=3.2D-06   THRG=3.2D-06  HFMA2=F  DIIS_START=2   DIIS_MAX=10   DIIS_INCORE=F

 Level shifts:    0.00 (CLOSED)    0.00 (OPEN)    0.30 (GAP_MIN)

 ITER           ETOT              DE          GRAD        DDIFF     DIIS  NEXP   TIME(IT)  TIME(TOT)  DIAG
   1    -1189.13943486   -1189.13943486     0.00D+00     0.57D-01     0     0       4.26      8.03    start
   2    -1189.20912239      -0.06968753     0.25D-02     0.40D-02     1     0       4.36     12.39    diag
   3    -1189.21719833      -0.00807594     0.89D-03     0.12D-02     2     0       4.37     16.76    diag
   4    -1189.21885226      -0.00165394     0.38D-03     0.52D-03     3     0       4.32     21.08    diag
   5    -1189.21893648      -0.00008422     0.70D-04     0.11D-03     4     0       4.30     25.38    diag
   6    -1189.21894506      -0.00000858     0.22D-04     0.36D-04     5     0       4.31     29.69    diag
   7    -1189.21894552      -0.00000046     0.40D-05     0.10D-04     6     0       4.26     33.95    diag
   8    -1189.21894555      -0.00000003     0.11D-05     0.23D-05     7     0       4.28     38.23    fixocc
   9    -1189.21894556      -0.00000000     0.35D-06     0.91D-06     8     0       4.17     42.40    diag
  10    -1189.21894556      -0.00000000     0.13D-06     0.21D-06     0     0       4.28     46.68    diag/orth

 Final occupancy:  36

 !RHF STATE 1.1 Energy              -1189.218945559021
  RHF One-electron energy           -2596.322138383528
  RHF Two-electron energy             928.313707425050
  RHF Kinetic energy                 1188.777627645022
  RHF Nuclear energy                  478.789485399457
  RHF Virial quotient                  -1.000371236726

 !RHF STATE 1.1 Dipole moment           0.00000001     0.00000000    -0.53927071
 Dipole moment /Debye                   0.00000003     0.00000000    -1.37068943

 Orbital energies:

           1.1          2.1          3.1          4.1          5.1          6.1          7.1          8.1          9.1         10.1
    -79.983420   -79.983420   -79.983420   -15.556374   -15.556374   -15.556357    -7.518237    -7.518237    -7.518227    -5.411946

          11.1         12.1         13.1         14.1         15.1         16.1         17.1         18.1         19.1         20.1
     -5.411945    -5.411945    -5.411627    -5.411621    -5.411621    -5.411128    -5.411118    -5.411118    -1.214619    -1.150167

          21.1         22.1         23.1         24.1         25.1         26.1         27.1         28.1         29.1         30.1
     -1.150167    -0.835708    -0.835708    -0.789661    -0.638179    -0.638179    -0.607767    -0.606207    -0.539317    -0.539317

          31.1         32.1         33.1         34.1         35.1         36.1         37.1         38.1
     -0.490168    -0.417114    -0.411294    -0.411294    -0.347180    -0.347180     0.123916     0.126196


 HOMO     36.1    -0.347180 =      -9.4472eV
 LUMO     37.1     0.123916 =       3.3719eV
 LUMO-HOMO         0.471095 =      12.8192eV

 Orbitals saved in record  2100.2


 **********************************************************************************************************************************
 DATASETS  * FILE   NREC   LENGTH (MB)   RECORD NAMES
              1      19     2183.03       500      610      700      900      950      970     1000      129      960     1100   
                                          VAR    BASINP    GEOM    SYMINP    ZMAT    AOBASIS   BASIS     P2S    ABASIS      S 
                                         1400     1410     1200     1210     1080     1600     1650     1300     1700   
                                           T        V       H0       H01     AOSYM     SMH    MOLCAS    ERIS     OPER   

              2       4        1.77       700     1000      520     2100   
                                         GEOM     BASIS   MCVARS     RHF  

 PROGRAMS   *        TOTAL    HF-SCF       INT
 CPU TIMES  *       123.04     46.69     76.26
 REAL TIME  *       605.42 SEC
 DISK USED  *         9.47 GB
 **********************************************************************************************************************************


 PROGRAM * CCSD (Closed-shell coupled cluster)     Authors: C. Hampel, H.-J. Werner, 1991, M. Deegan, P.J. Knowles, 1992


 Convergence thresholds:  THRVAR = 1.00D-08  THRDEN = 1.00D-06

 CCSD(T)     terms to be evaluated (factor= 1.000)


 Number of core orbitals:          18 (  18 )
 Number of closed-shell orbitals:  18 (  18 )
 Number of external orbitals:     240 ( 240 )

 Molecular orbitals read from record     2100.2  Type=RHF/CANONICAL  

 Number of N-1 electron functions:              18
 Number of N-2 electron functions:             171
 Number of singly external CSFs:              4320
 Number of doubly external CSFs:           9333360
 Total number of CSFs:                     9337681

 Length of J-op  integral file:               0.00 MB
 Length of K-op  integral file:               5.29 MB
 Length of 3-ext integral record:             0.00 MB

 Memory could be reduced to 306.25 Mwords without degradation in triples

 Integral transformation finished. Total CPU:  45.40 sec, npass=  1  Memory used: 223.30 MW

 Reference energy:                  -1189.21894556

 MP2 singlet pair energy:              -0.68296675
 MP2 triplet pair energy:              -0.38892675
 MP2 correlation energy:               -1.07189350
 MP2 total energy:                  -1190.29083906

 SCS-MP2 correlation energy:           -1.06155897   (PS=  1.200000  PT=  0.333333)
 SCS-MP2 total energy:              -1190.28050453

 ITER.      SQ.NORM     CORR.ENERGY   TOTAL ENERGY   ENERGY CHANGE        DEN1      VAR(S)    VAR(P)  DIIS     TIME  TIME/IT
   1      1.38618071    -1.11735024 -1190.33629580    -0.04545675    -0.01394218  0.61D-02  0.73D-02  1  1   239.91    81.82
   2      1.41820973    -1.12179919 -1190.34074475    -0.00444895    -0.02816300  0.17D-03  0.10D-02  2  2   309.47    80.84
   3      1.43142282    -1.12189345 -1190.34083901    -0.00009426    -0.00616611  0.10D-03  0.51D-04  3  3   382.03    89.80
   4      1.43579899    -1.12187421 -1190.34081977     0.00001923    -0.00136313  0.10D-04  0.73D-05  4  4   450.69    85.33
   5      1.43715613    -1.12187114 -1190.34081669     0.00000308    -0.00025009  0.25D-05  0.73D-06  5  5   520.25    82.36
   6      1.43762213    -1.12185016 -1190.34079572     0.00002098    -0.00005983  0.30D-06  0.12D-06  6  6   595.47    82.04
   7      1.43772525    -1.12184656 -1190.34079212     0.00000360    -0.00000714  0.45D-07  0.21D-07  6  2   677.97    82.26
   8      1.43775370    -1.12184536 -1190.34079092     0.00000120    -0.00000173  0.83D-08  0.29D-08  6  1   766.72    83.22
   9      1.43775999    -1.12184533 -1190.34079089     0.00000003     0.00000123  0.13D-08  0.56D-09  6  4   856.68    84.07
  10      1.43776292    -1.12184537 -1190.34079093    -0.00000004    -0.00000040  0.19D-09  0.71D-10  6  3   947.14    84.82

 Norm of t1 vector:      0.11994841      S-energy:     0.00000022      T1 diagnostic:  0.01413606
                                                                       D1 diagnostic:  0.03332844
                                                                       D2 diagnostic:  0.17629721 (internal)


 Total CPU time for triples:   1908.76 sec


 RESULTS
 =======

  Reference energy                  -1189.218945559023
  CCSD singlet pair energy             -0.767135894751
  CCSD triplet pair energy             -0.354709695471
  CCSD correlation energy              -1.121845373465

  Triples (T) contribution             -0.052595454267
  Total correlation energy             -1.174440827732

  CCSD total energy                 -1190.340790932488
  CCSD[T] energy                    -1190.394881258695
  CCSD-T energy                     -1190.392700966659
 !CCSD(T) total energy              -1190.393386386755

 Timing summary (sec):

 STEP                 CPU(USER)    SYS     CPU(TOT)    WALL
 Transformation         46.26      1.72     47.98    110.89
 CCSD iterations       901.66      8.74    910.40    849.74
 Triples              1908.76     28.42   1937.18   1939.42

 Program statistics:

 Available memory in ccsd:              1073740492
 Min. memory needed in ccsd:              22706089
 Max. memory used in ccsd:                31188841
 Max. memory used in cckext:              26868824 (10 integral passes)



 **********************************************************************************************************************************
 DATASETS  * FILE   NREC   LENGTH (MB)   RECORD NAMES
              1      20     3286.63       500      610      700      900      950      970     1000      129      960     1100   
                                          VAR    BASINP    GEOM    SYMINP    ZMAT    AOBASIS   BASIS     P2S    ABASIS      S 
                                         1400     1410     1200     1210     1080     1600     1650     1300     1700     1380   
                                           T        V       H0       H01     AOSYM     SMH    MOLCAS    ERIS     OPER     JKOP   

              2       4        1.77       700     1000      520     2100   
                                         GEOM     BASIS   MCVARS     RHF  

 PROGRAMS   *        TOTAL   CCSD(T)    HF-SCF       INT
 CPU TIMES  *      2856.37   2733.32     46.69     76.26
 REAL TIME  *      3506.14 SEC
 DISK USED  *         9.47 GB
 **********************************************************************************************************************************

 Dump information in style XML to xml output                                                                      

 Orbitals will not be exported.

 **********************************************************************************************************************************

 CCSD(T)/cc-pVTZ energy=  -1190.393386386755

         CCSD(T)          HF-SCF
  -1190.39338639  -1189.21894556
 **********************************************************************************************************************************
 Molpro calculation terminated
