
 Working directory              : /var/folders/2v/xbgp75_9785319ghcgb4zr4r0000gp/T//molpro.pojwXPwoPR/
 Global scratch directory       : /var/folders/2v/xbgp75_9785319ghcgb4zr4r0000gp/T//molpro.pojwXPwoPR/
 Wavefunction directory         : /Users/sacpjk/wfu/
 Main file repository           : /var/folders/2v/xbgp75_9785319ghcgb4zr4r0000gp/T//molpro.pojwXPwoPR/

 id        : peterk

 Nodes                        nprocs
 Cardiff-University-G34YLXT77Y    1
 GA implementation: MPI file
 GA implementation (serial work in mppx): MPI file

 Using customized tuning parameters: mindgm=1; mindgv=20; mindgc=4; mindgr=1; noblas=0; minvec=7
 default implementation of scratch files=df  


 Variables initialized (1032), CPU time= 0.00 sec
 
 symmetry,nosym
 
 
 geometry={
            3
     O          0.00000000      0.00000000      0.39048483
     H         -0.75670759      0.00000000     -0.19524242
     H          0.75670759      0.00000000     -0.19524242
 }
 basis=cc-pVDZ
 
 
 
 hf
 
 
 
 {put,xml;noorbitals,nobasis}
 Commands initialized (841), CPU time= 0.01 sec, 704 directives.
 Default parameters read. Elapsed time= 0.18 sec

 Checking input...
 Passed
1


                                         ***  PROGRAM SYSTEM MOLPRO  ***
                                       Copyright, TTI GmbH Stuttgart, 2015
                                    Version 2023.1 linked Tue Jun  6 09:54:11 2023


 **********************************************************************************************************************************
 LABEL *                                                                                                                                                                 
  64 bit serial version                                                                  DATE: 09-Jun-23          TIME: 09:26:42  
 **********************************************************************************************************************************

 SHA1:             8ebb0dd001088a5c915591db1a321413035db0b1
 **********************************************************************************************************************************

 Memory per process:       805 MW
 Total memory per node:   1074 MW
 Total GA space:           268 MW

 GA preallocation disabled
 GA check enabled

 Variable memory set to 805.3 MW

 ZSYMEL=NOSYM


 Geometry recognized as XYZ

 SETTING BASIS          =    CC-PVDZ


 Recomputing integrals since basis changed


 Using spherical harmonics

 Library entry O      S cc-pVDZ              selected for orbital group  1
 Library entry O      P cc-pVDZ              selected for orbital group  1
 Library entry O      D cc-pVDZ              selected for orbital group  1
 Library entry H      S cc-pVDZ              selected for orbital group  2
 Library entry H      P cc-pVDZ              selected for orbital group  2


 PROGRAM * SEWARD (Integral evaluation for generally contracted gaussian basis sets)     Author: Roland Lindh, 1990

 Geometry written to block  1 of record 700


 Point group  C1  



 ATOMIC COORDINATES

 NR  ATOM    CHARGE       X              Y              Z

   1  O       8.00    0.000000000    0.000000000    0.737909385
   2  H       1.00   -1.429970102    0.000000000   -0.368954702
   3  H       1.00    1.429970102    0.000000000   -0.368954702

 Bond lengths in Bohr (Angstrom)

 1-2  1.808303790  1-3  1.808303790
     ( 0.956913156)     ( 0.956913156)

 Bond angles

  2-1-3  104.51688887

 NUCLEAR CHARGE:                   10
 NUMBER OF PRIMITIVE AOS:          41
 NUMBER OF SYMMETRY AOS:           40
 NUMBER OF CONTRACTIONS:           24   (   24A   )
 NUMBER OF INNER CORE ORBITALS:     0   (    0A   )
 NUMBER OF OUTER CORE ORBITALS:     1   (    1A   )
 NUMBER OF VALENCE ORBITALS:        6   (    6A   )


 NUCLEAR REPULSION ENERGY    9.19772848

 EXTRA SYMMETRY OF AOS IN SYMMETRY 1:   1 1 1 1 2 1 1 2 1 1   2 1 1 2 1 1 1 2 1 1   1 1 2 1

 Eigenvalues of metric

         1 0.176E-01 0.443E-01 0.505E-01 0.986E-01 0.159E+00 0.170E+00 0.183E+00 0.222E+00


 Contracted 2-electron integrals neglected if value below      1.0D-11
 AO integral compression algorithm  1   Integral accuracy      1.0D-11

     0.262 MB (compressed) written to integral file ( 77.7%)


 NUMBER OF SORTED TWO-ELECTRON INTEGRALS:      45150.     BUFFER LENGTH:  32768
 NUMBER OF SEGMENTS:   1  SEGMENT LENGTH:      45150      RECORD LENGTH: 524288

 Memory used in sort:       0.60 MW

 SORT1 READ       59680. AND WROTE       21643. INTEGRALS IN      1 RECORDS. CPU TIME:     0.00 SEC, REAL TIME:     0.00 SEC
 SORT2 READ       21643. AND WROTE       45150. INTEGRALS IN      1 RECORDS. CPU TIME:     0.01 SEC, REAL TIME:     0.01 SEC

 FILE SIZES:   FILE 1:    30.3 MBYTE,  FILE 4:     4.3 MBYTE,   TOTAL:     34.5 MBYTE

 OPERATOR DM      FOR CENTER  0  COORDINATES:    0.000000    0.000000    0.000000


 **********************************************************************************************************************************
 DATASETS  * FILE   NREC   LENGTH (MB)   RECORD NAMES
              1      19       28.78       500      610      700      900      950      970     1000      129      960     1100   
                                          VAR    BASINP    GEOM    SYMINP    ZMAT    AOBASIS   BASIS     P2S    ABASIS      S 
                                         1400     1410     1200     1210     1080     1600     1650     1300     1700   
                                           T        V       H0       H01     AOSYM     SMH    MOLCAS    ERIS     OPER   

 PROGRAMS   *        TOTAL       INT
 CPU TIMES  *         0.17      0.09
 REAL TIME  *         0.76 SEC
 DISK USED  *        33.30 MB
 **********************************************************************************************************************************


 Program * Restricted Hartree-Fock

 Orbital guess generated from atomic densities. Full valence occupancy:    7

 Initial occupancy:   5

 NELEC=   10   SYM=1   MS2= 0   THRE=1.0D-08   THRD=3.2D-06   THRG=3.2D-06  HFMA2=F  DIIS_START=2   DIIS_MAX=10   DIIS_INCORE=F

 Level shifts:    0.00 (CLOSED)    0.00 (OPEN)    0.30 (GAP_MIN)

 ITER           ETOT              DE          GRAD        DDIFF     DIIS  NEXP   TIME(IT)  TIME(TOT)  DIAG
   1      -75.98865304     -75.98865304     0.00D+00     0.24D+00     0     0       0.00      0.00    start
   2      -76.01820807      -0.02955503     0.22D-01     0.46D-01     1     0       0.00      0.00    diag
   3      -76.02657949      -0.00837142     0.11D-01     0.15D-01     2     0       0.00      0.00    diag
   4      -76.02679422      -0.00021472     0.13D-02     0.28D-02     3     0       0.00      0.00    diag
   5      -76.02681128      -0.00001707     0.34D-03     0.87D-03     4     0       0.00      0.00    diag
   6      -76.02681183      -0.00000055     0.54D-04     0.14D-03     5     0       0.00      0.00    diag
   7      -76.02681184      -0.00000001     0.78D-05     0.25D-04     6     0       0.00      0.00    diag
   8      -76.02681184      -0.00000000     0.66D-06     0.18D-05     7     0       0.00      0.00    fixocc
   9      -76.02681184      -0.00000000     0.76D-07     0.15D-06     0     0       0.00      0.00    diag

 Final occupancy:   5

 !RHF STATE 1.1 Energy                -76.026811844643
  RHF One-electron energy            -123.156073301504
  RHF Two-electron energy              37.931532975066
  RHF Kinetic energy                   75.990013468042
  RHF Nuclear energy                    9.197728481796
  RHF Virial quotient                  -1.000484252797

 !RHF STATE 1.1 Dipole moment          -0.00000000     0.00000000    -0.80888133
 Dipole moment /Debye                  -0.00000000     0.00000000    -2.05597128

 Orbital energies:

           1.1          2.1          3.1          4.1          5.1          6.1          7.1
    -20.550365    -1.336857    -0.699484    -0.566627    -0.493169     0.185627     0.256301


 HOMO      5.1    -0.493169 =     -13.4198eV
 LUMO      6.1     0.185627 =       5.0512eV
 LUMO-HOMO         0.678796 =      18.4710eV

 Orbitals saved in record  2100.2


 **********************************************************************************************************************************
 DATASETS  * FILE   NREC   LENGTH (MB)   RECORD NAMES
              1      19       28.78       500      610      700      900      950      970     1000      129      960     1100   
                                          VAR    BASINP    GEOM    SYMINP    ZMAT    AOBASIS   BASIS     P2S    ABASIS      S 
                                         1400     1410     1200     1210     1080     1600     1650     1300     1700   
                                           T        V       H0       H01     AOSYM     SMH    MOLCAS    ERIS     OPER   

              2       4        0.42       700     1000      520     2100   
                                         GEOM     BASIS   MCVARS     RHF  

 PROGRAMS   *        TOTAL    HF-SCF       INT
 CPU TIMES  *         0.17      0.00      0.09
 REAL TIME  *         0.84 SEC
 DISK USED  *        33.30 MB
 **********************************************************************************************************************************

 Dump information in style XML to xml output                                                                      

 Orbitals will not be exported.

 **********************************************************************************************************************************

 HF/cc-pVDZ energy=    -76.026811844643

          HF-SCF
    -76.02681184
 **********************************************************************************************************************************
 Molpro calculation terminated
