
 Working directory              : /var/folders/2v/xbgp75_9785319ghcgb4zr4r0000gp/T//molpro.XXWn6YPl3q/
 Global scratch directory       : /var/folders/2v/xbgp75_9785319ghcgb4zr4r0000gp/T//molpro.XXWn6YPl3q/
 Wavefunction directory         : /Users/sacpjk/wfu/
 Main file repository           : /var/folders/2v/xbgp75_9785319ghcgb4zr4r0000gp/T//molpro.XXWn6YPl3q/

 id        : peterk

 Nodes                        nprocs
 Cardiff-University-G34YLXT77Y    1
 GA implementation: MPI file
 GA implementation (serial work in mppx): MPI file

 Using customized tuning parameters: mindgm=1; mindgv=20; mindgc=4; mindgr=1; noblas=0; minvec=7
 default implementation of scratch files=df  


 Variables initialized (1032), CPU time= 0.00 sec
 
 core,small
 angstrom
 
 geometry={
 H;C,H,1.06553056;N,C,1.15383982,H,180
 }
 basis=cc-pCVQZ
 
 
 
 hf; hf; papt; mp3
 
 
 
 {put,xml;noorbitals,nobasis}
 Commands initialized (841), CPU time= 0.00 sec, 704 directives.
 Default parameters read. Elapsed time= 0.71 sec

 Checking input...
 Passed
1


                                         ***  PROGRAM SYSTEM MOLPRO  ***
                                       Copyright, TTI GmbH Stuttgart, 2015
                                    Version 2023.1 linked Tue Jun  6 09:54:11 2023


 **********************************************************************************************************************************
 LABEL *                                                                                                                                                                 
  64 bit serial version                                                                  DATE: 12-Jun-23          TIME: 10:50:51  
 **********************************************************************************************************************************

 SHA1:             8ebb0dd001088a5c915591db1a321413035db0b1
 **********************************************************************************************************************************

 Memory per process:       393 MW
 Total memory per node:    524 MW
 Total GA space:           131 MW

 GA preallocation disabled
 GA check enabled

 Variable memory set to 393.2 MW

 ZUNIT=ANG

 SETTING BASIS          =    CC-PCVQZ


 Recomputing integrals since basis changed


 Using spherical harmonics

 Library entry H      S cc-pVQZ              selected for orbital group  1
 Library entry H      P cc-pVQZ              selected for orbital group  1
 Library entry H      D cc-pVQZ              selected for orbital group  1
 Library entry H      F cc-pVQZ              selected for orbital group  1
 Library entry C      S cc-pCVQZ             selected for orbital group  2
 Library entry C      P cc-pCVQZ             selected for orbital group  2
 Library entry C      D cc-pCVQZ             selected for orbital group  2
 Library entry C      F cc-pCVQZ             selected for orbital group  2
 Library entry C      G cc-pCVQZ             selected for orbital group  2
 Library entry N      S cc-pCVQZ             selected for orbital group  3
 Library entry N      P cc-pCVQZ             selected for orbital group  3
 Library entry N      D cc-pCVQZ             selected for orbital group  3
 Library entry N      F cc-pCVQZ             selected for orbital group  3
 Library entry N      G cc-pCVQZ             selected for orbital group  3


 PROGRAM * SEWARD (Integral evaluation for generally contracted gaussian basis sets)     Author: Roland Lindh, 1990

 Geometry written to block  1 of record 700

 Orientation using atomic masses  
 Molecule type: Linear
 Symmetry elements: X,Y
 Rotational constants:      44.4511927     44.4511927      0.0000000 GHz  (calculated with average atomic masses)

 Point group  C2v 



 ATOMIC COORDINATES

 NR  ATOM    CHARGE       X              Y              Z

   1  H       1.00    0.000000000    0.000000000   -3.068530878
   2  C       6.00    0.000000000    0.000000000   -1.054969942
   3  N       7.00    0.000000000    0.000000000    1.125471309

 Bond lengths in Bohr (Angstrom)

 1-2  2.013560936  2-3  2.180441251
     ( 1.065530560)     ( 1.153839820)

 Bond angles

  1-2-3  179.99999879

 NUCLEAR CHARGE:                   14
 NUMBER OF PRIMITIVE AOS:         271
 NUMBER OF SYMMETRY AOS:          226
 NUMBER OF CONTRACTIONS:          198   (   81A1  +   47B1  +   47B2  +   23A2  )
 NUMBER OF INNER CORE ORBITALS:     0   (    0A1  +    0B1  +    0B2  +    0A2  )
 NUMBER OF OUTER CORE ORBITALS:     2   (    2A1  +    0B1  +    0B2  +    0A2  )
 NUMBER OF VALENCE ORBITALS:        9   (    5A1  +    2B1  +    2B2  +    0A2  )


 NUCLEAR REPULSION ENERGY   23.91100196

 EXTRA SYMMETRY OF AOS IN SYMMETRY 1:   1 1 1 1 1 1 1 1 2 1   2 1 2 1 1 1 1 1 1 1   1 1 1 1 1 1 1 1 1 2   1 2 1 2 1 2 1 2 1 2
                                        1 2 1 2 1 3 2 1 1 1   1 1 1 1 1 1 1 1 1 1   1 1 1 2 1 2 1 2 1 2   1 2 1 2 1 2 1 2 1 3
                                        2
 EXTRA SYMMETRY OF AOS IN SYMMETRY 2:   1 1 1 1 1 1 2 1 1 1   1 1 1 1 1 1 1 1 1 1   2 1 2 1 2 1 2 1 1 1   1 1 1 1 1 1 1 1 1 1
                                        2 1 2 1 2 1 2
 EXTRA SYMMETRY OF AOS IN SYMMETRY 3:   1 1 1 1 1 1 2 1 1 1   1 1 1 1 1 1 1 1 1 1   2 1 2 1 2 1 2 1 1 1   1 1 1 1 1 1 1 1 1 1
                                        2 1 2 1 2 1 2
 EXTRA SYMMETRY OF AOS IN SYMMETRY 4:   1 1 1 1 1 1 1 1 1 1   1 1 2 1 1 1 1 1 1 1   1 1 2

 Eigenvalues of metric

         1 0.264E-04 0.272E-04 0.170E-03 0.189E-03 0.727E-03 0.971E-03 0.121E-02 0.145E-02
         2 0.134E-02 0.192E-02 0.370E-02 0.670E-02 0.195E-01 0.499E-01 0.857E-01 0.950E-01
         3 0.134E-02 0.192E-02 0.370E-02 0.670E-02 0.195E-01 0.499E-01 0.857E-01 0.950E-01
         4 0.744E-01 0.110E+00 0.167E+00 0.197E+00 0.367E+00 0.438E+00 0.462E+00 0.481E+00


 Contracted 2-electron integrals neglected if value below      1.0D-12
 AO integral compression algorithm  1   Integral accuracy      1.0D-12

     199.754 MB (compressed) written to integral file ( 40.0%)


 NUMBER OF SORTED TWO-ELECTRON INTEGRALS:   50085456.     BUFFER LENGTH:  32768
 NUMBER OF SEGMENTS:   4  SEGMENT LENGTH:   15999498      RECORD LENGTH: 524288

 Memory used in sort:      16.56 MW

 SORT1 READ    62358122. AND WROTE    33260610. INTEGRALS IN     97 RECORDS. CPU TIME:     0.58 SEC, REAL TIME:     0.68 SEC
 SORT2 READ    33260610. AND WROTE    50085456. INTEGRALS IN    762 RECORDS. CPU TIME:     0.41 SEC, REAL TIME:     0.48 SEC

 FILE SIZES:   FILE 1:   230.7 MBYTE,  FILE 4:   406.9 MBYTE,   TOTAL:    637.6 MBYTE

 OPERATOR DM      FOR CENTER  0  COORDINATES:    0.000000    0.000000    0.000000


 **********************************************************************************************************************************
 DATASETS  * FILE   NREC   LENGTH (MB)   RECORD NAMES
              1      19      184.56       500      610      700      900      950      970     1000      129      960     1100   
                                          VAR    BASINP    GEOM    SYMINP    ZMAT    AOBASIS   BASIS     P2S    ABASIS      S 
                                         1400     1410     1200     1210     1080     1600     1650     1300     1700   
                                           T        V       H0       H01     AOSYM     SMH    MOLCAS    ERIS     OPER   

 PROGRAMS   *        TOTAL       INT
 CPU TIMES  *         4.58      4.49
 REAL TIME  *         8.45 SEC
 DISK USED  *       608.43 MB
 **********************************************************************************************************************************


 Program * Restricted Hartree-Fock

 Orbital guess generated from atomic densities. Full valence occupancy:    7   2   2   0

 Initial occupancy:   5   1   1   0

 NELEC=   14   SYM=1   MS2= 0   THRE=1.0D-08   THRD=3.2D-06   THRG=3.2D-06  HFMA2=F  DIIS_START=2   DIIS_MAX=10   DIIS_INCORE=F

 Level shifts:    0.00 (CLOSED)    0.00 (OPEN)    0.30 (GAP_MIN)

 ITER           ETOT              DE          GRAD        DDIFF     DIIS  NEXP   TIME(IT)  TIME(TOT)  DIAG
   1      -92.88997945     -92.88997945     0.00D+00     0.66D-01     0     0       0.12      0.22    start
   2      -92.89897910      -0.00899965     0.71D-02     0.71D-02     1     0       0.12      0.34    diag
   3      -92.91422267      -0.01524357     0.63D-02     0.37D-02     2     0       0.12      0.46    diag
   4      -92.91445304      -0.00023037     0.53D-03     0.57D-03     3     0       0.11      0.57    diag
   5      -92.91446622      -0.00001317     0.11D-03     0.17D-03     4     0       0.12      0.69    diag
   6      -92.91446700      -0.00000078     0.31D-04     0.40D-04     5     0       0.12      0.81    diag
   7      -92.91446707      -0.00000008     0.11D-04     0.14D-04     6     0       0.12      0.93    diag
   8      -92.91446708      -0.00000000     0.24D-05     0.26D-05     7     0       0.12      1.05    fixocc
   9      -92.91446708      -0.00000000     0.27D-06     0.27D-06     0     0       0.12      1.17    diag

 Final occupancy:   5   1   1   0

 !RHF STATE 1.1 Energy                -92.914467075476
  RHF One-electron energy            -172.625534570246
  RHF Two-electron energy              55.800065535080
  RHF Kinetic energy                   92.723964150976
  RHF Nuclear energy                   23.911001959690
  RHF Virial quotient                  -1.002054516610

 !RHF STATE 1.1 Dipole moment           0.00000000     0.00000000    -1.29122920
 Dipole moment /Debye                   0.00000000     0.00000000    -3.28197725

 Orbital energies:

           1.1          2.1          3.1          4.1          5.1          6.1          7.1
    -15.598067   -11.290965    -1.235781    -0.812987    -0.582042     0.116515     0.185633

           1.2          2.2          3.2
     -0.496432     0.152045     0.337799

           1.3          2.3          3.3
     -0.496432     0.152045     0.337799

           1.4          2.4
      0.597369     1.074367


 HOMO      1.3    -0.496432 =     -13.5086eV
 LUMO      6.1     0.116515 =       3.1705eV
 LUMO-HOMO         0.612947 =      16.6791eV

 Orbitals saved in record  2100.2


 **********************************************************************************************************************************
 DATASETS  * FILE   NREC   LENGTH (MB)   RECORD NAMES
              1      19      184.56       500      610      700      900      950      970     1000      129      960     1100   
                                          VAR    BASINP    GEOM    SYMINP    ZMAT    AOBASIS   BASIS     P2S    ABASIS      S 
                                         1400     1410     1200     1210     1080     1600     1650     1300     1700   
                                           T        V       H0       H01     AOSYM     SMH    MOLCAS    ERIS     OPER   

              2       4        0.59       700     1000      520     2100   
                                         GEOM     BASIS   MCVARS     RHF  

 PROGRAMS   *        TOTAL    HF-SCF       INT
 CPU TIMES  *         5.76      1.18      4.49
 REAL TIME  *        11.01 SEC
 DISK USED  *       608.43 MB
 **********************************************************************************************************************************


 Program * Restricted Hartree-Fock

 Molecular orbitals read from record     2100.2  Type=RHF/CANONICAL  

 Initial occupancy:   5   1   1   0

 NELEC=   14   SYM=1   MS2= 0   THRE=1.0D-08   THRD=3.2D-06   THRG=3.2D-06  HFMA2=F  DIIS_START=2   DIIS_MAX=10   DIIS_INCORE=F

 Level shifts:    0.00 (CLOSED)    0.00 (OPEN)    0.30 (GAP_MIN)

 ITER           ETOT              DE          GRAD        DDIFF     DIIS  NEXP   TIME(IT)  TIME(TOT)  DIAG
   1      -92.91446708     -92.91446708     0.00D+00     0.67D-01     0     0       0.13      0.13    start
   2      -92.91446708      -0.00000000     0.11D-06     0.13D-06     1     0       0.12      0.25    diag

 Final occupancy:   5   1   1   0

 !RHF STATE 1.1 Energy                -92.914467075483
  RHF One-electron energy            -172.625525476358
  RHF Two-electron energy              55.800056441185
  RHF Kinetic energy                   92.723955705218
  RHF Nuclear energy                   23.911001959690
  RHF Virial quotient                  -1.002054607882

 !RHF STATE 1.1 Dipole moment           0.00000000     0.00000000    -1.29121514
 Dipole moment /Debye                   0.00000000     0.00000000    -3.28194152

 Orbital energies:

           1.1          2.1          3.1          4.1          5.1          6.1          7.1
    -15.598062   -11.290968    -1.235781    -0.812987    -0.582041     0.116515     0.185633

           1.2          2.2          3.2
     -0.496431     0.152045     0.337798

           1.3          2.3          3.3
     -0.496431     0.152045     0.337798

           1.4          2.4
      0.597369     1.074367


 HOMO      1.3    -0.496431 =     -13.5086eV
 LUMO      6.1     0.116515 =       3.1705eV
 LUMO-HOMO         0.612947 =      16.6791eV

 Orbitals saved in record  2101.2


 **********************************************************************************************************************************
 DATASETS  * FILE   NREC   LENGTH (MB)   RECORD NAMES
              1      19      184.56       500      610      700      900      950      970     1000      129      960     1100   
                                          VAR    BASINP    GEOM    SYMINP    ZMAT    AOBASIS   BASIS     P2S    ABASIS      S 
                                         1400     1410     1200     1210     1080     1600     1650     1300     1700   
                                           T        V       H0       H01     AOSYM     SMH    MOLCAS    ERIS     OPER   

              2       5        1.00       700     1000      520     2100     2101   
                                         GEOM     BASIS   MCVARS     RHF      RHF  

 PROGRAMS   *        TOTAL    HF-SCF    HF-SCF       INT
 CPU TIMES  *         6.02      0.26      1.18      4.49
 REAL TIME  *        12.33 SEC
 DISK USED  *       608.43 MB
 **********************************************************************************************************************************


 PROGRAM * PAPT (Closed-shell)     Authors: C. Hampel, H.-J. Werner, 1991, P.J. Knowles, 2021


 CORETYPE=SMALL

 Convergence thresholds:  THRVAR = 1.00D-08  THRDEN = 1.00D-06

 Number of closed-shell orbitals:   7 (   5   1   1   0 )
 Number of external orbitals:     191 (  76  46  46  23 )

 Molecular orbitals read from record     2101.2  Type=RHF/CANONICAL  

 Number of N-1 electron functions:               7
 Number of N-2 electron functions:              28
 Number of singly external CSFs:               472
 Number of doubly external CSFs:            241726
 Total number of CSFs:                      242199

 Length of J-op  integral file:               0.00 MB
 Length of K-op  integral file:               0.85 MB

 Integral transformation finished. Total CPU:   0.22 sec, npass=  1  Memory used:   0.45 MW

 Reference energy:                    -92.91446708

                        CORR.ENERGY   TOTAL ENERGY   ENERGY CHANGE
 MP2:                   -0.47635153   -93.39081861    -0.47635153

 SCS-MP2 correlation energy:           -0.48594961   (PS=  1.200000  PT=  0.333333)
 SCS-MP2 total energy:                -93.40041669
 Iteration:   1     0.4280D+00
 Iteration:   2     0.6004D+00
 Iteration:   3     0.1763D+00
 Iteration:   4     0.1200D+00
 Iteration:   5     0.4276D+01
 Iteration:   6     0.3306D-01
 Iteration:   7     0.5615D-01
 Iteration:   8     0.1447D-01
 Iteration:   9     0.8153D-02
 Iteration:  10     0.8808D-01
 Iteration:  11     0.2708D-02
 Iteration:  12     0.2819D-02
 Iteration:  13     0.2034D-02
 Iteration:  14     0.2211D-03
 Iteration:  15     0.1806D-03
 Iteration:  16     0.1777D-03
 Iteration:  17     0.2189D-04
 PAPT operator written to  7000.1
 PAPT orbitals and eigenvalues written to  7000.2

 MP3(D):                -0.47525988   -93.38972696     0.00109165



 RESULTS
 =======

  Reference energy                    -92.914467075483

  Correlated core orbitals:             1.1       2.1
  Orbital energies:                   -15.5981  -11.2910

  MP3 core-core energy                 -0.081326094629
  MP3 core-valence energy              -0.029814592335
  MP3 valence correlation energy       -0.364119196373

  MP3 singlet pair energy              -0.343688198386
  MP3 triplet pair energy              -0.131571684951
  MP3 correlation energy               -0.475259883337

 !MP3 total energy                    -93.389726958820

 Timing summary (sec):

 STEP                 CPU(USER)    SYS     CPU(TOT)    WALL
 Transformation          0.23      0.03      0.26      0.49
 CCSD iterations         6.70      0.07      6.77      2.03

 Program statistics:

 Available memory in ccsd:               393215799
 Min. memory needed in ccsd:                782056
 Max. memory used in ccsd:                  983373
 Max. memory used in cckext:               1048766 ( 1 integral passes)



 **********************************************************************************************************************************
 DATASETS  * FILE   NREC   LENGTH (MB)   RECORD NAMES
              1      21      188.26       500      610      700      900      950      970     1000      129      960     1100   
                                          VAR    BASINP    GEOM    SYMINP    ZMAT    AOBASIS   BASIS     P2S    ABASIS      S 
                                         1400     1410     1200     1210     1080     1600     1650     1300     1700     1380   
                                           T        V       H0       H01     AOSYM     SMH    MOLCAS    ERIS     OPER     JKOP   
                                         7000   
                                        PAPT AO    

              2       6        1.37       700     1000      520     2100     2101     7000   
                                         GEOM     BASIS   MCVARS     RHF      RHF     PAPT   

 PROGRAMS   *        TOTAL      PAPT    HF-SCF    HF-SCF       INT
 CPU TIMES  *         6.84      0.81      0.26      1.18      4.49
 REAL TIME  *        15.17 SEC
 DISK USED  *       608.43 MB
 **********************************************************************************************************************************


 PROGRAM * MP3 (Closed-shell)     Authors: C. Hampel, H.-J. Werner, 1991, M. Deegan, P.J. Knowles, 1992


 CORETYPE=SMALL

 Convergence thresholds:  THRVAR = 1.00D-08  THRDEN = 1.00D-06

 Number of closed-shell orbitals:   7 (   5   1   1   0 )
 Number of external orbitals:     191 (  76  46  46  23 )

 Molecular orbitals read from record     7000.2  Type=PAPT/CANONICAL (state 1.1)

 Number of N-1 electron functions:               7
 Number of N-2 electron functions:              28
 Number of singly external CSFs:               472
 Number of doubly external CSFs:            241726
 Total number of CSFs:                      242199

 Length of J-op  integral file:               0.00 MB
 Length of K-op  integral file:               0.85 MB

 Integral transformation finished. Total CPU:   0.24 sec, npass=  1  Memory used:   0.45 MW
 Orbital energies read from record       7000.2  Type=PAPT/CANONICAL (state 1.1)

 Reference energy:                    -92.91446708

                        CORR.ENERGY   TOTAL ENERGY   ENERGY CHANGE
 MP2:                   -0.48026095   -93.39472803    -0.48026095

 SCS-MP2 correlation energy:           -0.49252228   (PS=  1.200000  PT=  0.333333)
 SCS-MP2 total energy:                -93.40698935

 MP3(D):                -0.48018301   -93.39465008     0.00007795



 RESULTS
 =======

  Reference energy                    -92.914467075483

  Correlated core orbitals:             1.1       2.1
  Orbital energies:                   -14.2880  -10.3645

  MP3 core-core energy                 -0.081821337363
  MP3 core-valence energy              -0.029501421915
  MP3 valence correlation energy       -0.368860245736

  MP3 singlet pair energy              -0.346545763041
  MP3 triplet pair energy              -0.133637241973
  MP3 correlation energy               -0.480183005014

 !MP3 total energy                    -93.394650080498

 Timing summary (sec):

 STEP                 CPU(USER)    SYS     CPU(TOT)    WALL
 Transformation          0.39      0.04      0.43      1.05
 CCSD iterations         7.30      0.03      7.33      2.04

 Program statistics:

 Available memory in ccsd:               393215799
 Min. memory needed in ccsd:                782056
 Max. memory used in ccsd:                  983373
 Max. memory used in cckext:               1048766 ( 1 integral passes)



 **********************************************************************************************************************************
 DATASETS  * FILE   NREC   LENGTH (MB)   RECORD NAMES
              1      21      188.26       500      610      700      900      950      970     1000      129      960     1100   
                                          VAR    BASINP    GEOM    SYMINP    ZMAT    AOBASIS   BASIS     P2S    ABASIS      S 
                                         1400     1410     1200     1210     1080     1600     1650     1300     1700     1380   
                                           T        V       H0       H01     AOSYM     SMH    MOLCAS    ERIS     OPER     JKOP   
                                         7000   
                                        PAPT AO    

              2       6        1.37       700     1000      520     2100     2101     7000   
                                         GEOM     BASIS   MCVARS     RHF      RHF     PAPT   

 PROGRAMS   *        TOTAL       MP3      PAPT    HF-SCF    HF-SCF       INT
 CPU TIMES  *         7.59      0.75      0.81      0.26      1.18      4.49
 REAL TIME  *        18.51 SEC
 DISK USED  *       608.43 MB
 **********************************************************************************************************************************

 Dump information in style XML to xml output                                                                      

 Orbitals will not be exported.

 **********************************************************************************************************************************

 MP3/cc-pCVQZ energy=    -93.394650080498

             MP3            PAPT          HF-SCF          HF-SCF
    -93.39465008    -93.38972696    -92.91446708    -92.91446708
 **********************************************************************************************************************************
 Molpro calculation terminated
