
 Working directory              : /tmp/peterk/molpro.28AMEoBFDz/
 Global scratch directory       : /tmp/peterk/molpro.28AMEoBFDz/
 Wavefunction directory         : /home/peterk/wfu/
 Main file repository           : /tmp/peterk/molpro.28AMEoBFDz/

 id        : peterk

 Nodes     nprocs
 marat        1
 GA implementation: MPI file
 GA implementation (serial work in mppx): MPI file

 Using customized tuning parameters: mindgm=1; mindgv=20; mindgc=4; mindgr=1; noblas=0; minvec=7
 default implementation of scratch files=df  


 Variables initialized (1032), CPU time= 0.01 sec
 
 symmetry,nosym
 
 
 geometry={
           13
     O         -2.53820248     -0.08771520     -1.02724234
     P         -1.35941727     -0.07970400      0.02969318
     O         -1.27738380     -1.25285556      0.93417310
     O          0.00000000      0.00000000     -0.87883739
     P          1.35941727      0.07970400      0.02969318
     O          1.27738380      1.25285556      0.93417310
     O          1.49416219     -1.36283276      0.64970831
     O          2.53820248      0.08771520     -1.02724234
     O         -1.49416219      1.36283276      0.64970831
     H         -2.91545388     -0.97873665     -1.12334103
     H          0.59640375     -1.64077375      0.97642748
     H          2.91545388      0.97873665     -1.12334103
     H         -0.59640375      1.64077375      0.97642748
 }
 basis=cc-pVTZ
 
 
 
 hf; ccsd(t)
 
 
 
 {put,xml;noorbitals,nobasis}
 Commands initialized (841), CPU time= 0.00 sec, 708 directives.
 Default parameters read. Elapsed time= 0.05 sec

 Checking input...
 Passed
1


                                         ***  PROGRAM SYSTEM MOLPRO  ***
                                       Copyright, TTI GmbH Stuttgart, 2015
                                    Version 2023.1 linked Sat Jun 10 08:01:27 2023


 **********************************************************************************************************************************
 LABEL *                                                                                                                                                                 
  (16 PROC) 64 bit serial version                                                        DATE: 13-Jun-23          TIME: 15:23:31  
 **********************************************************************************************************************************

 SHA1:             8376d659ba1296ca7ee514c57770fe2c96af278c
 **********************************************************************************************************************************

 Memory per process:      1074 MW
 Total memory per node:   1074 MW

 GA preallocation disabled
 GA check disabled

 Variable memory set to 1073.7 MW

 ZSYMEL=NOSYM


 Geometry recognized as XYZ

 SETTING BASIS          =    CC-PVTZ


 Recomputing integrals since basis changed


 Using spherical harmonics

 Library entry O      S cc-pVTZ              selected for orbital group  1
 Library entry O      P cc-pVTZ              selected for orbital group  1
 Library entry O      D cc-pVTZ              selected for orbital group  1
 Library entry O      F cc-pVTZ              selected for orbital group  1
 Library entry P      S cc-pVTZ              selected for orbital group  2
 Library entry P      P cc-pVTZ              selected for orbital group  2
 Library entry P      D cc-pVTZ              selected for orbital group  2
 Library entry P      F cc-pVTZ              selected for orbital group  2
 Library entry H      S cc-pVTZ              selected for orbital group  6
 Library entry H      P cc-pVTZ              selected for orbital group  6
 Library entry H      D cc-pVTZ              selected for orbital group  6


 PROGRAM * SEWARD (Integral evaluation for generally contracted gaussian basis sets)     Author: Roland Lindh, 1990

 Geometry written to block  1 of record 700


 Point group  C1  



 ATOMIC COORDINATES

 NR  ATOM    CHARGE       X              Y              Z

   1  O       8.00   -4.796507536   -0.165757705   -1.941206686
   2  P      15.00   -2.568926329   -0.150618731    0.056111978
   3  O       8.00   -2.413905538   -2.367553882    1.765331312
   4  O       8.00    0.000000000    0.000000000   -1.660761975
   5  P      15.00    2.568926329    0.150618731    0.056111978
   6  O       8.00    2.413905538    2.367553882    1.765331312
   7  O       8.00    2.823557325   -2.575380670    1.227770767
   8  O       8.00    4.796507536    0.165757705   -1.941206686
   9  O       8.00   -2.823557325    2.575380670    1.227770767
  10  H       1.00   -5.509409362   -1.849544217   -2.122806891
  11  H       1.00    1.127039747   -3.100613020    1.845180518
  12  H       1.00    5.509409362    1.849544217   -2.122806891
  13  H       1.00   -1.127039747    3.100613020    1.845180518

 Bond lengths in Bohr (Angstrom)

  1- 2  2.991927316   1-10  1.837483242   2- 3  2.803616172   2- 4  3.093497157   2- 5  5.146676010
       ( 1.583259753)       ( 0.972354257)       ( 1.483609787)       ( 1.637008197)       ( 2.723503656)

 2-9  2.978035258  4-5  3.093497157  5-6  2.803616172  5-7  2.978035258  5-8  2.991927316
     ( 1.575908392)     ( 1.637008197)     ( 1.483609787)     ( 1.575908392)     ( 1.583259753)

  7-11  1.880222251   8-12  1.837483242   9-13  1.880222251
       ( 0.994970767)       ( 0.972354257)       ( 0.994970767)

 Bond angles

  1-2-3  116.36888423   1-2-4  104.36085037   1-2-5  138.03472925   1-2-9  101.74850467

  2- 1-10  111.06790575   2- 4- 5  112.57932607   2- 5- 4   33.71033697   2- 5- 6   89.48915045

  2- 5- 7   91.82113618   2- 5- 8  138.03472925   2- 9-13  107.92352724   3- 2- 4  109.32551451

  3-2-5   89.48915045   3-2-9  119.25460546   4-2-5   33.71033697   4-2-9  104.16938271

  4-5-6  109.32551451   4-5-7  104.16938271   4-5-8  104.36085037   5-2-9   91.82113618

  5- 7-11  107.92352724   5- 8-12  111.06790575   6- 5- 7  119.25460546   6- 5- 8  116.36888423

  7-5-8  101.74850467

 NUCLEAR CHARGE:                   90
 NUMBER OF PRIMITIVE AOS:         525
 NUMBER OF SYMMETRY AOS:          476
 NUMBER OF CONTRACTIONS:          334   (  334A   )
 NUMBER OF INNER CORE ORBITALS:     2   (    2A   )
 NUMBER OF OUTER CORE ORBITALS:    15   (   15A   )
 NUMBER OF VALENCE ORBITALS:       40   (   40A   )


 NUCLEAR REPULSION ENERGY  791.44178871


 Eigenvalues of metric

         1 0.138E-02 0.147E-02 0.171E-02 0.177E-02 0.191E-02 0.214E-02 0.234E-02 0.234E-02


 Contracted 2-electron integrals neglected if value below      1.0D-11
 AO integral compression algorithm  1   Integral accuracy      1.0D-11

     3897.033 MB (compressed) written to integral file ( 32.0%)


 NUMBER OF SORTED TWO-ELECTRON INTEGRALS: 1564949485.     BUFFER LENGTH:  32768
 NUMBER OF SEGMENTS:  49  SEGMENT LENGTH:   31998710      RECORD LENGTH: 524288

 Memory used in sort:      32.56 MW

 SORT1 READ  1522650190. AND WROTE  1079347321. INTEGRALS IN   3111 RECORDS. CPU TIME:    50.94 SEC, REAL TIME:   699.63 SEC
 SORT2 READ  1079347321. AND WROTE  1564949485. INTEGRALS IN  14866 RECORDS. CPU TIME:    10.95 SEC, REAL TIME:   404.31 SEC

 FILE SIZES:   FILE 1:  3931.4 MBYTE,  FILE 4: 13048.5 MBYTE,   TOTAL:  16979.9 MBYTE

 OPERATOR DM      FOR CENTER  0  COORDINATES:    0.000000    0.000000    0.000000


 **********************************************************************************************************************************
 DATASETS  * FILE   NREC   LENGTH (MB)   RECORD NAMES
              1      19     3366.21       500      610      700      900      950      970     1000      129      960     1100   
                                          VAR    BASINP    GEOM    SYMINP    ZMAT    AOBASIS   BASIS     P2S    ABASIS      S 
                                         1400     1410     1200     1210     1080     1600     1650     1300     1700   
                                           T        V       H0       H01     AOSYM     SMH    MOLCAS    ERIS     OPER   

 PROGRAMS   *        TOTAL       INT
 CPU TIMES  *       126.63    126.51
 REAL TIME  *      1227.34 SEC
 DISK USED  *        15.81 GB
 **********************************************************************************************************************************


 Program * Restricted Hartree-Fock

 Orbital guess generated from atomic densities. Full valence occupancy:   57

 Initial occupancy:  45

 NELEC=   90   SYM=1   MS2= 0   THRE=1.0D-08   THRD=3.2D-06   THRG=3.2D-06  HFMA2=F  DIIS_START=2   DIIS_MAX=10   DIIS_INCORE=F

 Level shifts:    0.00 (CLOSED)    0.00 (OPEN)    0.30 (GAP_MIN)

 ITER           ETOT              DE          GRAD        DDIFF     DIIS  NEXP   TIME(IT)  TIME(TOT)  DIAG
   1    -1208.09629664   -1208.09629664     0.00D+00     0.53D-01     0     0       9.46     18.28    start
   2    -1208.26912329      -0.17282665     0.52D-02     0.78D-02     1     0       9.50     27.78    diag
   3    -1208.36471287      -0.09558958     0.34D-02     0.29D-02     2     0       9.44     37.22    diag
   4    -1208.36648378      -0.00177091     0.40D-03     0.51D-03     3     0       9.54     46.76    diag
   5    -1208.36676197      -0.00027819     0.17D-03     0.19D-03     4     0       9.58     56.34    diag
   6    -1208.36678051      -0.00001854     0.35D-04     0.44D-04     5     0       9.68     66.02    diag
   7    -1208.36678229      -0.00000178     0.80D-05     0.14D-04     6     0       9.52     75.54    diag
   8    -1208.36678240      -0.00000012     0.22D-05     0.37D-05     7     0       9.55     85.09    fixocc
   9    -1208.36678242      -0.00000001     0.79D-06     0.12D-05     8     0       9.47     94.56    diag
  10    -1208.36678242      -0.00000000     0.26D-06     0.39D-06     9     0       9.31    103.87    diag/orth
  11    -1208.36678242      -0.00000000     0.96D-07     0.13D-06     0     0       9.45    113.32    diag

 Final occupancy:  45

 !RHF STATE 1.1 Energy              -1208.366782418324
  RHF One-electron energy           -3246.236108105581
  RHF Two-electron energy            1246.427536978587
  RHF Kinetic energy                 1207.064908412259
  RHF Nuclear energy                  791.441788708671
  RHF Virial quotient                  -1.001078545153

 !RHF STATE 1.1 Dipole moment           0.00000000    -0.00000000    -1.05465314
 Dipole moment /Debye                   0.00000000    -0.00000000    -2.68066089

 Orbital energies:

           1.1          2.1          3.1          4.1          5.1          6.1          7.1          8.1          9.1         10.1
    -80.143276   -80.143276   -20.638546   -20.636884   -20.636884   -20.615733   -20.615732   -20.548980   -20.548979    -7.660702

          11.1         12.1         13.1         14.1         15.1         16.1         17.1         18.1         19.1         20.1
     -7.660699    -5.559389    -5.559337    -5.558843    -5.558833    -5.557558    -5.557554    -1.503277    -1.464246    -1.419235

          21.1         22.1         23.1         24.1         25.1         26.1         27.1         28.1         29.1         30.1
     -1.407544    -1.398477    -1.339166    -1.328386    -0.909463    -0.863893    -0.787069    -0.757944    -0.732855    -0.729566

          31.1         32.1         33.1         34.1         35.1         36.1         37.1         38.1         39.1         40.1
     -0.701402    -0.689307    -0.683733    -0.638164    -0.620854    -0.616021    -0.600748    -0.587540    -0.567315    -0.565576

          41.1         42.1         43.1         44.1         45.1         46.1         47.1
     -0.562756    -0.506865    -0.505829    -0.503616    -0.498507     0.118150     0.129896


 HOMO     45.1    -0.498507 =     -13.5651eV
 LUMO     46.1     0.118150 =       3.2150eV
 LUMO-HOMO         0.616657 =      16.7801eV

 Orbitals saved in record  2100.2


 **********************************************************************************************************************************
 DATASETS  * FILE   NREC   LENGTH (MB)   RECORD NAMES
              1      19     3366.21       500      610      700      900      950      970     1000      129      960     1100   
                                          VAR    BASINP    GEOM    SYMINP    ZMAT    AOBASIS   BASIS     P2S    ABASIS      S 
                                         1400     1410     1200     1210     1080     1600     1650     1300     1700   
                                           T        V       H0       H01     AOSYM     SMH    MOLCAS    ERIS     OPER   

              2       4        2.34       700     1000      520     2100   
                                         GEOM     BASIS   MCVARS     RHF  

 PROGRAMS   *        TOTAL    HF-SCF       INT
 CPU TIMES  *       239.96    113.33    126.51
 REAL TIME  *      1346.45 SEC
 DISK USED  *        15.81 GB
 **********************************************************************************************************************************


 PROGRAM * CCSD (Closed-shell coupled cluster)     Authors: C. Hampel, H.-J. Werner, 1991, M. Deegan, P.J. Knowles, 1992


 Convergence thresholds:  THRVAR = 1.00D-08  THRDEN = 1.00D-06

 CCSD(T)     terms to be evaluated (factor= 1.000)


 Number of core orbitals:          17 (  17 )
 Number of closed-shell orbitals:  28 (  28 )
 Number of external orbitals:     289 ( 289 )

 Molecular orbitals read from record     2100.2  Type=RHF/CANONICAL  

 Number of N-1 electron functions:              28
 Number of N-2 electron functions:             406
 Number of singly external CSFs:              8092
 Number of doubly external CSFs:          32744278
 Total number of CSFs:                    32752371

 Length of J-op  integral file:               0.00 MB
 Length of K-op  integral file:               7.72 MB
 Length of 3-ext integral record:             0.00 MB

 Memory could be reduced to 812.69 Mwords without degradation in triples

 Integral transformation finished. Total CPU: 128.35 sec, npass=  1  Memory used: 616.37 MW

 Reference energy:                  -1208.36678242

 MP2 singlet pair energy:              -1.18134779
 MP2 triplet pair energy:              -0.78312263
 MP2 correlation energy:               -1.96447042
 MP2 total energy:                  -1210.33125284

 SCS-MP2 correlation energy:           -1.90489365   (PS=  1.200000  PT=  0.333333)
 SCS-MP2 total energy:              -1210.27167607

 ITER.      SQ.NORM     CORR.ENERGY   TOTAL ENERGY   ENERGY CHANGE        DEN1      VAR(S)    VAR(P)  DIIS     TIME  TIME/IT
   1      1.46181943    -1.96485375 -1210.33163617    -0.00038333     0.04866572  0.12D-01  0.86D-02  1  1   820.63   449.34
   2      1.49128325    -1.96402164 -1210.33080406     0.00083211    -0.03950017  0.15D-03  0.11D-02  2  2  1276.36   454.26
   3      1.50258245    -1.96435451 -1210.33113692    -0.00033286    -0.00595454  0.21D-03  0.45D-04  3  3  1735.66   461.41
   4      1.50719999    -1.96403208 -1210.33081450     0.00032242    -0.00214004  0.13D-04  0.71D-05  4  4  2198.00   465.63
   5      1.50884016    -1.96398070 -1210.33076311     0.00005139    -0.00048918  0.21D-05  0.51D-06  5  5  2652.84   464.15
   6      1.50919331    -1.96394705 -1210.33072947     0.00003364    -0.00004368  0.19D-06  0.75D-07  6  6  3108.96   463.38
   7      1.50928441    -1.96394065 -1210.33072307     0.00000640    -0.00001327  0.23D-07  0.11D-07  6  2  3568.87   468.70
   8      1.50929568    -1.96394119 -1210.33072361    -0.00000054     0.00000221  0.25D-08  0.12D-08  6  1  4026.33   472.36
   9      1.50929807    -1.96394106 -1210.33072348     0.00000013     0.00000168  0.33D-09  0.14D-09  6  3  4489.91   478.45

 Norm of t1 vector:      0.14381155      S-energy:     0.00000019      T1 diagnostic:  0.01358891
                                                                       D1 diagnostic:  0.04232799
                                                                       D2 diagnostic:  0.13596817 (external, symmetry=1)

   CPU time for triples:   1968.01 sec for i =  1 - 15 / 28 (~  16.5 % done)
   CPU time for triples:   1860.30 sec for i = 16 - 19 / 28 (~  32.5 % done)
   CPU time for triples:   1968.75 sec for i = 20 - 22 / 28 (~  49.7 % done)
   CPU time for triples:   2483.12 sec for i = 23 - 25 / 28 (~  71.9 % done)
   CPU time for triples:   1986.08 sec for i = 26 - 27 / 28 (~  90.0 % done)
   CPU time for triples:   1104.43 sec for i = 28 - 28 / 28 (  100.0 % done)

 Total CPU time for triples:  11370.69 sec


 RESULTS
 =======

  Reference energy                  -1208.366782418324
  CCSD singlet pair energy             -1.272134453802
  CCSD triplet pair energy             -0.691806801181
  CCSD correlation energy              -1.963941061128

  Triples (T) contribution             -0.079543643392
  Total correlation energy             -2.043484704520

  CCSD total energy                 -1210.330723479452
  CCSD[T] energy                    -1210.414075588013
  CCSD-T energy                     -1210.408442247555
 !CCSD(T) total energy              -1210.410267122844

 Timing summary (sec):

 STEP                 CPU(USER)    SYS     CPU(TOT)    WALL
 Transformation        131.22      6.73    137.95    142.86
 CCSD iterations      4363.20     30.44   4393.64   4310.80
 Triples             11370.69    174.38  11545.07  11548.44

 Program statistics:

 Available memory in ccsd:              1073738643
 Min. memory needed in ccsd:              75791165
 Max. memory used in ccsd:               106585215
 Max. memory used in cckext:              92176592 ( 9 integral passes)



 **********************************************************************************************************************************
 DATASETS  * FILE   NREC   LENGTH (MB)   RECORD NAMES
              1      20     6473.85       500      610      700      900      950      970     1000      129      960     1100   
                                          VAR    BASINP    GEOM    SYMINP    ZMAT    AOBASIS   BASIS     P2S    ABASIS      S 
                                         1400     1410     1200     1210     1080     1600     1650     1300     1700     1380   
                                           T        V       H0       H01     AOSYM     SMH    MOLCAS    ERIS     OPER     JKOP   

              2       4        2.34       700     1000      520     2100   
                                         GEOM     BASIS   MCVARS     RHF  

 PROGRAMS   *        TOTAL   CCSD(T)    HF-SCF       INT
 CPU TIMES  *     15864.76  15624.80    113.33    126.51
 REAL TIME  *     17349.15 SEC
 DISK USED  *        15.81 GB
 **********************************************************************************************************************************

 Dump information in style XML to xml output                                                                      

 Orbitals will not be exported.

 **********************************************************************************************************************************

 CCSD(T)/cc-pVTZ energy=  -1210.410267122844

         CCSD(T)          HF-SCF
  -1210.41026712  -1208.36678242
 **********************************************************************************************************************************
 Molpro calculation terminated
