
 Working directory              : /var/folders/2v/xbgp75_9785319ghcgb4zr4r0000gp/T//molpro.Ajy3bnFjfV/
 Global scratch directory       : /var/folders/2v/xbgp75_9785319ghcgb4zr4r0000gp/T//molpro.Ajy3bnFjfV/
 Wavefunction directory         : /Users/sacpjk/wfu/
 Main file repository           : /var/folders/2v/xbgp75_9785319ghcgb4zr4r0000gp/T//molpro.Ajy3bnFjfV/

 id        : peterk

 Nodes                        nprocs
 Cardiff-University-G34YLXT77Y    1
 GA implementation: MPI file
 GA implementation (serial work in mppx): MPI file

 Using customized tuning parameters: mindgm=1; mindgv=20; mindgc=4; mindgr=1; noblas=0; minvec=7
 default implementation of scratch files=df  


 Variables initialized (1032), CPU time= 0.00 sec
 
 core,small
 angstrom
 
 geometry={
 H;O,H,0.95711647;H,O,0.95711647,H,104.22359713
 }
 basis=cc-pCVQZ
 
 
 
 hf; mp4
 
 
 
 {put,xml;noorbitals,nobasis}
 Commands initialized (841), CPU time= 0.01 sec, 704 directives.
 Default parameters read. Elapsed time= 0.65 sec

 Checking input...
 Passed
1


                                         ***  PROGRAM SYSTEM MOLPRO  ***
                                       Copyright, TTI GmbH Stuttgart, 2015
                                    Version 2023.1 linked Tue Jun  6 09:54:11 2023


 **********************************************************************************************************************************
 LABEL *                                                                                                                                                                 
  64 bit serial version                                                                  DATE: 12-Jun-23          TIME: 10:42:52  
 **********************************************************************************************************************************

 SHA1:             8ebb0dd001088a5c915591db1a321413035db0b1
 **********************************************************************************************************************************

 Memory per process:       393 MW
 Total memory per node:    524 MW
 Total GA space:           131 MW

 GA preallocation disabled
 GA check enabled

 Variable memory set to 393.2 MW

 ZUNIT=ANG

 SETTING BASIS          =    CC-PCVQZ


 Recomputing integrals since basis changed


 Using spherical harmonics

 Library entry H      S cc-pVQZ              selected for orbital group  1
 Library entry H      P cc-pVQZ              selected for orbital group  1
 Library entry H      D cc-pVQZ              selected for orbital group  1
 Library entry H      F cc-pVQZ              selected for orbital group  1
 Library entry O      S cc-pCVQZ             selected for orbital group  2
 Library entry O      P cc-pCVQZ             selected for orbital group  2
 Library entry O      D cc-pCVQZ             selected for orbital group  2
 Library entry O      F cc-pCVQZ             selected for orbital group  2
 Library entry O      G cc-pCVQZ             selected for orbital group  2


 PROGRAM * SEWARD (Integral evaluation for generally contracted gaussian basis sets)     Author: Roland Lindh, 1990

 Geometry written to block  1 of record 700

 Orientation using atomic masses  
 Molecule type: Asymmetric top,     Order of principal axis = 2
 Symmetry elements: X,Y
 Rotational constants:     285.7255311    817.0524913    439.3768328 GHz  (calculated with average atomic masses)

 Point group  C2v 



 ATOMIC COORDINATES

 NR  ATOM    CHARGE       X              Y              Z

   1  H       1.00    0.000000000   -1.427435675    0.986464553
   2  H       1.00    0.000000000    1.427435675    0.986464553
   3  O       8.00    0.000000000    0.000000000   -0.124291796

 Bond lengths in Bohr (Angstrom)

 1-3  1.808687998  2-3  1.808687998
     ( 0.957116470)     ( 0.957116470)

 Bond angles

  1-3-2  104.22359713

 NUCLEAR CHARGE:                   10
 NUMBER OF PRIMITIVE AOS:         191
 NUMBER OF SYMMETRY AOS:          161
 NUMBER OF CONTRACTIONS:          144   (   54A1  +   30B1  +   40B2  +   20A2  )
 NUMBER OF INNER CORE ORBITALS:     0   (    0A1  +    0B1  +    0B2  +    0A2  )
 NUMBER OF OUTER CORE ORBITALS:     1   (    1A1  +    0B1  +    0B2  +    0A2  )
 NUMBER OF VALENCE ORBITALS:        6   (    3A1  +    1B1  +    2B2  +    0A2  )


 NUCLEAR REPULSION ENERGY    9.19646976

 Eigenvalues of metric

         1 0.254E-04 0.292E-03 0.122E-02 0.155E-02 0.226E-02 0.549E-02 0.780E-02 0.128E-01
         2 0.242E-02 0.924E-02 0.515E-01 0.116E+00 0.118E+00 0.147E+00 0.165E+00 0.267E+00
         3 0.420E-03 0.180E-02 0.295E-02 0.636E-02 0.122E-01 0.200E-01 0.408E-01 0.551E-01
         4 0.134E-01 0.696E-01 0.120E+00 0.247E+00 0.263E+00 0.351E+00 0.440E+00 0.484E+00


 Contracted 2-electron integrals neglected if value below      1.0D-12
 AO integral compression algorithm  1   Integral accuracy      1.0D-12

     96.207 MB (compressed) written to integral file ( 64.4%)


 NUMBER OF SORTED TWO-ELECTRON INTEGRALS:   14072140.     BUFFER LENGTH:  32768
 NUMBER OF SEGMENTS:   1  SEGMENT LENGTH:   14072140      RECORD LENGTH: 524288

 Memory used in sort:      14.63 MW

 SORT1 READ    18678779. AND WROTE    12822842. INTEGRALS IN     37 RECORDS. CPU TIME:     0.15 SEC, REAL TIME:     0.20 SEC
 SORT2 READ    12822842. AND WROTE    14072140. INTEGRALS IN    367 RECORDS. CPU TIME:     0.17 SEC, REAL TIME:     0.20 SEC

 FILE SIZES:   FILE 1:   126.7 MBYTE,  FILE 4:   155.3 MBYTE,   TOTAL:    281.9 MBYTE

 OPERATOR DM      FOR CENTER  0  COORDINATES:    0.000000    0.000000    0.000000


 **********************************************************************************************************************************
 DATASETS  * FILE   NREC   LENGTH (MB)   RECORD NAMES
              1      19       96.49       500      610      700      900      950      970     1000      129      960     1100   
                                          VAR    BASINP    GEOM    SYMINP    ZMAT    AOBASIS   BASIS     P2S    ABASIS      S 
                                         1400     1410     1200     1210     1080     1600     1650     1300     1700   
                                           T        V       H0       H01     AOSYM     SMH    MOLCAS    ERIS     OPER   

 PROGRAMS   *        TOTAL       INT
 CPU TIMES  *         1.18      1.09
 REAL TIME  *         3.97 SEC
 DISK USED  *       269.25 MB
 **********************************************************************************************************************************


 Program * Restricted Hartree-Fock

 Orbital guess generated from atomic densities. Full valence occupancy:    4   1   2   0

 Initial occupancy:   3   1   1   0

 NELEC=   10   SYM=1   MS2= 0   THRE=1.0D-08   THRD=3.2D-06   THRG=3.2D-06  HFMA2=F  DIIS_START=2   DIIS_MAX=10   DIIS_INCORE=F

 Level shifts:    0.00 (CLOSED)    0.00 (OPEN)    0.30 (GAP_MIN)

 ITER           ETOT              DE          GRAD        DDIFF     DIIS  NEXP   TIME(IT)  TIME(TOT)  DIAG
   1      -76.02676169     -76.02676169     0.00D+00     0.82D-01     0     0       0.03      0.05    start
   2      -76.05416648      -0.02740479     0.15D-01     0.13D-01     1     0       0.04      0.09    diag
   3      -76.06472990      -0.01056342     0.90D-02     0.46D-02     2     0       0.03      0.12    diag
   4      -76.06491413      -0.00018423     0.85D-03     0.63D-03     3     0       0.03      0.15    diag
   5      -76.06493322      -0.00001909     0.24D-03     0.23D-03     4     0       0.03      0.18    diag
   6      -76.06493436      -0.00000114     0.46D-04     0.63D-04     5     0       0.03      0.21    diag
   7      -76.06493440      -0.00000005     0.87D-05     0.14D-04     6     0       0.04      0.25    diag
   8      -76.06493440      -0.00000000     0.16D-05     0.24D-05     7     0       0.03      0.28    fixocc
   9      -76.06493440      -0.00000000     0.18D-06     0.28D-06     0     0       0.02      0.30    diag

 Final occupancy:   3   1   1   0

 !RHF STATE 1.1 Energy                -76.064934404805
  RHF One-electron energy            -123.093931371823
  RHF Two-electron energy              37.832527202200
  RHF Kinetic energy                   76.010344615247
  RHF Nuclear energy                    9.196469764817
  RHF Virial quotient                  -1.000718188950

 !RHF STATE 1.1 Dipole moment           0.00000000     0.00000000     0.79141007
 Dipole moment /Debye                   0.00000000     0.00000000     2.01156375

 Orbital energies:

           1.1          2.1          3.1          4.1          5.1
    -20.559886    -1.349774    -0.582594     0.116910     0.461211

           1.2          2.2          3.2
     -0.508276     0.581863     0.717260

           1.3          2.3          3.3
     -0.713905     0.171081     0.449133

           1.4          2.4
      0.656958     1.484574


 HOMO      1.2    -0.508276 =     -13.8309eV
 LUMO      4.1     0.116910 =       3.1813eV
 LUMO-HOMO         0.625186 =      17.0122eV

 Orbitals saved in record  2100.2


 **********************************************************************************************************************************
 DATASETS  * FILE   NREC   LENGTH (MB)   RECORD NAMES
              1      19       96.49       500      610      700      900      950      970     1000      129      960     1100   
                                          VAR    BASINP    GEOM    SYMINP    ZMAT    AOBASIS   BASIS     P2S    ABASIS      S 
                                         1400     1410     1200     1210     1080     1600     1650     1300     1700   
                                           T        V       H0       H01     AOSYM     SMH    MOLCAS    ERIS     OPER   

              2       4        0.50       700     1000      520     2100   
                                         GEOM     BASIS   MCVARS     RHF  

 PROGRAMS   *        TOTAL    HF-SCF       INT
 CPU TIMES  *         1.50      0.32      1.09
 REAL TIME  *         5.67 SEC
 DISK USED  *       269.25 MB
 **********************************************************************************************************************************


 PROGRAM * MP4 (Closed-shell)     Authors: C. Hampel, H.-J. Werner, 1991, M. Deegan, P.J. Knowles, 1992


 CORETYPE=SMALL

 Convergence thresholds:  THRVAR = 1.00D-08  THRDEN = 1.00D-06

 MP4(T)     terms to be evaluated (factor= 0.000)


 Number of closed-shell orbitals:   5 (   3   1   1   0 )
 Number of external orbitals:     139 (  51  29  39  20 )

 Molecular orbitals read from record     2100.2  Type=RHF/CANONICAL  

 Number of N-1 electron functions:               5
 Number of N-2 electron functions:              15
 Number of singly external CSFs:               221
 Number of doubly external CSFs:             63114
 Total number of CSFs:                       63336

 Length of J-op  integral file:               0.00 MB
 Length of K-op  integral file:               0.46 MB

 Memory could be reduced to 4.99 Mwords without degradation in triples

 Integral transformation finished. Total CPU:   0.09 sec, npass=  1  Memory used:   0.83 MW

 Reference energy:                    -76.06493440

                        CORR.ENERGY   TOTAL ENERGY   ENERGY CHANGE
 MP2:                   -0.34264743   -76.40758183    -0.34264743

 SCS-MP2 correlation energy:           -0.34673253   (PS=  1.200000  PT=  0.333333)
 SCS-MP2 total energy:                -76.41166694

 MP3(D):                -0.34520029   -76.41013470    -0.00255286
 MP4(DQ):               -0.34499627   -76.40993068     0.00020402
 MP4(SDQ):              -0.34694641   -76.41188082    -0.00195014

 Norm of t1 vector:      0.02643984      S-energy:    -0.00195014      T1 diagnostic:  0.00591213


 Total CPU time for triples:      0.27 sec


 RESULTS
 =======

  Reference energy                    -76.064934404805

  Correlated core orbitals:             1.1
  Orbital energies:                   -20.5599

  MP4(SDQ) core-core energy            -0.040099655703
  MP4(SDQ) core-valence energy         -0.019792201644
  MP4(SDQ) valence correlation ener    -0.287054553512

  MP4(SDQ) singlet pair energy         -0.241631060555
  MP4(SDQ) triplet pair energy         -0.103365212146
  MP4(SDQ) correlation energy          -0.346946410859

  Triples contribution                 -0.010521617177
  Total correlation energy             -0.357468028036

  MP4(SDQ) total energy               -76.411880815664
 !MP4(SDTQ) total energy              -76.422402432841

 Timing summary (sec):

 STEP                 CPU(USER)    SYS     CPU(TOT)    WALL
 Transformation          0.09      0.01      0.10      0.20
 CCSD iterations         1.70      0.01      1.71      0.73
 Triples                 0.27      0.02      0.29      0.30

 Program statistics:

 Available memory in ccsd:               393215897
 Min. memory needed in ccsd:                252645
 Max. memory used in ccsd:                  301232
 Max. memory used in cckext:                354049 ( 1 integral passes)



 **********************************************************************************************************************************
 DATASETS  * FILE   NREC   LENGTH (MB)   RECORD NAMES
              1      20      110.68       500      610      700      900      950      970     1000      129      960     1100   
                                          VAR    BASINP    GEOM    SYMINP    ZMAT    AOBASIS   BASIS     P2S    ABASIS      S 
                                         1400     1410     1200     1210     1080     1600     1650     1300     1700     1380   
                                           T        V       H0       H01     AOSYM     SMH    MOLCAS    ERIS     OPER     JKOP   

              2       4        0.50       700     1000      520     2100   
                                         GEOM     BASIS   MCVARS     RHF  

 PROGRAMS   *        TOTAL       MP4    HF-SCF       INT
 CPU TIMES  *         1.97      0.47      0.32      1.09
 REAL TIME  *         7.39 SEC
 DISK USED  *       269.25 MB
 **********************************************************************************************************************************

 Dump information in style XML to xml output                                                                      

 Orbitals will not be exported.

 **********************************************************************************************************************************

 MP4/cc-pCVQZ energy=    -76.422402432841

             MP4          HF-SCF
    -76.42240243    -76.06493440
 **********************************************************************************************************************************
 Molpro calculation terminated
