
 Working directory              : /var/folders/2v/xbgp75_9785319ghcgb4zr4r0000gp/T//molpro.Y9c8NBuBuP/
 Global scratch directory       : /var/folders/2v/xbgp75_9785319ghcgb4zr4r0000gp/T//molpro.Y9c8NBuBuP/
 Wavefunction directory         : /Users/sacpjk/wfu/
 Main file repository           : /var/folders/2v/xbgp75_9785319ghcgb4zr4r0000gp/T//molpro.Y9c8NBuBuP/

 id        : peterk

 Nodes                        nprocs
 Cardiff-University-G34YLXT77Y    1
 GA implementation: MPI file
 GA implementation (serial work in mppx): MPI file

 Using customized tuning parameters: mindgm=1; mindgv=20; mindgc=4; mindgr=1; noblas=0; minvec=7
 default implementation of scratch files=df  


 Variables initialized (1032), CPU time= 0.00 sec
 
 symmetry,nosym
 
 
 geometry={
            2
     O          0.00000000      0.00000000      0.48102212
     H          0.00000000      0.00000000     -0.48102212
 }
 basis=cc-pVTZ
 
 charge=-1
 
 hf; hf; papt; mp4
 
 
 
 {put,xml;noorbitals,nobasis}
 Commands initialized (841), CPU time= 0.01 sec, 704 directives.
 Default parameters read. Elapsed time= 0.98 sec

 Checking input...
 Passed
1


                                         ***  PROGRAM SYSTEM MOLPRO  ***
                                       Copyright, TTI GmbH Stuttgart, 2015
                                    Version 2023.1 linked Tue Jun  6 09:54:11 2023


 **********************************************************************************************************************************
 LABEL *                                                                                                                                                                 
  64 bit serial version                                                                  DATE: 09-Jun-23          TIME: 15:38:24  
 **********************************************************************************************************************************

 SHA1:             8ebb0dd001088a5c915591db1a321413035db0b1
 **********************************************************************************************************************************

 Memory per process:       805 MW
 Total memory per node:   1074 MW
 Total GA space:           268 MW

 GA preallocation disabled
 GA check enabled

 Variable memory set to 805.3 MW

 ZSYMEL=NOSYM


 Geometry recognized as XYZ

 SETTING BASIS          =    CC-PVTZ
 SETTING CHARGE         =        -1.00000000                                  


 Recomputing integrals since basis changed


 Using spherical harmonics

 Library entry O      S cc-pVTZ              selected for orbital group  1
 Library entry O      P cc-pVTZ              selected for orbital group  1
 Library entry O      D cc-pVTZ              selected for orbital group  1
 Library entry O      F cc-pVTZ              selected for orbital group  1
 Library entry H      S cc-pVTZ              selected for orbital group  2
 Library entry H      P cc-pVTZ              selected for orbital group  2
 Library entry H      D cc-pVTZ              selected for orbital group  2


 PROGRAM * SEWARD (Integral evaluation for generally contracted gaussian basis sets)     Author: Roland Lindh, 1990

 Geometry written to block  1 of record 700


 Point group  C1  



 ATOMIC COORDINATES

 NR  ATOM    CHARGE       X              Y              Z

   1  O       8.00    0.000000000    0.000000000    0.909000067
   2  H       1.00    0.000000000    0.000000000   -0.909000067

 Bond lengths in Bohr (Angstrom)

 1-2  1.818000133
     ( 0.962044240)

 NUCLEAR CHARGE:                    9
 NUMBER OF PRIMITIVE AOS:          64
 NUMBER OF SYMMETRY AOS:           58
 NUMBER OF CONTRACTIONS:           44   (   44A   )
 NUMBER OF INNER CORE ORBITALS:     0   (    0A   )
 NUMBER OF OUTER CORE ORBITALS:     1   (    1A   )
 NUMBER OF VALENCE ORBITALS:        5   (    5A   )


 NUCLEAR REPULSION ENERGY    4.40043972

 EXTRA SYMMETRY OF AOS IN SYMMETRY 1:   1 1 1 1 2 3 1 2 3 1   2 3 1 1 4 2 5 3 1 4   2 5 3 2 3 1 6 4 7 5   1 1 1 2 3 1 2 3 1 1
                                        4 2 5 3

 Eigenvalues of metric

         1 0.387E-02 0.751E-02 0.108E-01 0.447E-01 0.447E-01 0.537E-01 0.112E+00 0.121E+00


 Contracted 2-electron integrals neglected if value below      1.0D-11
 AO integral compression algorithm  1   Integral accuracy      1.0D-11

     1.049 MB (compressed) written to integral file ( 20.0%)


 NUMBER OF SORTED TWO-ELECTRON INTEGRALS:     490545.     BUFFER LENGTH:  32768
 NUMBER OF SEGMENTS:   1  SEGMENT LENGTH:     490545      RECORD LENGTH: 524288

 Memory used in sort:       1.05 MW

 SORT1 READ      632502. AND WROTE       96284. INTEGRALS IN      1 RECORDS. CPU TIME:     0.00 SEC, REAL TIME:     0.01 SEC
 SORT2 READ       96284. AND WROTE      490545. INTEGRALS IN      4 RECORDS. CPU TIME:     0.02 SEC, REAL TIME:     0.02 SEC

 FILE SIZES:   FILE 1:    31.1 MBYTE,  FILE 4:     4.3 MBYTE,   TOTAL:     35.4 MBYTE

 OPERATOR DM      FOR CENTER  0  COORDINATES:    0.000000    0.000000    0.000000


 **********************************************************************************************************************************
 DATASETS  * FILE   NREC   LENGTH (MB)   RECORD NAMES
              1      19       29.29       500      610      700      900      950      970     1000      129      960     1100   
                                          VAR    BASINP    GEOM    SYMINP    ZMAT    AOBASIS   BASIS     P2S    ABASIS      S 
                                         1400     1410     1200     1210     1080     1600     1650     1300     1700   
                                           T        V       H0       H01     AOSYM     SMH    MOLCAS    ERIS     OPER   

 PROGRAMS   *        TOTAL       INT
 CPU TIMES  *         0.23      0.12
 REAL TIME  *         2.23 SEC
 DISK USED  *        34.07 MB
 **********************************************************************************************************************************


 Program * Restricted Hartree-Fock

 Orbital guess generated from atomic densities. Full valence occupancy:    6

 Initial occupancy:   5

 NELEC=   10   SYM=1   MS2= 0   THRE=1.0D-08   THRD=3.2D-06   THRG=3.2D-06  HFMA2=F  DIIS_START=2   DIIS_MAX=10   DIIS_INCORE=F

 Level shifts:    0.00 (CLOSED)    0.00 (OPEN)    0.30 (GAP_MIN)

 ITER           ETOT              DE          GRAD        DDIFF     DIIS  NEXP   TIME(IT)  TIME(TOT)  DIAG
   1      -75.26163213     -75.26163213     0.00D+00     0.14D+00     0     0       0.00      0.00    start
   2      -75.32682023      -0.06518809     0.28D-01     0.40D-01     1     0       0.01      0.01    diag
   3      -75.38265942      -0.05583919     0.21D-01     0.16D-01     2     0       0.00      0.01    diag
   4      -75.38285440      -0.00019498     0.98D-03     0.99D-03     3     0       0.00      0.01    diag
   5      -75.38288160      -0.00002720     0.25D-03     0.44D-03     4     0       0.00      0.01    diag
   6      -75.38288490      -0.00000329     0.73D-04     0.19D-03     5     0       0.01      0.02    diag
   7      -75.38288503      -0.00000013     0.13D-04     0.41D-04     6     0       0.00      0.02    diag
   8      -75.38288503      -0.00000000     0.27D-05     0.85D-05     7     0       0.00      0.02    fixocc
   9      -75.38288503      -0.00000000     0.24D-06     0.69D-06     8     0       0.00      0.02    diag
  10      -75.38288503      -0.00000000     0.26D-07     0.47D-07     0     0       0.01      0.03    diag/orth

 Final occupancy:   5

 !RHF STATE 1.1 Energy                -75.382885032784
  RHF One-electron energy            -117.012136796285
  RHF Two-electron energy              37.228812042326
  RHF Kinetic energy                   75.559192816053
  RHF Nuclear energy                    4.400439721175
  RHF Virial quotient                  -0.997666626962

 !RHF STATE 1.1 Dipole moment           0.00000000     0.00000000    -1.28265180
 Dipole moment /Debye                   0.00000000     0.00000000    -3.26017570

 Orbital energies:

           1.1          2.1          3.1          4.1          5.1          6.1          7.1
    -20.104823    -0.847851    -0.198297    -0.063143    -0.063143     0.425880     0.913609


 HOMO      5.1    -0.063143 =      -1.7182eV
 LUMO      6.1     0.425880 =      11.5888eV
 LUMO-HOMO         0.489023 =      13.3070eV

 Orbitals saved in record  2100.2


 **********************************************************************************************************************************
 DATASETS  * FILE   NREC   LENGTH (MB)   RECORD NAMES
              1      19       29.29       500      610      700      900      950      970     1000      129      960     1100   
                                          VAR    BASINP    GEOM    SYMINP    ZMAT    AOBASIS   BASIS     P2S    ABASIS      S 
                                         1400     1410     1200     1210     1080     1600     1650     1300     1700   
                                           T        V       H0       H01     AOSYM     SMH    MOLCAS    ERIS     OPER   

              2       4        0.43       700     1000      520     2100   
                                         GEOM     BASIS   MCVARS     RHF  

 PROGRAMS   *        TOTAL    HF-SCF       INT
 CPU TIMES  *         0.26      0.03      0.12
 REAL TIME  *         2.64 SEC
 DISK USED  *        34.07 MB
 **********************************************************************************************************************************


 Program * Restricted Hartree-Fock

 Molecular orbitals read from record     2100.2  Type=RHF/CANONICAL  

 Initial occupancy:   5

 NELEC=   10   SYM=1   MS2= 0   THRE=1.0D-08   THRD=3.2D-06   THRG=3.2D-06  HFMA2=F  DIIS_START=2   DIIS_MAX=10   DIIS_INCORE=F

 Level shifts:    0.00 (CLOSED)    0.00 (OPEN)    0.30 (GAP_MIN)

 ITER           ETOT              DE          GRAD        DDIFF     DIIS  NEXP   TIME(IT)  TIME(TOT)  DIAG
   1      -75.38288503     -75.38288503     0.00D+00     0.13D+00     0     0       0.01      0.01    start
   2      -75.38288503       0.00000000     0.85D-08     0.14D-07     1     0       0.00      0.01    diag

 Final occupancy:   5

 !RHF STATE 1.1 Energy                -75.382885032784
  RHF One-electron energy            -117.012136129214
  RHF Two-electron energy              37.228811375255
  RHF Kinetic energy                   75.559192275255
  RHF Nuclear energy                    4.400439721175
  RHF Virial quotient                  -0.997666634103

 !RHF STATE 1.1 Dipole moment           0.00000000    -0.00000000    -1.28265151
 Dipole moment /Debye                   0.00000000    -0.00000000    -3.26017495

 Orbital energies:

           1.1          2.1          3.1          4.1          5.1          6.1          7.1
    -20.104823    -0.847851    -0.198297    -0.063143    -0.063143     0.425880     0.913609


 HOMO      5.1    -0.063143 =      -1.7182eV
 LUMO      6.1     0.425880 =      11.5888eV
 LUMO-HOMO         0.489023 =      13.3070eV

 Orbitals saved in record  2101.2


 **********************************************************************************************************************************
 DATASETS  * FILE   NREC   LENGTH (MB)   RECORD NAMES
              1      19       29.29       500      610      700      900      950      970     1000      129      960     1100   
                                          VAR    BASINP    GEOM    SYMINP    ZMAT    AOBASIS   BASIS     P2S    ABASIS      S 
                                         1400     1410     1200     1210     1080     1600     1650     1300     1700   
                                           T        V       H0       H01     AOSYM     SMH    MOLCAS    ERIS     OPER   

              2       5        0.57       700     1000      520     2100     2101   
                                         GEOM     BASIS   MCVARS     RHF      RHF  

 PROGRAMS   *        TOTAL    HF-SCF    HF-SCF       INT
 CPU TIMES  *         0.27      0.01      0.03      0.12
 REAL TIME  *         2.81 SEC
 DISK USED  *        34.07 MB
 **********************************************************************************************************************************


 PROGRAM * PAPT (Closed-shell)     Authors: C. Hampel, H.-J. Werner, 1991, P.J. Knowles, 2021


 Convergence thresholds:  THRVAR = 1.00D-08  THRDEN = 1.00D-06

 Number of core orbitals:           1 (   1 )
 Number of closed-shell orbitals:   4 (   4 )
 Number of external orbitals:      39 (  39 )

 Molecular orbitals read from record     2101.2  Type=RHF/CANONICAL  

 Number of N-1 electron functions:               4
 Number of N-2 electron functions:              10
 Number of singly external CSFs:               156
 Number of doubly external CSFs:             12246
 Total number of CSFs:                       12403

 Length of J-op  integral file:               0.00 MB
 Length of K-op  integral file:               0.20 MB

 Integral transformation finished. Total CPU:   0.00 sec, npass=  1  Memory used:   0.13 MW

 Reference energy:                    -75.38288503

                        CORR.ENERGY   TOTAL ENERGY   ENERGY CHANGE
 MP2:                   -0.26465065   -75.64753568    -0.26465065

 SCS-MP2 correlation energy:           -0.25975842   (PS=  1.200000  PT=  0.333333)
 SCS-MP2 total energy:                -75.64264345
 Iteration:   1     0.2202D+00
 Iteration:   2     0.1983D+00
 Iteration:   3     0.9911D-01
 Iteration:   4     0.9013D-02
 Iteration:   5     0.3933D-02
 Iteration:   6     0.2046D-01
 Iteration:   7     0.1699D-02
 Iteration:   8     0.1150D-02
 Iteration:   9     0.2222D-02
 Iteration:  10     0.2273D-03
 Iteration:  11     0.5998D-04
 PAPT operator written to  7000.1
 PAPT orbitals and eigenvalues written to  7000.2

 MP3(D):                -0.26454345   -75.64742848     0.00010720



 RESULTS
 =======

  Reference energy                    -75.382885032784
  MP3 singlet pair energy              -0.174918501715
  MP3 triplet pair energy              -0.089624944169
  MP3 correlation energy               -0.264543445884

 !MP3 total energy                    -75.647428478668

 Timing summary (sec):

 STEP                 CPU(USER)    SYS     CPU(TOT)    WALL
 CCSD iterations         0.42      0.01      0.43      0.65

 Program statistics:

 Available memory in ccsd:               805306299
 Min. memory needed in ccsd:                 62242
 Max. memory used in ccsd:                   69864
 Max. memory used in cckext:                 81618 ( 1 integral passes)



 **********************************************************************************************************************************
 DATASETS  * FILE   NREC   LENGTH (MB)   RECORD NAMES
              1      21       29.55       500      610      700      900      950      970     1000      129      960     1100   
                                          VAR    BASINP    GEOM    SYMINP    ZMAT    AOBASIS   BASIS     P2S    ABASIS      S 
                                         1400     1410     1200     1210     1080     1600     1650     1300     1700     1380   
                                           T        V       H0       H01     AOSYM     SMH    MOLCAS    ERIS     OPER     JKOP   
                                         7000   
                                        PAPT AO    

              2       6        0.72       700     1000      520     2100     2101     7000   
                                         GEOM     BASIS   MCVARS     RHF      RHF     PAPT   

 PROGRAMS   *        TOTAL      PAPT    HF-SCF    HF-SCF       INT
 CPU TIMES  *         0.33      0.06      0.01      0.03      0.12
 REAL TIME  *         3.86 SEC
 DISK USED  *        34.07 MB
 **********************************************************************************************************************************


 PROGRAM * MP4 (Closed-shell)     Authors: C. Hampel, H.-J. Werner, 1991, M. Deegan, P.J. Knowles, 1992


 Convergence thresholds:  THRVAR = 1.00D-08  THRDEN = 1.00D-06

 MP4(T)     terms to be evaluated (factor= 0.000)


 Number of core orbitals:           1 (   1 )
 Number of closed-shell orbitals:   4 (   4 )
 Number of external orbitals:      39 (  39 )

 Molecular orbitals read from record     7000.2  Type=PAPT/CANONICAL (state 1.1)

 Number of N-1 electron functions:               4
 Number of N-2 electron functions:              10
 Number of singly external CSFs:               156
 Number of doubly external CSFs:             12246
 Total number of CSFs:                       12403

 Length of J-op  integral file:               0.00 MB
 Length of K-op  integral file:               0.20 MB

 Memory could be reduced to 0.49 Mwords without degradation in triples

 Integral transformation finished. Total CPU:   0.01 sec, npass=  1  Memory used:   0.34 MW
 Orbital energies read from record       7000.2  Type=PAPT/CANONICAL (state 1.1)

 Reference energy:                    -75.38288503

                        CORR.ENERGY   TOTAL ENERGY   ENERGY CHANGE
 MP2:                   -0.26621838   -75.64910342    -0.26621838

 SCS-MP2 correlation energy:           -0.26186915   (PS=  1.200000  PT=  0.333333)
 SCS-MP2 total energy:                -75.64475418

 MP3(D):                -0.26622542   -75.64911045    -0.00000704
 MP4(DQ):               -0.26540639   -75.64829142     0.00081903
 MP4(SDQ):              -0.26675589   -75.64964092    -0.00134950

 Norm of t1 vector:      0.02171164      S-energy:    -0.00134950      T1 diagnostic:  0.00542791

 Largest off-diagonal element in interal  block of Fock matrix:  0.12D+00
 Largest off-diagonal element in external block of Fock matrix:  0.39D+00


 Total CPU time for triples:      0.01 sec


 RESULTS
 =======

  Reference energy                    -75.382885032784
  MP4(SDQ) singlet pair energy         -0.174587164145
  MP4(SDQ) triplet pair energy         -0.090819223143
  MP4(SDQ) correlation energy          -0.266755887984

  Triples contribution                 -0.008524027268
  Total correlation energy             -0.275279915252

  MP4(SDQ) total energy               -75.649640920767
 !MP4(SDTQ) total energy              -75.658164948036

 Timing summary (sec):

 STEP                 CPU(USER)    SYS     CPU(TOT)    WALL
 Transformation          0.01      0.00      0.01      0.27
 CCSD iterations         0.45      0.00      0.45      0.41
 Triples                 0.01      0.01      0.02      0.02

 Program statistics:

 Available memory in ccsd:               805306299
 Min. memory needed in ccsd:                 62242
 Max. memory used in ccsd:                   69864
 Max. memory used in cckext:                 81618 ( 1 integral passes)



 **********************************************************************************************************************************
 DATASETS  * FILE   NREC   LENGTH (MB)   RECORD NAMES
              1      22       30.48       500      610      700      900      950      970     1000      129      960     1100   
                                          VAR    BASINP    GEOM    SYMINP    ZMAT    AOBASIS   BASIS     P2S    ABASIS      S 
                                         1400     1410     1200     1210     1080     1600     1650     1300     1700     1380   
                                           T        V       H0       H01     AOSYM     SMH    MOLCAS    ERIS     OPER     JKOP   
                                         7000     1380(1)
                                        PAPT AO   JKOP   

              2       6        0.72       700     1000      520     2100     2101     7000   
                                         GEOM     BASIS   MCVARS     RHF      RHF     PAPT   

 PROGRAMS   *        TOTAL       MP4      PAPT    HF-SCF    HF-SCF       INT
 CPU TIMES  *         0.38      0.05      0.06      0.01      0.03      0.12
 REAL TIME  *         5.13 SEC
 DISK USED  *        34.07 MB
 **********************************************************************************************************************************

 Dump information in style XML to xml output                                                                      

 Orbitals will not be exported.

 **********************************************************************************************************************************

 MP4/cc-pVTZ energy=    -75.658164948036

             MP4            PAPT          HF-SCF          HF-SCF
    -75.65816495    -75.64742848    -75.38288503    -75.38288503
 **********************************************************************************************************************************
 Molpro calculation terminated
