
 Working directory              : /var/folders/2v/xbgp75_9785319ghcgb4zr4r0000gp/T//molpro.ouOouUk7bP/
 Global scratch directory       : /var/folders/2v/xbgp75_9785319ghcgb4zr4r0000gp/T//molpro.ouOouUk7bP/
 Wavefunction directory         : /Users/sacpjk/wfu/
 Main file repository           : /var/folders/2v/xbgp75_9785319ghcgb4zr4r0000gp/T//molpro.ouOouUk7bP/

 id        : peterk

 Nodes                        nprocs
 Cardiff-University-G34YLXT77Y    1
 GA implementation: MPI file
 GA implementation (serial work in mppx): MPI file

 Using customized tuning parameters: mindgm=1; mindgv=20; mindgc=4; mindgr=1; noblas=0; minvec=7
 default implementation of scratch files=df  


 Variables initialized (1032), CPU time= 0.01 sec
 
 symmetry,nosym
 
 
 geometry={
            7
     C         -0.02568214     -0.62490995      0.00000000
     C         -0.02568214      0.86613162      0.00000000
     H          0.99397568     -1.02873569      0.00000000
     H         -0.52372742     -1.02453402      0.88341908
     H         -0.52372742     -1.02453402     -0.88341908
     H          0.05242172      1.41829103     -0.92431919
     H          0.05242172      1.41829103      0.92431919
 }
 basis=cc-pVDZ
 
 
 spin=1
 uhf
 
 
 
 {put,xml;noorbitals,nobasis}
 Commands initialized (841), CPU time= 0.00 sec, 704 directives.
 Default parameters read. Elapsed time= 0.17 sec

 Checking input...
 Passed
1


                                         ***  PROGRAM SYSTEM MOLPRO  ***
                                       Copyright, TTI GmbH Stuttgart, 2015
                                    Version 2023.1 linked Tue Jun  6 09:54:11 2023


 **********************************************************************************************************************************
 LABEL *                                                                                                                                                                 
  64 bit serial version                                                                  DATE: 09-Jun-23          TIME: 09:27:58  
 **********************************************************************************************************************************

 SHA1:             8ebb0dd001088a5c915591db1a321413035db0b1
 **********************************************************************************************************************************

 Memory per process:       805 MW
 Total memory per node:   1074 MW
 Total GA space:           268 MW

 GA preallocation disabled
 GA check enabled

 Variable memory set to 805.3 MW

 ZSYMEL=NOSYM


 Geometry recognized as XYZ

 SETTING BASIS          =    CC-PVDZ
 SETTING SPIN           =         1.00000000                                  


 Recomputing integrals since basis changed


 Using spherical harmonics

 Library entry C      S cc-pVDZ              selected for orbital group  1
 Library entry C      P cc-pVDZ              selected for orbital group  1
 Library entry C      D cc-pVDZ              selected for orbital group  1
 Library entry H      S cc-pVDZ              selected for orbital group  2
 Library entry H      P cc-pVDZ              selected for orbital group  2


 PROGRAM * SEWARD (Integral evaluation for generally contracted gaussian basis sets)     Author: Roland Lindh, 1990

 Geometry written to block  1 of record 700


 Point group  C1  



 ATOMIC COORDINATES

 NR  ATOM    CHARGE       X              Y              Z

   1  C       6.00   -0.048532211   -1.180908658    0.000000000
   2  C       6.00   -0.048532211    1.636751550    0.000000000
   3  H       1.00    1.878341810   -1.944028709    0.000000000
   4  H       1.00   -0.989701388   -1.936088703    1.669420114
   5  H       1.00   -0.989701388   -1.936088703   -1.669420114
   6  H       1.00    0.099062694    2.680181612   -1.746710121
   7  H       1.00    0.099062694    2.680181612    1.746710121

 Bond lengths in Bohr (Angstrom)

 1-2  2.817660208  1-3  2.072485393  1-4  2.059868889  1-5  2.059868889  2-6  2.039982058
     ( 1.491041570)     ( 1.096712040)     ( 1.090035673)     ( 1.090035673)     ( 1.079512016)

 2-7  2.039982058
     ( 1.079512016)

 Bond angles

  1-2-6  120.76311716   1-2-7  120.76311716   2-1-3  111.60556905   2-1-4  111.50704266

  2-1-5  111.50704266   3-1-4  106.84670121   3-1-5  106.84670121   4-1-5  108.27978243

  6-2-7  117.79354400

 NUCLEAR CHARGE:                   17
 NUMBER OF PRIMITIVE AOS:          89
 NUMBER OF SYMMETRY AOS:           87
 NUMBER OF CONTRACTIONS:           53   (   53A   )
 NUMBER OF INNER CORE ORBITALS:     0   (    0A   )
 NUMBER OF OUTER CORE ORBITALS:     2   (    2A   )
 NUMBER OF VALENCE ORBITALS:       13   (   13A   )


 NUCLEAR REPULSION ENERGY   36.97781161


 Eigenvalues of metric

         1 0.531E-02 0.151E-01 0.257E-01 0.305E-01 0.334E-01 0.370E-01 0.381E-01 0.433E-01


 Contracted 2-electron integrals neglected if value below      1.0D-11
 AO integral compression algorithm  1   Integral accuracy      1.0D-11

     5.243 MB (compressed) written to integral file ( 53.3%)


 NUMBER OF SORTED TWO-ELECTRON INTEGRALS:    1024596.     BUFFER LENGTH:  32768
 NUMBER OF SEGMENTS:   1  SEGMENT LENGTH:    1024596      RECORD LENGTH: 524288

 Memory used in sort:       1.58 MW

 SORT1 READ     1206537. AND WROTE      922690. INTEGRALS IN      3 RECORDS. CPU TIME:     0.01 SEC, REAL TIME:     0.01 SEC
 SORT2 READ      922690. AND WROTE     1024596. INTEGRALS IN     20 RECORDS. CPU TIME:     0.02 SEC, REAL TIME:     0.03 SEC

 FILE SIZES:   FILE 1:    35.4 MBYTE,  FILE 4:    12.6 MBYTE,   TOTAL:     48.1 MBYTE

 OPERATOR DM      FOR CENTER  0  COORDINATES:    0.000000    0.000000    0.000000


 **********************************************************************************************************************************
 DATASETS  * FILE   NREC   LENGTH (MB)   RECORD NAMES
              1      19       32.91       500      610      700      900      950      970     1000      129      960     1100   
                                          VAR    BASINP    GEOM    SYMINP    ZMAT    AOBASIS   BASIS     P2S    ABASIS      S 
                                         1400     1410     1200     1210     1080     1600     1650     1300     1700   
                                           T        V       H0       H01     AOSYM     SMH    MOLCAS    ERIS     OPER   

 PROGRAMS   *        TOTAL       INT
 CPU TIMES  *         0.24      0.15
 REAL TIME  *         0.79 SEC
 DISK USED  *        46.28 MB
 **********************************************************************************************************************************


 Program * Unrestricted Hartree-Fock

 Orbital guess generated from atomic densities. Full valence occupancy:   15

 Initial alpha occupancy:   9
 Initial beta  occupancy:   8

 Elapsed time for starting guess:      0.00 sec

 NELEC=   17   SYM=1   MS2=1   THRE=1.0D-08   THRD=3.2D-06   THRG=3.2D-06  HFMA2=F  DIIS_START=2   DIIS_MAX=10   DIIS_INCORE=F

 Initial level shifts:    0.20 (ALPHA)    0.20 (BETA)

 ITER         ETOT            DE          GRAD         DDIFF    DIIS  NEXP   TIME(IT)  TIME(TOT)  DIAG
   1    -78.56779957   -78.56779957     0.00D+00     0.00D+00     0     0       0.01      0.01    start
   2    -78.59640808    -0.02860851     0.71D-02     0.13D+00     1     0       0.00      0.01    diag
   3    -78.60226489    -0.00585681     0.29D-02     0.11D-01     2     0       0.01      0.02    diag
   4    -78.60373141    -0.00146652     0.14D-02     0.43D-02     3     0       0.00      0.02    diag
   5    -78.60402342    -0.00029201     0.55D-03     0.18D-02     4     0       0.01      0.03    diag
   6    -78.60406501    -0.00004159     0.17D-03     0.68D-03     5     0       0.00      0.03    diag
   7    -78.60407150    -0.00000649     0.78D-04     0.21D-03     6     0       0.01      0.04    diag
   8    -78.60407241    -0.00000091     0.25D-04     0.65D-04     7     0       0.01      0.05    diag
   9    -78.60407252    -0.00000011     0.82D-05     0.20D-04     7     0       0.00      0.05    diag
  10    -78.60407253    -0.00000001     0.27D-05     0.47D-05     7     0       0.01      0.06    diag/ort
  11    -78.60407253    -0.00000000     0.97D-06     0.17D-05     7     0       0.00      0.06    diag
  12    -78.60407253    -0.00000000     0.33D-06     0.76D-06     7     0       0.01      0.07    diag

 Final alpha occupancy:   9
 Final beta  occupancy:   8

 !UHF STATE 1.1 Energy                -78.604072533772
  UHF One-electron energy            -177.876855997765
  UHF Two-electron energy              62.294971854912
  UHF Kinetic energy                   78.533424760271
  UHF Nuclear energy                   36.977811609080
  UHF Virial quotient                  -1.000899588598

 !UHF STATE 1.1 Dipole moment           0.04160915    -0.06386208     0.00000000
 Dipole moment /Debye                   0.10575992    -0.16232122     0.00000000

 EXPECTATION VALUE OF S**2:             0.76253412

 Orbital energies for positive spin:

           1.1          2.1          3.1          4.1          5.1          6.1          7.1          8.1          9.1         10.1
    -11.231436   -11.223167    -1.028926    -0.839711    -0.616168    -0.575126    -0.538589    -0.502893    -0.348612     0.193835

          11.1
      0.227223

 Orbital energies for negative spin:

           1.1          2.1          3.1          4.1          5.1          6.1          7.1          8.1          9.1         10.1
    -11.226437   -11.206454    -0.992462    -0.785175    -0.605135    -0.543908    -0.525767    -0.496943     0.154636     0.197837


 HOMO      9.1    -0.348612 =      -9.4862eV
 LUMO     -9.1     0.154636 =       4.2079eV
 LUMO-HOMO         0.503248 =      13.6941eV

 Orbitals saved in record  2200.2

 Occupation number threshold for pseudo-canonical orbitals: 1.9990 (occupied), 0.0010 (virtual)

 Number of pseudo-canonical occupied orbitals per symmetry:    7
 Number of active natural orbitals per symmetry:               3

 Natural orbitals saved to record    2200.2 (Orbital set 3)

 Orbital spaces for UNO-CAS (Min. occupation: 0.020  Max. occupation: 1.980):

 Closed:        8
 Active:        1


 **********************************************************************************************************************************
 DATASETS  * FILE   NREC   LENGTH (MB)   RECORD NAMES
              1      19       32.91       500      610      700      900      950      970     1000      129      960     1100   
                                          VAR    BASINP    GEOM    SYMINP    ZMAT    AOBASIS   BASIS     P2S    ABASIS      S 
                                         1400     1410     1200     1210     1080     1600     1650     1300     1700   
                                           T        V       H0       H01     AOSYM     SMH    MOLCAS    ERIS     OPER   

              2       4        0.59       700     1000      520     2200   
                                         GEOM     BASIS   MCVARS     UHF  

              4       3        0.54      2900     3000     3100   

 PROGRAMS   *        TOTAL   UHF-SCF       INT
 CPU TIMES  *         0.31      0.07      0.15
 REAL TIME  *         1.07 SEC
 DISK USED  *        46.28 MB
 **********************************************************************************************************************************

 Dump information in style XML to xml output                                                                      

 Orbitals will not be exported.

 **********************************************************************************************************************************

 UHF/cc-pVDZ energy=    -78.604072533772

         UHF-SCF
    -78.60407253
 **********************************************************************************************************************************
 Molpro calculation terminated
