
 Working directory              : /var/folders/2v/xbgp75_9785319ghcgb4zr4r0000gp/T//molpro.PheiV3a1Kz/
 Global scratch directory       : /var/folders/2v/xbgp75_9785319ghcgb4zr4r0000gp/T//molpro.PheiV3a1Kz/
 Wavefunction directory         : /Users/sacpjk/wfu/
 Main file repository           : /var/folders/2v/xbgp75_9785319ghcgb4zr4r0000gp/T//molpro.PheiV3a1Kz/

 id        : peterk

 Nodes                        nprocs
 Cardiff-University-G34YLXT77Y    1
 GA implementation: MPI file
 GA implementation (serial work in mppx): MPI file

 Using customized tuning parameters: mindgm=1; mindgv=20; mindgc=4; mindgr=1; noblas=0; minvec=7
 default implementation of scratch files=df  


 Variables initialized (1032), CPU time= 0.00 sec
 
 symmetry,nosym
 
 
 geometry={
           16
     C         -0.00324094     -0.25986528      1.43104763
     C          0.00250506      0.26000891     -1.43116138
     C         -1.22051037      0.25489690      0.94641446
     C          1.22042950     -0.25352728     -0.94689721
     C          1.21669450      0.25345290      0.95174046
     C         -1.21667037     -0.25497728     -0.95165921
     H         -2.14824270     -0.18926625      1.30686359
     H          2.14745783      0.19304288     -1.30613834
     H         -1.30046040      1.33198029      0.81000741
     H          1.30231753     -1.33062566     -0.81188816
     H          1.29949953      1.33050829      0.81697442
     H         -1.29700440     -1.33208266     -0.81569617
     H          2.14213983     -0.19342526      1.31466859
     H         -2.14303270      0.18915188     -1.31565134
     H         -0.00465194     -1.27756264      1.82287977
     H          0.00277006      1.27829027     -1.82150452
 }
 basis=cc-pVTZ
 
 
 
 hf; ccsd(t)
 
 
 
 {put,xml;noorbitals,nobasis}
 Commands initialized (841), CPU time= 0.01 sec, 704 directives.
 Default parameters read. Elapsed time= 1.05 sec

 Checking input...
 Passed
1


                                         ***  PROGRAM SYSTEM MOLPRO  ***
                                       Copyright, TTI GmbH Stuttgart, 2015
                                    Version 2023.1 linked Tue Jun  6 09:54:11 2023


 **********************************************************************************************************************************
 LABEL *                                                                                                                                                                 
  64 bit serial version                                                                  DATE: 12-Jun-23          TIME: 03:31:53  
 **********************************************************************************************************************************

 SHA1:             8ebb0dd001088a5c915591db1a321413035db0b1
 **********************************************************************************************************************************

 Memory per process:       393 MW
 Total memory per node:    524 MW
 Total GA space:           131 MW

 GA preallocation disabled
 GA check enabled

 Variable memory set to 393.2 MW

 ZSYMEL=NOSYM


 Geometry recognized as XYZ

 SETTING BASIS          =    CC-PVTZ


 Recomputing integrals since basis changed


 Using spherical harmonics

 Library entry C      S cc-pVTZ              selected for orbital group  1
 Library entry C      P cc-pVTZ              selected for orbital group  1
 Library entry C      D cc-pVTZ              selected for orbital group  1
 Library entry C      F cc-pVTZ              selected for orbital group  1
 Library entry H      S cc-pVTZ              selected for orbital group  2
 Library entry H      P cc-pVTZ              selected for orbital group  2
 Library entry H      D cc-pVTZ              selected for orbital group  2


 PROGRAM * SEWARD (Integral evaluation for generally contracted gaussian basis sets)     Author: Roland Lindh, 1990

 Geometry written to block  1 of record 700


 Point group  C1  



 ATOMIC COORDINATES

 NR  ATOM    CHARGE       X              Y              Z

   1  C       6.00   -0.006124489   -0.491074208    2.704288092
   2  C       6.00    0.004733877    0.491345630   -2.704503048
   3  C       6.00   -2.306430332    0.481685331    1.788464130
   4  C       6.00    2.306277509   -0.479097124   -1.789376395
   5  C       6.00    2.299219382    0.478956566    1.798528811
   6  C       6.00   -2.299173783   -0.481837227   -1.798375271
   7  H       1.00   -4.059590352   -0.357661377    2.469614267
   8  H       1.00    4.058107163    0.364798174   -2.468243743
   9  H       1.00   -2.457513992    2.517077951    1.530692164
  10  H       1.00    2.461023459   -2.514518072   -1.534246266
  11  H       1.00    2.455698211    2.514296275    1.543857905
  12  H       1.00   -2.450983098   -2.517271403   -1.541442362
  13  H       1.00    4.048057599   -0.365520767    2.484363580
  14  H       1.00   -4.049744879    0.357445249   -2.486220708
  15  H       1.00   -0.008790893   -2.414243497    3.444743523
  16  H       1.00    0.005234655    2.415618518   -3.442144678

 Bond lengths in Bohr (Angstrom)

  1- 3  2.660150676   1- 5  2.660069538   1-15  2.060791466   2- 4  2.660135151   2- 6  2.660102053
       ( 1.407691115)       ( 1.407648179)       ( 1.090523880)       ( 1.407682900)       ( 1.407665385)

  2-16  2.060810902   3- 6  3.714006632   3- 7  2.059620952   3- 9  2.057205818   4- 5  3.713620937
       ( 1.090534165)       ( 1.965367671)       ( 1.089904471)       ( 1.088626437)       ( 1.965163570)

  4- 8  2.059593961   4-10  2.057176736   5-11  2.057170538   5-13  2.059598603   6-12  2.057195390
       ( 1.089890188)       ( 1.088611048)       ( 1.088607768)       ( 1.089892644)       ( 1.088620919)

  6-14  2.059617824
       ( 1.089902816)

 Bond angles

  1-3-6  103.64645029   1-3-7  118.24093053   1-3-9  117.93346771   1-5-4  103.68271803

  1- 5-11  117.96087551   1- 5-13  118.22790120   2- 4- 5  103.68654387   2- 4- 8  118.23204805

  2- 4-10  117.94984296   2- 6- 3  103.63610686   2- 6-12  117.93249869   2- 6-14  118.24860173

  3- 1- 5  119.92317925   3- 1-15  117.63513147   3- 6-12   97.81197234   3- 6-14  102.42466994

  4- 2- 6  119.91391486   4- 2-16  117.61738890   4- 5-11   97.78727579   4- 5-13  102.37617917

  5- 1-15  117.63109381   5- 4- 8  102.37825779   5- 4-10   97.79199725   6- 2-16  117.62886296

  6- 3- 7  102.43499097   6- 3- 9   97.80548625   7- 3- 9  112.46565785   8- 4-10  112.47633439

 11- 5-13  112.47651511  12- 6-14  112.46835562

 NUCLEAR CHARGE:                   46
 NUMBER OF PRIMITIVE AOS:         452
 NUMBER OF SYMMETRY AOS:          412
 NUMBER OF CONTRACTIONS:          320   (  320A   )
 NUMBER OF INNER CORE ORBITALS:     0   (    0A   )
 NUMBER OF OUTER CORE ORBITALS:     6   (    6A   )
 NUMBER OF VALENCE ORBITALS:       34   (   34A   )


 NUCLEAR REPULSION ENERGY  230.68061387


 Eigenvalues of metric

         1 0.336E-03 0.485E-03 0.511E-03 0.599E-03 0.926E-03 0.992E-03 0.102E-02 0.115E-02


 Contracted 2-electron integrals neglected if value below      1.0D-11
 AO integral compression algorithm  1   Integral accuracy      1.0D-11

     4455.924 MB (compressed) written to integral file ( 40.7%)


 NUMBER OF SORTED TWO-ELECTRON INTEGRALS: 1318950480.     BUFFER LENGTH:  32768
 NUMBER OF SEGMENTS:  42  SEGMENT LENGTH:   31998710      RECORD LENGTH: 524288

 Memory used in sort:      32.56 MW

 SORT1 READ  1369582413. AND WROTE  1156569741. INTEGRALS IN   3329 RECORDS. CPU TIME:    11.43 SEC, REAL TIME:    15.77 SEC
 SORT2 READ  1156569741. AND WROTE  1318950480. INTEGRALS IN  16998 RECORDS. CPU TIME:     8.06 SEC, REAL TIME:    14.77 SEC

 FILE SIZES:   FILE 1:  4490.0 MBYTE,  FILE 4: 13962.9 MBYTE,   TOTAL:  18452.9 MBYTE

 OPERATOR DM      FOR CENTER  0  COORDINATES:    0.000000    0.000000    0.000000


 **********************************************************************************************************************************
 DATASETS  * FILE   NREC   LENGTH (MB)   RECORD NAMES
              1      19     4010.95       500      610      700      900      950      970     1000      129      960     1100   
                                          VAR    BASINP    GEOM    SYMINP    ZMAT    AOBASIS   BASIS     P2S    ABASIS      S 
                                         1400     1410     1200     1210     1080     1600     1650     1300     1700   
                                           T        V       H0       H01     AOSYM     SMH    MOLCAS    ERIS     OPER   

 PROGRAMS   *        TOTAL       INT
 CPU TIMES  *        50.11     50.01
 REAL TIME  *        68.27 SEC
 DISK USED  *        17.19 GB
 **********************************************************************************************************************************


 Program * Restricted Hartree-Fock

 Orbital guess generated from atomic densities. Full valence occupancy:   40

 Initial occupancy:  23

 NELEC=   46   SYM=1   MS2= 0   THRE=1.0D-08   THRD=3.2D-06   THRG=3.2D-06  HFMA2=F  DIIS_START=2   DIIS_MAX=10   DIIS_INCORE=F

 Level shifts:    0.00 (CLOSED)    0.00 (OPEN)    0.30 (GAP_MIN)

 ITER           ETOT              DE          GRAD        DDIFF     DIIS  NEXP   TIME(IT)  TIME(TOT)  DIAG
   1     -232.90325735    -232.90325735     0.00D+00     0.41D-01     0     0       7.06     13.59    start
   2     -232.96354352      -0.06028616     0.25D-02     0.37D-02     1     0       7.07     20.66    diag
   3     -232.97167436      -0.00813084     0.10D-02     0.11D-02     2     0       6.93     27.59    diag
   4     -232.97300465      -0.00133029     0.35D-03     0.47D-03     3     0       7.11     34.70    diag
   5     -232.97303329      -0.00002864     0.41D-04     0.91D-04     4     0       6.86     41.56    diag
   6     -232.97303528      -0.00000200     0.11D-04     0.26D-04     5     0       7.01     48.57    diag
   7     -232.97303548      -0.00000020     0.29D-05     0.76D-05     6     0       6.92     55.49    diag
   8     -232.97303550      -0.00000002     0.12D-05     0.22D-05     7     0       6.99     62.48    fixocc
   9     -232.97303550      -0.00000000     0.33D-06     0.74D-06     8     0       6.96     69.44    diag
  10     -232.97303550      -0.00000000     0.62D-07     0.12D-06     0     0       6.99     76.43    diag/orth

 Final occupancy:  23

 !RHF STATE 1.1 Energy               -232.973035501474
  RHF One-electron energy            -770.446378937744
  RHF Two-electron energy             306.792729570799
  RHF Kinetic energy                  232.546219008421
  RHF Nuclear energy                  230.680613865472
  RHF Virial quotient                  -1.001835405000

 !RHF STATE 1.1 Dipole moment          -0.00005930    -0.00004692     0.00046605
 Dipole moment /Debye                  -0.00015072    -0.00011926     0.00118458

 Orbital energies:

           1.1          2.1          3.1          4.1          5.1          6.1          7.1          8.1          9.1         10.1
    -11.235445   -11.235417   -11.235318   -11.235286   -11.214618   -11.214595    -1.096771    -1.024689    -0.957310    -0.866688

          11.1         12.1         13.1         14.1         15.1         16.1         17.1         18.1         19.1         20.1
     -0.767134    -0.744952    -0.647113    -0.623416    -0.603492    -0.566721    -0.528898    -0.510515    -0.509533    -0.501796

          21.1         22.1         23.1         24.1         25.1
     -0.480460    -0.356413    -0.273875     0.100897     0.154624


 HOMO     23.1    -0.273875 =      -7.4525eV
 LUMO     24.1     0.100897 =       2.7455eV
 LUMO-HOMO         0.374772 =      10.1981eV

 Orbitals saved in record  2100.2


 **********************************************************************************************************************************
 DATASETS  * FILE   NREC   LENGTH (MB)   RECORD NAMES
              1      19     4010.95       500      610      700      900      950      970     1000      129      960     1100   
                                          VAR    BASINP    GEOM    SYMINP    ZMAT    AOBASIS   BASIS     P2S    ABASIS      S 
                                         1400     1410     1200     1210     1080     1600     1650     1300     1700   
                                           T        V       H0       H01     AOSYM     SMH    MOLCAS    ERIS     OPER   

              2       4        2.24       700     1000      520     2100   
                                         GEOM     BASIS   MCVARS     RHF  

 PROGRAMS   *        TOTAL    HF-SCF       INT
 CPU TIMES  *       126.55     76.43     50.01
 REAL TIME  *       155.17 SEC
 DISK USED  *        17.19 GB
 **********************************************************************************************************************************


 PROGRAM * CCSD (Closed-shell coupled cluster)     Authors: C. Hampel, H.-J. Werner, 1991, M. Deegan, P.J. Knowles, 1992


 Convergence thresholds:  THRVAR = 1.00D-08  THRDEN = 1.00D-06

 CCSD(T)     terms to be evaluated (factor= 1.000)


 Number of core orbitals:           6 (   6 )
 Number of closed-shell orbitals:  17 (  17 )
 Number of external orbitals:     297 ( 297 )

 Molecular orbitals read from record     2100.2  Type=RHF/CANONICAL  

 Number of N-1 electron functions:              17
 Number of N-2 electron functions:             153
 Number of singly external CSFs:              5049
 Number of doubly external CSFs:          12748725
 Total number of CSFs:                    12753775

 Length of J-op  integral file:               0.00 MB
 Length of K-op  integral file:               7.09 MB
 Length of 3-ext integral record:             0.00 MB

 For full I/O caching in triples, increase memory by 148.90 Mwords to 542.17 Mwords.

 Integral transformation finished. Total CPU:  50.77 sec, npass=  1  Memory used: 323.62 MW

 Reference energy:                   -232.97303550

 MP2 singlet pair energy:              -0.67295225
 MP2 triplet pair energy:              -0.37747213
 MP2 correlation energy:               -1.05042438
 MP2 total energy:                   -234.02345989

 SCS-MP2 correlation energy:           -1.04241425   (PS=  1.200000  PT=  0.333333)
 SCS-MP2 total energy:               -234.01544975

 ITER.      SQ.NORM     CORR.ENERGY   TOTAL ENERGY   ENERGY CHANGE        DEN1      VAR(S)    VAR(P)  DIIS     TIME  TIME/IT
   1      1.36697052    -1.07885615  -234.05189165    -0.02843176     0.00132485  0.39D-02  0.90D-02  1  1   278.51    93.88
   2      1.39426928    -1.08287768  -234.05591318    -0.00402153    -0.02679836  0.65D-04  0.10D-02  2  2   384.71    97.28
   3      1.40447342    -1.08292701  -234.05596251    -0.00004933    -0.00554591  0.28D-04  0.93D-04  3  3   491.29    98.61
   4      1.40835591    -1.08305040  -234.05608591    -0.00012339    -0.00122025  0.26D-05  0.16D-04  4  4   597.58    99.34
   5      1.40988993    -1.08310008  -234.05613558    -0.00004968    -0.00036603  0.71D-06  0.18D-05  5  5   703.93    99.80
   6      1.41031895    -1.08308863  -234.05612413     0.00001145    -0.00005619  0.76D-07  0.16D-06  6  6   811.39   100.36
   7      1.41038687    -1.08308787  -234.05612337     0.00000076    -0.00000212  0.27D-07  0.14D-07  6  2   918.66   100.57
   8      1.41040377    -1.08308775  -234.05612325     0.00000012    -0.00000177  0.40D-08  0.27D-08  6  1  1021.71   100.30

 Norm of t1 vector:      0.08094168      S-energy:     0.00000026      T1 diagnostic:  0.00981562
                                                                       D1 diagnostic:  0.03060208
                                                                       D2 diagnostic:  0.20706964 (internal)

 Doubles amplitudes (print threshold =  0.500E-01):

         I         J         SYM. A    SYM. B    A         B      T(IJ, AB)

        17        17         1         1         1         1     -0.08373775

   CPU time for triples:   1894.50 sec for i =  1 - 15 / 17 (~  69.9 % done)
   CPU time for triples:    840.62 sec for i = 16 - 17 / 17 (  100.0 % done)

 Total CPU time for triples:   2735.12 sec


 RESULTS
 =======

  Reference energy                   -232.973035501471
  CCSD singlet pair energy             -0.746429617760
  CCSD triplet pair energy             -0.336658387177
  CCSD correlation energy              -1.083087746545

  Triples (T) contribution             -0.056461390060
  Total correlation energy             -1.139549136605

  CCSD total energy                  -234.056123248016
  CCSD[T] energy                     -234.113691843102
  CCSD-T energy                      -234.112106385293
 !CCSD(T) total energy               -234.112584638076

 Timing summary (sec):

 STEP                 CPU(USER)    SYS     CPU(TOT)    WALL
 Transformation         51.68      6.70     58.38     56.03
 CCSD iterations       970.69     35.19   1005.88    803.39
 Triples              2735.12     81.41   2816.53   2436.47

 Program statistics:

 Available memory in ccsd:               393214821
 Min. memory needed in ccsd:              30737753
 Max. memory used in ccsd:                42497979
 Max. memory used in cckext:              32346110 ( 8 integral passes)



 **********************************************************************************************************************************
 DATASETS  * FILE   NREC   LENGTH (MB)   RECORD NAMES
              1      20     5896.66       500      610      700      900      950      970     1000      129      960     1100   
                                          VAR    BASINP    GEOM    SYMINP    ZMAT    AOBASIS   BASIS     P2S    ABASIS      S 
                                         1400     1410     1200     1210     1080     1600     1650     1300     1700     1380   
                                           T        V       H0       H01     AOSYM     SMH    MOLCAS    ERIS     OPER     JKOP   

              2       4        2.24       700     1000      520     2100   
                                         GEOM     BASIS   MCVARS     RHF  

 PROGRAMS   *        TOTAL   CCSD(T)    HF-SCF       INT
 CPU TIMES  *      3757.39   3630.84     76.43     50.01
 REAL TIME  *      3451.55 SEC
 DISK USED  *        17.19 GB
 **********************************************************************************************************************************

 Dump information in style XML to xml output                                                                      

 Orbitals will not be exported.

 **********************************************************************************************************************************

 CCSD(T)/cc-pVTZ energy=   -234.112584638076

         CCSD(T)          HF-SCF
   -234.11258464   -232.97303550
 **********************************************************************************************************************************
 Molpro calculation terminated
