
 Working directory              : /var/folders/2v/xbgp75_9785319ghcgb4zr4r0000gp/T//molpro.Qu76SyM2uZ/
 Global scratch directory       : /var/folders/2v/xbgp75_9785319ghcgb4zr4r0000gp/T//molpro.Qu76SyM2uZ/
 Wavefunction directory         : /Users/sacpjk/wfu/
 Main file repository           : /var/folders/2v/xbgp75_9785319ghcgb4zr4r0000gp/T//molpro.Qu76SyM2uZ/

 id        : peterk

 Nodes                        nprocs
 Cardiff-University-G34YLXT77Y    1
 GA implementation: MPI file
 GA implementation (serial work in mppx): MPI file

 Using customized tuning parameters: mindgm=1; mindgv=20; mindgc=4; mindgr=1; noblas=0; minvec=7
 default implementation of scratch files=df  


 Variables initialized (1032), CPU time= 0.00 sec
 
 symmetry,nosym
 
 
 geometry={
           10
     C          0.93577667      0.39537143      0.00000000
     C          0.85196601     -0.96841085      0.00000000
     O         -1.50506259     -1.24340628      0.00000000
     N         -1.72883338     -0.04590722      0.00000000
     C         -1.16713640      1.02284528      0.00000000
     H          1.15273844      0.92694986      0.92000024
     H          1.15273844      0.92694986     -0.92000024
     H          0.87762775     -1.53660420      0.92009471
     H          0.87762775     -1.53660420     -0.92009471
     H         -1.44744268      2.05881632      0.00000000
 }
 basis=cc-pVTZ
 
 
 
 hf; hf; papt; mp4
 
 
 
 {put,xml;noorbitals,nobasis}
 Commands initialized (841), CPU time= 0.00 sec, 704 directives.
 Default parameters read. Elapsed time= 1.47 sec

 Checking input...
 Passed
1


                                         ***  PROGRAM SYSTEM MOLPRO  ***
                                       Copyright, TTI GmbH Stuttgart, 2015
                                    Version 2023.1 linked Tue Jun  6 09:54:11 2023


 **********************************************************************************************************************************
 LABEL *                                                                                                                                                                 
  64 bit serial version                                                                  DATE: 11-Jun-23          TIME: 16:12:05  
 **********************************************************************************************************************************

 SHA1:             8ebb0dd001088a5c915591db1a321413035db0b1
 **********************************************************************************************************************************

 Memory per process:       393 MW
 Total memory per node:    524 MW
 Total GA space:           131 MW

 GA preallocation disabled
 GA check enabled

 Variable memory set to 393.2 MW

 ZSYMEL=NOSYM


 Geometry recognized as XYZ

 SETTING BASIS          =    CC-PVTZ


 Recomputing integrals since basis changed


 Using spherical harmonics

 Library entry C      S cc-pVTZ              selected for orbital group  1
 Library entry C      P cc-pVTZ              selected for orbital group  1
 Library entry C      D cc-pVTZ              selected for orbital group  1
 Library entry C      F cc-pVTZ              selected for orbital group  1
 Library entry O      S cc-pVTZ              selected for orbital group  2
 Library entry O      P cc-pVTZ              selected for orbital group  2
 Library entry O      D cc-pVTZ              selected for orbital group  2
 Library entry O      F cc-pVTZ              selected for orbital group  2
 Library entry N      S cc-pVTZ              selected for orbital group  3
 Library entry N      P cc-pVTZ              selected for orbital group  3
 Library entry N      D cc-pVTZ              selected for orbital group  3
 Library entry N      F cc-pVTZ              selected for orbital group  3
 Library entry H      S cc-pVTZ              selected for orbital group  5
 Library entry H      P cc-pVTZ              selected for orbital group  5
 Library entry H      D cc-pVTZ              selected for orbital group  5


 PROGRAM * SEWARD (Integral evaluation for generally contracted gaussian basis sets)     Author: Roland Lindh, 1990

 Geometry written to block  1 of record 700


 Point group  C1  



 ATOMIC COORDINATES

 NR  ATOM    CHARGE       X              Y              Z

   1  C       6.00    1.768361620    0.747143720    0.000000000
   2  C       6.00    1.609982426   -1.830031283    0.000000000
   3  O       8.00   -2.844156096   -2.349697331    0.000000000
   4  N       7.00   -3.267021603   -0.086752073    0.000000000
   5  C       6.00   -2.205568146    1.932897447    0.000000000
   6  H       1.00    2.178359945    1.751681367    1.738548488
   7  H       1.00    2.178359945    1.751681367   -1.738548488
   8  H       1.00    1.658476087   -2.903761100    1.738727011
   9  H       1.00    1.658476087   -2.903761100   -1.738727011
  10  H       1.00   -2.735270246    3.890598986    0.000000000

 Bond lengths in Bohr (Angstrom)

 1-2  2.582036980  1-6  2.049328025  1-7  2.049328025  2-8  2.044118141  2-9  2.044118141
     ( 1.366355127)     ( 1.084457689)     ( 1.084457689)     ( 1.081700736)     ( 1.081700736)

  3- 4  2.302115653   4- 5  2.281593221   5-10  2.028097539
       ( 1.218227140)       ( 1.207367137)       ( 1.073222999)

 Bond angles

  1-2-8  121.52250959   1-2-9  121.52250959   2-1-6  120.10112852   2-1-7  120.10112852

  3- 4- 5  141.69072663   4- 5-10  137.13504101   6- 1- 7  116.06542625   8- 2- 9  116.55399035

 NUCLEAR CHARGE:                   38
 NUMBER OF PRIMITIVE AOS:         320
 NUMBER OF SYMMETRY AOS:          290
 NUMBER OF CONTRACTIONS:          220   (  220A   )
 NUMBER OF INNER CORE ORBITALS:     0   (    0A   )
 NUMBER OF OUTER CORE ORBITALS:     5   (    5A   )
 NUMBER OF VALENCE ORBITALS:       25   (   25A   )


 NUCLEAR REPULSION ENERGY  161.14848520


 Eigenvalues of metric

         1 0.415E-03 0.913E-03 0.105E-02 0.131E-02 0.138E-02 0.144E-02 0.160E-02 0.182E-02


 Contracted 2-electron integrals neglected if value below      1.0D-11
 AO integral compression algorithm  1   Integral accuracy      1.0D-11

     915.407 MB (compressed) written to integral file ( 35.6%)


 NUMBER OF SORTED TWO-ELECTRON INTEGRALS:  295500205.     BUFFER LENGTH:  32768
 NUMBER OF SEGMENTS:  19  SEGMENT LENGTH:   15999762      RECORD LENGTH: 524288

 Memory used in sort:      16.56 MW

 SORT1 READ   321054985. AND WROTE   226473253. INTEGRALS IN    657 RECORDS. CPU TIME:     2.35 SEC, REAL TIME:     3.09 SEC
 SORT2 READ   226473253. AND WROTE   295500205. INTEGRALS IN   3492 RECORDS. CPU TIME:     1.87 SEC, REAL TIME:     2.40 SEC

 FILE SIZES:   FILE 1:   947.4 MBYTE,  FILE 4:  2755.7 MBYTE,   TOTAL:   3703.1 MBYTE

 OPERATOR DM      FOR CENTER  0  COORDINATES:    0.000000    0.000000    0.000000


 **********************************************************************************************************************************
 DATASETS  * FILE   NREC   LENGTH (MB)   RECORD NAMES
              1      19      824.25       500      610      700      900      950      970     1000      129      960     1100   
                                          VAR    BASINP    GEOM    SYMINP    ZMAT    AOBASIS   BASIS     P2S    ABASIS      S 
                                         1400     1410     1200     1210     1080     1600     1650     1300     1700   
                                           T        V       H0       H01     AOSYM     SMH    MOLCAS    ERIS     OPER   

 PROGRAMS   *        TOTAL       INT
 CPU TIMES  *        11.46     11.36
 REAL TIME  *        18.04 SEC
 DISK USED  *         3.45 GB
 **********************************************************************************************************************************


 Program * Restricted Hartree-Fock

 Orbital guess generated from atomic densities. Full valence occupancy:   30

 Initial occupancy:  19

 NELEC=   38   SYM=1   MS2= 0   THRE=1.0D-08   THRD=3.2D-06   THRG=3.2D-06  HFMA2=F  DIIS_START=2   DIIS_MAX=10   DIIS_INCORE=F

 Level shifts:    0.00 (CLOSED)    0.00 (OPEN)    0.30 (GAP_MIN)

 ITER           ETOT              DE          GRAD        DDIFF     DIIS  NEXP   TIME(IT)  TIME(TOT)  DIAG
   1     -245.61445477    -245.61445477     0.00D+00     0.52D-01     0     0       1.61      3.04    start
   2     -245.66337682      -0.04892206     0.46D-02     0.62D-02     1     0       1.64      4.68    diag
   3     -245.69843519      -0.03505837     0.34D-02     0.28D-02     2     0       1.68      6.36    diag
   4     -245.70027614      -0.00184095     0.60D-03     0.73D-03     3     0       1.58      7.94    diag
   5     -245.70058084      -0.00030470     0.21D-03     0.31D-03     4     0       1.60      9.54    diag
   6     -245.70069153      -0.00011069     0.14D-03     0.15D-03     5     0       1.55     11.09    diag
   7     -245.70074408      -0.00005255     0.55D-04     0.12D-03     6     0       1.60     12.69    diag
   8     -245.70077816      -0.00003408     0.37D-04     0.12D-03     7     0       1.57     14.26    fixocc
   9     -245.70079464      -0.00001648     0.20D-04     0.11D-03     8     0       1.58     15.84    diag
  10     -245.70079708      -0.00000244     0.87D-05     0.38D-04     9     0       1.62     17.46    diag/orth
  11     -245.70079759      -0.00000051     0.39D-05     0.23D-04     9     0       1.59     19.05    diag
  12     -245.70079762      -0.00000002     0.13D-05     0.43D-05     9     0       1.60     20.65    diag
  13     -245.70079762      -0.00000000     0.32D-06     0.62D-06     9     0       1.58     22.23    diag
  14     -245.70079762      -0.00000000     0.18D-06     0.26D-06     0     0       1.58     23.81    diag

 Final occupancy:  19

 !RHF STATE 1.1 Energy               -245.700797618135
  RHF One-electron energy            -653.158368644254
  RHF Two-electron energy             246.309085829891
  RHF Kinetic energy                  245.295559295290
  RHF Nuclear energy                  161.148485196228
  RHF Virial quotient                  -1.001652041007

 !RHF STATE 1.1 Dipole moment           0.47916385     1.17648355     0.00000000
 Dipole moment /Debye                   1.21791301     2.99032292     0.00000000

 Orbital energies:

           1.1          2.1          3.1          4.1          5.1          6.1          7.1          8.1          9.1         10.1
    -20.579164   -15.703804   -11.311774   -11.252930   -11.236101    -1.483495    -1.171959    -1.038231    -0.811766    -0.790615

          11.1         12.1         13.1         14.1         15.1         16.1         17.1         18.1         19.1         20.1
     -0.706953    -0.658017    -0.649540    -0.628574    -0.589608    -0.518266    -0.410362    -0.384987    -0.343981     0.076739

          21.1
      0.141159


 HOMO     19.1    -0.343981 =      -9.3602eV
 LUMO     20.1     0.076739 =       2.0882eV
 LUMO-HOMO         0.420720 =      11.4484eV

 Orbitals saved in record  2100.2


 **********************************************************************************************************************************
 DATASETS  * FILE   NREC   LENGTH (MB)   RECORD NAMES
              1      19      824.25       500      610      700      900      950      970     1000      129      960     1100   
                                          VAR    BASINP    GEOM    SYMINP    ZMAT    AOBASIS   BASIS     P2S    ABASIS      S 
                                         1400     1410     1200     1210     1080     1600     1650     1300     1700   
                                           T        V       H0       H01     AOSYM     SMH    MOLCAS    ERIS     OPER   

              2       4        1.30       700     1000      520     2100   
                                         GEOM     BASIS   MCVARS     RHF  

 PROGRAMS   *        TOTAL    HF-SCF       INT
 CPU TIMES  *        35.28     23.81     11.36
 REAL TIME  *        46.56 SEC
 DISK USED  *         3.45 GB
 **********************************************************************************************************************************


 Program * Restricted Hartree-Fock

 Molecular orbitals read from record     2100.2  Type=RHF/CANONICAL  

 Initial occupancy:  19

 NELEC=   38   SYM=1   MS2= 0   THRE=1.0D-08   THRD=3.2D-06   THRG=3.2D-06  HFMA2=F  DIIS_START=2   DIIS_MAX=10   DIIS_INCORE=F

 Level shifts:    0.00 (CLOSED)    0.00 (OPEN)    0.30 (GAP_MIN)

 ITER           ETOT              DE          GRAD        DDIFF     DIIS  NEXP   TIME(IT)  TIME(TOT)  DIAG
   1     -245.70079762    -245.70079762     0.00D+00     0.54D-01     0     0       1.58      1.58    start
   2     -245.70079762      -0.00000000     0.99D-07     0.16D-06     1     0       1.57      3.15    diag

 Final occupancy:  19

 !RHF STATE 1.1 Energy               -245.700797618201
  RHF One-electron energy            -653.158338484406
  RHF Two-electron energy             246.309055669977
  RHF Kinetic energy                  245.295551150942
  RHF Nuclear energy                  161.148485196228
  RHF Virial quotient                  -1.001652074265

 !RHF STATE 1.1 Dipole moment           0.47913504     1.17650641    -0.00000000
 Dipole moment /Debye                   1.21783979     2.99038102    -0.00000000

 Orbital energies:

           1.1          2.1          3.1          4.1          5.1          6.1          7.1          8.1          9.1         10.1
    -20.579168   -15.703791   -11.311769   -11.252934   -11.236099    -1.483492    -1.171955    -1.038231    -0.811766    -0.790614

          11.1         12.1         13.1         14.1         15.1         16.1         17.1         18.1         19.1         20.1
     -0.706952    -0.658016    -0.649538    -0.628572    -0.589608    -0.518267    -0.410361    -0.384986    -0.343980     0.076741

          21.1
      0.141159


 HOMO     19.1    -0.343980 =      -9.3602eV
 LUMO     20.1     0.076741 =       2.0882eV
 LUMO-HOMO         0.420721 =      11.4484eV

 Orbitals saved in record  2101.2


 **********************************************************************************************************************************
 DATASETS  * FILE   NREC   LENGTH (MB)   RECORD NAMES
              1      19      824.25       500      610      700      900      950      970     1000      129      960     1100   
                                          VAR    BASINP    GEOM    SYMINP    ZMAT    AOBASIS   BASIS     P2S    ABASIS      S 
                                         1400     1410     1200     1210     1080     1600     1650     1300     1700   
                                           T        V       H0       H01     AOSYM     SMH    MOLCAS    ERIS     OPER   

              2       5        2.70       700     1000      520     2100     2101   
                                         GEOM     BASIS   MCVARS     RHF      RHF  

 PROGRAMS   *        TOTAL    HF-SCF    HF-SCF       INT
 CPU TIMES  *        38.44      3.17     23.81     11.36
 REAL TIME  *        51.32 SEC
 DISK USED  *         3.45 GB
 **********************************************************************************************************************************


 PROGRAM * PAPT (Closed-shell)     Authors: C. Hampel, H.-J. Werner, 1991, P.J. Knowles, 2021


 Convergence thresholds:  THRVAR = 1.00D-08  THRDEN = 1.00D-06

 Number of core orbitals:           5 (   5 )
 Number of closed-shell orbitals:  14 (  14 )
 Number of external orbitals:     201 ( 201 )

 Molecular orbitals read from record     2101.2  Type=RHF/CANONICAL  

 Number of N-1 electron functions:              14
 Number of N-2 electron functions:             105
 Number of singly external CSFs:              2814
 Number of doubly external CSFs:           3960705
 Total number of CSFs:                     3963520

 Length of J-op  integral file:               0.00 MB
 Length of K-op  integral file:               3.39 MB

 Integral transformation finished. Total CPU:   4.29 sec, npass=  1  Memory used:   9.43 MW

 Reference energy:                   -245.70079762

                        CORR.ENERGY   TOTAL ENERGY   ENERGY CHANGE
 MP2:                   -0.98608690  -246.68688451    -0.98608690

 SCS-MP2 correlation energy:           -0.96588311   (PS=  1.200000  PT=  0.333333)
 SCS-MP2 total energy:               -246.66668073
 Iteration:   1     0.3694D+00
 Iteration:   2     0.6779D+00
 Iteration:   3     0.1179D+00
 Iteration:   4     0.1136D+00
 Iteration:   5     0.7894D-01
 Iteration:   6     0.3833D-01
 Iteration:   7     0.2058D+00
 Iteration:   8     0.1885D-01
 Iteration:   9     0.2723D-01
 Iteration:  10     0.1274D-01
 Iteration:  11     0.7721D-02
 Iteration:  12     0.1359D-01
 Iteration:  13     0.2998D-02
 Iteration:  14     0.8674D-02
 Iteration:  15     0.1525D-02
 Iteration:  16     0.1235D-02
 Iteration:  17     0.1178D-02
 Iteration:  18     0.5204D-03
 Iteration:  19     0.7653D-03
 Iteration:  20     0.2748D-03
 Iteration:  21     0.9513D-03
 Iteration:  22     0.6999D-04
 PAPT operator written to  7000.1
 PAPT orbitals and eigenvalues written to  7000.2

 MP3(D):                -0.97203136  -246.67282898     0.01405554



 RESULTS
 =======

  Reference energy                   -245.700797618203
  MP3 singlet pair energy              -0.645354534533
  MP3 triplet pair energy              -0.326676822579
  MP3 correlation energy               -0.972031357112

 !MP3 total energy                   -246.672828975314

 Timing summary (sec):

 STEP                 CPU(USER)    SYS     CPU(TOT)    WALL
 Transformation          4.52      0.39      4.91      5.54
 CCSD iterations        68.28      0.66     68.94     33.90

 Program statistics:

 Available memory in ccsd:               393215197
 Min. memory needed in ccsd:              10036078
 Max. memory used in ccsd:                13603397
 Max. memory used in cckext:              10638777 ( 1 integral passes)



 **********************************************************************************************************************************
 DATASETS  * FILE   NREC   LENGTH (MB)   RECORD NAMES
              1      21      883.43       500      610      700      900      950      970     1000      129      960     1100   
                                          VAR    BASINP    GEOM    SYMINP    ZMAT    AOBASIS   BASIS     P2S    ABASIS      S 
                                         1400     1410     1200     1210     1080     1600     1650     1300     1700     1380   
                                           T        V       H0       H01     AOSYM     SMH    MOLCAS    ERIS     OPER     JKOP   
                                         7000   
                                        PAPT AO    

              2       6        3.91       700     1000      520     2100     2101     7000   
                                         GEOM     BASIS   MCVARS     RHF      RHF     PAPT   

 PROGRAMS   *        TOTAL      PAPT    HF-SCF    HF-SCF       INT
 CPU TIMES  *        72.69     34.24      3.17     23.81     11.36
 REAL TIME  *        91.33 SEC
 DISK USED  *         3.45 GB
 **********************************************************************************************************************************


 PROGRAM * MP4 (Closed-shell)     Authors: C. Hampel, H.-J. Werner, 1991, M. Deegan, P.J. Knowles, 1992


 Convergence thresholds:  THRVAR = 1.00D-08  THRDEN = 1.00D-06

 MP4(T)     terms to be evaluated (factor= 0.000)


 Number of core orbitals:           5 (   5 )
 Number of closed-shell orbitals:  14 (  14 )
 Number of external orbitals:     201 ( 201 )

 Molecular orbitals read from record     7000.2  Type=PAPT/CANONICAL (state 1.1)

 Number of N-1 electron functions:              14
 Number of N-2 electron functions:             105
 Number of singly external CSFs:              2814
 Number of doubly external CSFs:           3960705
 Total number of CSFs:                     3963520

 Length of J-op  integral file:               0.00 MB
 Length of K-op  integral file:               3.39 MB

 Memory could be reduced to 144.12 Mwords without degradation in triples

 Integral transformation finished. Total CPU:  10.98 sec, npass=  1  Memory used:  89.66 MW
 Orbital energies read from record       7000.2  Type=PAPT/CANONICAL (state 1.1)

 Reference energy:                   -245.70079762

                        CORR.ENERGY   TOTAL ENERGY   ENERGY CHANGE
 MP2:                   -0.98547063  -246.68626824    -0.98547063

 SCS-MP2 correlation energy:           -0.97152712   (PS=  1.200000  PT=  0.333333)
 SCS-MP2 total energy:               -246.67232474

 MP3(D):                -0.98576997  -246.68656759    -0.00029935
 MP4(DQ):               -0.97045416  -246.67125178     0.01531581
 MP4(SDQ):              -0.98272239  -246.68352000    -0.01226823

 Norm of t1 vector:      0.10612967      S-energy:    -0.01226823      T1 diagnostic:  0.01418217

 Largest off-diagonal element in interal  block of Fock matrix:  0.16D+00
 Largest off-diagonal element in external block of Fock matrix:  0.43D+00


 Total CPU time for triples:    309.71 sec


 RESULTS
 =======

  Reference energy                   -245.700797618203
  MP4(SDQ) singlet pair energy         -0.640776353913
  MP4(SDQ) triplet pair energy         -0.329677806058
  MP4(SDQ) correlation energy          -0.982722385614

  Triples contribution                 -0.060864788833
  Total correlation energy             -1.043587174448

  MP4(SDQ) total energy              -246.683520003817
 !MP4(SDTQ) total energy             -246.744384792650

 Timing summary (sec):

 STEP                 CPU(USER)    SYS     CPU(TOT)    WALL
 Transformation         12.79      1.00     13.79     14.68
 CCSD iterations        91.65      0.41     92.06     20.71
 Triples               309.71      9.30    319.01    337.16

 Program statistics:

 Available memory in ccsd:               393215197
 Min. memory needed in ccsd:              10036078
 Max. memory used in ccsd:                13603397
 Max. memory used in cckext:              10638777 ( 1 integral passes)



 **********************************************************************************************************************************
 DATASETS  * FILE   NREC   LENGTH (MB)   RECORD NAMES
              1      22     1319.27       500      610      700      900      950      970     1000      129      960     1100   
                                          VAR    BASINP    GEOM    SYMINP    ZMAT    AOBASIS   BASIS     P2S    ABASIS      S 
                                         1400     1410     1200     1210     1080     1600     1650     1300     1700     1380   
                                           T        V       H0       H01     AOSYM     SMH    MOLCAS    ERIS     OPER     JKOP   
                                         7000     1380(1)
                                        PAPT AO   JKOP   

              2       6        3.91       700     1000      520     2100     2101     7000   
                                         GEOM     BASIS   MCVARS     RHF      RHF     PAPT   

 PROGRAMS   *        TOTAL       MP4      PAPT    HF-SCF    HF-SCF       INT
 CPU TIMES  *       414.04    341.36     34.24      3.17     23.81     11.36
 REAL TIME  *       464.27 SEC
 DISK USED  *         3.45 GB
 **********************************************************************************************************************************

 Dump information in style XML to xml output                                                                      

 Orbitals will not be exported.

 **********************************************************************************************************************************

 MP4/cc-pVTZ energy=   -246.744384792650

             MP4            PAPT          HF-SCF          HF-SCF
   -246.74438479   -246.67282898   -245.70079762   -245.70079762
 **********************************************************************************************************************************
 Molpro calculation terminated
