
 Working directory              : /tmp/peterk/molpro.yXD7AQXddI/
 Global scratch directory       : /tmp/peterk/molpro.yXD7AQXddI/
 Wavefunction directory         : /home/peterk/wfu/
 Main file repository           : /tmp/peterk/molpro.yXD7AQXddI/

 id        : peterk

 Nodes     nprocs
 marat        1
 GA implementation: MPI file
 GA implementation (serial work in mppx): MPI file

 Using customized tuning parameters: mindgm=1; mindgv=20; mindgc=4; mindgr=1; noblas=0; minvec=7
 default implementation of scratch files=df  


 Variables initialized (1032), CPU time= 0.01 sec
 
 core,small
 angstrom
 
 geometry={
 C1;H4,C1,1.08637390;H1,C1,1.08637390,H4,109.47122063;H2,C1,1.08637390,H4,109.47122063,H1,120;H3,C1,1.08637390,H4,109.47122063,H2,120
 }
 basis=cc-pCV5Z
 
 
 
 hf; hf; papt; mp2
 
 
 
 {put,xml;noorbitals,nobasis}
 Commands initialized (841), CPU time= 0.00 sec, 708 directives.
 Default parameters read. Elapsed time= 0.06 sec

 Checking input...
 Passed
1


                                         ***  PROGRAM SYSTEM MOLPRO  ***
                                       Copyright, TTI GmbH Stuttgart, 2015
                                    Version 2023.1 linked Sat Jun 10 08:01:27 2023


 **********************************************************************************************************************************
 LABEL *                                                                                                                                                                 
  (16 PROC) 64 bit serial version                                                        DATE: 12-Jun-23          TIME: 12:00:45  
 **********************************************************************************************************************************

 SHA1:             8376d659ba1296ca7ee514c57770fe2c96af278c
 **********************************************************************************************************************************

 Memory per process:      1074 MW
 Total memory per node:   1074 MW

 GA preallocation disabled
 GA check disabled

 Variable memory set to 1073.7 MW

 ZUNIT=ANG

 SETTING BASIS          =    CC-PCV5Z


 Recomputing integrals since basis changed


 Using spherical harmonics

 Library entry C      S cc-pCV5Z             selected for orbital group  1
 Library entry C      P cc-pCV5Z             selected for orbital group  1
 Library entry C      D cc-pCV5Z             selected for orbital group  1
 Library entry C      F cc-pCV5Z             selected for orbital group  1
 Library entry C      G cc-pCV5Z             selected for orbital group  1
 Library entry C      H cc-pCV5Z             selected for orbital group  1
 Library entry H      S cc-pV5Z              selected for orbital group  2
 Library entry H      P cc-pV5Z              selected for orbital group  2
 Library entry H      D cc-pV5Z              selected for orbital group  2
 Library entry H      F cc-pV5Z              selected for orbital group  2
 Library entry H      G cc-pV5Z              selected for orbital group  2


 PROGRAM * SEWARD (Integral evaluation for generally contracted gaussian basis sets)     Author: Roland Lindh, 1990

 Geometry written to block  1 of record 700

 Orientation using atomic masses  
 Molecule type: Spherical top,     Neighbour degeneracy = 4
 Symmetry elements: X,Y
 Rotational constants:     159.3144359    159.3144359    159.3144358 GHz  (calculated with average atomic masses)

 Point group  C2v 



 ATOMIC COORDINATES

 NR  ATOM    CHARGE       X              Y              Z

   1  C1      6.00    0.000000000    0.000000000   -0.000000000
   2  H4      1.00    1.676225954    0.000000000    1.185270739
   3  H1      1.00   -1.676225954    0.000000000    1.185270739
   4  H2      1.00    0.000000000    1.676225954   -1.185270739
   5  H3      1.00    0.000000000   -1.676225954   -1.185270739

 Bond lengths in Bohr (Angstrom)

 1-2  2.052949140  1-3  2.052949140  1-4  2.052949140  1-5  2.052949140
     ( 1.086373900)     ( 1.086373900)     ( 1.086373900)     ( 1.086373900)

 Bond angles

  2-1-3  109.47122063   2-1-4  109.47122063   2-1-5  109.47122063   3-1-4  109.47122063

  3-1-5  109.47122063   4-1-5  109.47122064

 NUCLEAR CHARGE:                   10
 NUMBER OF PRIMITIVE AOS:         504
 NUMBER OF SYMMETRY AOS:          394
 NUMBER OF CONTRACTIONS:          365   (  125A1  +   90B1  +   90B2  +   60A2  )
 NUMBER OF INNER CORE ORBITALS:     0   (    0A1  +    0B1  +    0B2  +    0A2  )
 NUMBER OF OUTER CORE ORBITALS:     1   (    1A1  +    0B1  +    0B2  +    0A2  )
 NUMBER OF VALENCE ORBITALS:        8   (    4A1  +    2B1  +    2B2  +    0A2  )


 NUCLEAR REPULSION ENERGY   13.48023391


 Eigenvalues of metric

         1 0.217E-05 0.252E-04 0.343E-04 0.161E-03 0.189E-03 0.218E-03 0.385E-03 0.399E-03
         2 0.252E-04 0.161E-03 0.218E-03 0.461E-03 0.633E-03 0.170E-02 0.341E-02 0.558E-02
         3 0.252E-04 0.161E-03 0.218E-03 0.461E-03 0.633E-03 0.170E-02 0.341E-02 0.558E-02
         4 0.657E-03 0.170E-02 0.324E-02 0.124E-01 0.180E-01 0.221E-01 0.323E-01 0.369E-01


 Contracted 2-electron integrals neglected if value below      1.0D-12
 AO integral compression algorithm  1   Integral accuracy      1.0D-12

     3010.200 MB (compressed) written to integral file ( 55.2%)


 NUMBER OF SORTED TWO-ELECTRON INTEGRALS:  563702910.     BUFFER LENGTH:  32768
 NUMBER OF SEGMENTS:  18  SEGMENT LENGTH:   31999465      RECORD LENGTH: 524288

 Memory used in sort:      32.56 MW

 SORT1 READ   681628587. AND WROTE   547221170. INTEGRALS IN   1576 RECORDS. CPU TIME:    26.77 SEC, REAL TIME:   169.86 SEC
 SORT2 READ   547221170. AND WROTE   563702910. INTEGRALS IN  11483 RECORDS. CPU TIME:    13.23 SEC, REAL TIME:    74.74 SEC

 FILE SIZES:   FILE 1:  3043.1 MBYTE,  FILE 4:  6610.3 MBYTE,   TOTAL:   9653.4 MBYTE

 OPERATOR DM      FOR CENTER  0  COORDINATES:    0.000000    0.000000    0.000000


 **********************************************************************************************************************************
 DATASETS  * FILE   NREC   LENGTH (MB)   RECORD NAMES
              1      19     2481.90       500      610      700      900      950      970     1000      129      960     1100   
                                          VAR    BASINP    GEOM    SYMINP    ZMAT    AOBASIS   BASIS     P2S    ABASIS      S 
                                         1400     1410     1200     1210     1080     1600     1650     1300     1700   
                                           T        V       H0       H01     AOSYM     SMH    MOLCAS    ERIS     OPER   

 PROGRAMS   *        TOTAL       INT
 CPU TIMES  *        83.43     83.31
 REAL TIME  *       293.42 SEC
 DISK USED  *         8.99 GB
 **********************************************************************************************************************************


 Program * Restricted Hartree-Fock

 Orbital guess generated from atomic densities. Full valence occupancy:    5   2   2   0

 Initial occupancy:   3   1   1   0

 NELEC=   10   SYM=1   MS2= 0   THRE=1.0D-08   THRD=3.2D-06   THRG=3.2D-06  HFMA2=F  DIIS_START=2   DIIS_MAX=10   DIIS_INCORE=F

 Level shifts:    0.00 (CLOSED)    0.00 (OPEN)    0.30 (GAP_MIN)

 ITER           ETOT              DE          GRAD        DDIFF     DIIS  NEXP   TIME(IT)  TIME(TOT)  DIAG
   1      -40.19802707     -40.19802707     0.00D+00     0.35D-01     0     0       1.47      2.78    start
   2      -40.21449585      -0.01646877     0.49D-02     0.34D-02     1     0       1.48      4.26    diag
   3      -40.21667912      -0.00218327     0.19D-02     0.10D-02     2     0       1.46      5.72    diag
   4      -40.21699655      -0.00031743     0.49D-03     0.37D-03     3     0       1.39      7.11    diag
   5      -40.21700205      -0.00000549     0.64D-04     0.81D-04     4     0       1.44      8.55    diag
   6      -40.21700209      -0.00000004     0.53D-05     0.14D-04     5     0       1.48     10.03    diag
   7      -40.21700209      -0.00000000     0.43D-06     0.14D-05     6     0       1.50     11.53    diag
   8      -40.21700209      -0.00000000     0.32D-07     0.11D-06     0     0       1.46     12.99    fixocc

 Final occupancy:   3   1   1   0

 !RHF STATE 1.1 Energy                -40.217002091923
  RHF One-electron energy             -79.824341452781
  RHF Two-electron energy              26.127105449675
  RHF Kinetic energy                   40.187816619035
  RHF Nuclear energy                   13.480233911183
  RHF Virial quotient                  -1.000726226885

 !RHF STATE 1.1 Dipole moment           0.00000000     0.00000000     0.00000000
 Dipole moment /Debye                   0.00000000     0.00000000     0.00000000

 Orbital energies:

           1.1          2.1          3.1          4.1          5.1
    -11.204348    -0.943717    -0.545667     0.094977     0.148473

           1.2          2.2          3.2
     -0.545667     0.148473     0.210374

           1.3          2.3          3.3
     -0.545667     0.148473     0.210374

           1.4          2.4
      0.465691     0.671833


 HOMO      1.3    -0.545667 =     -14.8484eV
 LUMO      4.1     0.094977 =       2.5844eV
 LUMO-HOMO         0.640644 =      17.4328eV

 Orbitals saved in record  2100.2


 **********************************************************************************************************************************
 DATASETS  * FILE   NREC   LENGTH (MB)   RECORD NAMES
              1      19     2481.90       500      610      700      900      950      970     1000      129      960     1100   
                                          VAR    BASINP    GEOM    SYMINP    ZMAT    AOBASIS   BASIS     P2S    ABASIS      S 
                                         1400     1410     1200     1210     1080     1600     1650     1300     1700   
                                           T        V       H0       H01     AOSYM     SMH    MOLCAS    ERIS     OPER   

              2       4        1.02       700     1000      520     2100   
                                         GEOM     BASIS   MCVARS     RHF  

 PROGRAMS   *        TOTAL    HF-SCF       INT
 CPU TIMES  *        96.42     12.99     83.31
 REAL TIME  *       308.60 SEC
 DISK USED  *         8.99 GB
 **********************************************************************************************************************************


 Program * Restricted Hartree-Fock

 Molecular orbitals read from record     2100.2  Type=RHF/CANONICAL  

 Initial occupancy:   3   1   1   0

 NELEC=   10   SYM=1   MS2= 0   THRE=1.0D-08   THRD=3.2D-06   THRG=3.2D-06  HFMA2=F  DIIS_START=2   DIIS_MAX=10   DIIS_INCORE=F

 Level shifts:    0.00 (CLOSED)    0.00 (OPEN)    0.30 (GAP_MIN)

 ITER           ETOT              DE          GRAD        DDIFF     DIIS  NEXP   TIME(IT)  TIME(TOT)  DIAG
   1      -40.21700209     -40.21700209     0.00D+00     0.36D-01     0     0       1.48      1.48    start
   2      -40.21700209      -0.00000000     0.76D-08     0.25D-07     1     0       1.45      2.93    diag

 Final occupancy:   3   1   1   0

 !RHF STATE 1.1 Energy                -40.217002091922
  RHF One-electron energy             -79.824341224999
  RHF Two-electron energy              26.127105221893
  RHF Kinetic energy                   40.187816384483
  RHF Nuclear energy                   13.480233911183
  RHF Virial quotient                  -1.000726232726

 !RHF STATE 1.1 Dipole moment           0.00000000     0.00000000     0.00000000
 Dipole moment /Debye                   0.00000000     0.00000000     0.00000000

 Orbital energies:

           1.1          2.1          3.1          4.1          5.1
    -11.204348    -0.943717    -0.545667     0.094977     0.148473

           1.2          2.2          3.2
     -0.545667     0.148473     0.210374

           1.3          2.3          3.3
     -0.545667     0.148473     0.210374

           1.4          2.4
      0.465691     0.671833


 HOMO      1.3    -0.545667 =     -14.8484eV
 LUMO      4.1     0.094977 =       2.5844eV
 LUMO-HOMO         0.640644 =      17.4328eV

 Orbitals saved in record  2101.2


 **********************************************************************************************************************************
 DATASETS  * FILE   NREC   LENGTH (MB)   RECORD NAMES
              1      19     2481.90       500      610      700      900      950      970     1000      129      960     1100   
                                          VAR    BASINP    GEOM    SYMINP    ZMAT    AOBASIS   BASIS     P2S    ABASIS      S 
                                         1400     1410     1200     1210     1080     1600     1650     1300     1700   
                                           T        V       H0       H01     AOSYM     SMH    MOLCAS    ERIS     OPER   

              2       5        2.07       700     1000      520     2100     2101   
                                         GEOM     BASIS   MCVARS     RHF      RHF  

 PROGRAMS   *        TOTAL    HF-SCF    HF-SCF       INT
 CPU TIMES  *        99.38      2.95     12.99     83.31
 REAL TIME  *       312.08 SEC
 DISK USED  *         8.99 GB
 **********************************************************************************************************************************


 PROGRAM * PAPT (Closed-shell)     Authors: C. Hampel, H.-J. Werner, 1991, P.J. Knowles, 2021


 CORETYPE=SMALL

 Convergence thresholds:  THRVAR = 1.00D-08  THRDEN = 1.00D-06

 Number of closed-shell orbitals:   5 (   3   1   1   0 )
 Number of external orbitals:     360 ( 122  89  89  60 )

 Molecular orbitals read from record     2101.2  Type=RHF/CANONICAL  

 Number of N-1 electron functions:               5
 Number of N-2 electron functions:              15
 Number of singly external CSFs:               544
 Number of doubly external CSFs:            414551
 Total number of CSFs:                      415096

 Length of J-op  integral file:               0.00 MB
 Length of K-op  integral file:               2.49 MB

 Integral transformation finished. Total CPU:   2.84 sec, npass=  1  Memory used:   0.91 MW

 Reference energy:                    -40.21700209

                        CORR.ENERGY   TOTAL ENERGY   ENERGY CHANGE
 MP2:                   -0.26833048   -40.48533257    -0.26833048

 SCS-MP2 correlation energy:           -0.28479836   (PS=  1.200000  PT=  0.333333)
 SCS-MP2 total energy:                -40.50180045
 Iteration:   1     0.4469D+00
 Iteration:   2     0.5020D+00
 Iteration:   3     0.1599D+00
 Iteration:   4     0.7342D-01
 Iteration:   5     0.1908D+00
 Iteration:   6     0.1653D-01
 Iteration:   7     0.1168D-01
 Iteration:   8     0.5361D-01
 Iteration:   9     0.1112D-02
 Iteration:  10     0.2152D-03
 Iteration:  11     0.4508D-04
 PAPT operator written to  7000.1
 PAPT orbitals and eigenvalues written to  7000.2

 MP3(D):                -0.28437265   -40.50137474    -0.01604217



 RESULTS
 =======

  Reference energy                    -40.217002091922

  Correlated core orbitals:             1.1
  Orbital energies:                   -11.2043

  MP3 core-core energy                 -0.041789890391
  MP3 core-valence energy              -0.013995253056
  MP3 valence correlation energy       -0.228587502667

  MP3 singlet pair energy              -0.220003315179
  MP3 triplet pair energy              -0.064369330935
  MP3 correlation energy               -0.284372646114

 !MP3 total energy                    -40.501374738036

 Timing summary (sec):

 STEP                 CPU(USER)    SYS     CPU(TOT)    WALL
 Transformation          2.86      0.31      3.17      3.17
 CCSD iterations       104.10      0.37    104.47      4.68

 Program statistics:

 Available memory in ccsd:              1073741721
 Min. memory needed in ccsd:               1603216
 Max. memory used in ccsd:                 1930351
 Max. memory used in cckext:               3288825 ( 1 integral passes)



 **********************************************************************************************************************************
 DATASETS  * FILE   NREC   LENGTH (MB)   RECORD NAMES
              1      21     2488.50       500      610      700      900      950      970     1000      129      960     1100   
                                          VAR    BASINP    GEOM    SYMINP    ZMAT    AOBASIS   BASIS     P2S    ABASIS      S 
                                         1400     1410     1200     1210     1080     1600     1650     1300     1700     1380   
                                           T        V       H0       H01     AOSYM     SMH    MOLCAS    ERIS     OPER     JKOP   
                                         7000   
                                        PAPT AO    

              2       6        2.99       700     1000      520     2100     2101     7000   
                                         GEOM     BASIS   MCVARS     RHF      RHF     PAPT   

 PROGRAMS   *        TOTAL      PAPT    HF-SCF    HF-SCF       INT
 CPU TIMES  *       106.51      7.13      2.95     12.99     83.31
 REAL TIME  *       319.98 SEC
 DISK USED  *         8.99 GB
 **********************************************************************************************************************************


 PROGRAM * MP2 (Closed-shell)     Authors: C. Hampel, H.-J. Werner, 1991, M. Deegan, P.J. Knowles, 1992


 CORETYPE=SMALL

 Convergence thresholds:  THRVAR = 1.00D-08  THRDEN = 1.00D-06

 Number of closed-shell orbitals:   5 (   3   1   1   0 )
 Number of external orbitals:     360 ( 122  89  89  60 )

 Molecular orbitals read from record     7000.2  Type=PAPT/CANONICAL (state 1.1)

 Number of N-1 electron functions:               5
 Number of N-2 electron functions:              15
 Number of singly external CSFs:               544
 Number of doubly external CSFs:            414551
 Total number of CSFs:                      415096

 Length of J-op  integral file:               0.00 MB
 Length of K-op  integral file:               2.49 MB

 Integral transformation finished. Total CPU:   2.77 sec, npass=  1  Memory used:   0.91 MW
 Orbital energies read from record       7000.2  Type=PAPT/CANONICAL (state 1.1)

 Memory needed for MP2:                      0.18 MW

 SCS-MP2 correlation energy:           -0.306246691543   (PS=  1.200000  PT=  0.333333)
 SCS-MP2 total energy:                -40.523248783466


  Reference energy                    -40.217002091922

  Correlated core orbitals:             1.1
  Orbital energies:                   -10.1265

  MP2 core-core energy                 -0.042083196634
  MP2 core-valence energy              -0.013820987384
  MP2 valence correlation energy       -0.232404348147

  MP2 singlet pair energy              -0.219556239185
  MP2 triplet pair energy              -0.068752292981
  MP2 correlation energy               -0.288308532166

 !MP2 total energy                    -40.505310624088


 **********************************************************************************************************************************
 DATASETS  * FILE   NREC   LENGTH (MB)   RECORD NAMES
              1      21     2488.50       500      610      700      900      950      970     1000      129      960     1100   
                                          VAR    BASINP    GEOM    SYMINP    ZMAT    AOBASIS   BASIS     P2S    ABASIS      S 
                                         1400     1410     1200     1210     1080     1600     1650     1300     1700     1380   
                                           T        V       H0       H01     AOSYM     SMH    MOLCAS    ERIS     OPER     JKOP   
                                         7000   
                                        PAPT AO    

              2       6        2.99       700     1000      520     2100     2101     7000   
                                         GEOM     BASIS   MCVARS     RHF      RHF     PAPT   

 PROGRAMS   *        TOTAL       MP2      PAPT    HF-SCF    HF-SCF       INT
 CPU TIMES  *       110.76      4.25      7.13      2.95     12.99     83.31
 REAL TIME  *       324.84 SEC
 DISK USED  *         8.99 GB
 **********************************************************************************************************************************

 Dump information in style XML to xml output                                                                      

 Orbitals will not be exported.

 **********************************************************************************************************************************

 MP2/cc-pCV5Z energy=    -40.505310624088

             MP2            PAPT          HF-SCF          HF-SCF
    -40.50531062    -40.50137474    -40.21700209    -40.21700209
 **********************************************************************************************************************************
 Molpro calculation terminated
