
 Working directory              : /var/folders/2v/xbgp75_9785319ghcgb4zr4r0000gp/T//molpro.e8RjyvkvVh/
 Global scratch directory       : /var/folders/2v/xbgp75_9785319ghcgb4zr4r0000gp/T//molpro.e8RjyvkvVh/
 Wavefunction directory         : /Users/sacpjk/wfu/
 Main file repository           : /var/folders/2v/xbgp75_9785319ghcgb4zr4r0000gp/T//molpro.e8RjyvkvVh/

 id        : peterk

 Nodes                        nprocs
 Cardiff-University-G34YLXT77Y    1
 GA implementation: MPI file
 GA implementation (serial work in mppx): MPI file

 Using customized tuning parameters: mindgm=1; mindgv=20; mindgc=4; mindgr=1; noblas=0; minvec=7
 default implementation of scratch files=df  


 Variables initialized (1032), CPU time= 0.00 sec
 
 symmetry,nosym
 
 
 geometry={
           16
     H          0.81095741      2.50856646      0.26471178
     C          0.80253441      1.42547707      0.16840175
     C          0.80252841     -1.42547695     -0.16839737
     C         -0.40118102      0.70943782     -0.01417632
     C          1.98196183      0.70242881      0.10577473
     C          1.98195783     -0.70243369     -0.10577335
     C         -0.40118302     -0.70943369      0.01418969
     C         -1.74031949      1.10504796     -0.30270342
     H          2.93507017      1.21991400      0.17946275
     H          2.93506517     -1.21992187     -0.17947138
     H         -2.20864566     -0.71459569      1.19642611
     H          0.81094741     -2.50856533     -0.26471241
     H         -2.20864166      0.71458482     -1.19641974
     H         -2.18036065      2.03107829      0.07544771
     H         -2.18036665     -2.03106616     -0.07546334
     C         -1.74032449     -1.10504183      0.30270280
 }
 basis=cc-pVDZ
 
 
 
 hf; hf; papt; mp3
 
 
 
 {put,xml;noorbitals,nobasis}
 Commands initialized (841), CPU time= 0.00 sec, 704 directives.
 Default parameters read. Elapsed time= 0.87 sec

 Checking input...
 Passed
1


                                         ***  PROGRAM SYSTEM MOLPRO  ***
                                       Copyright, TTI GmbH Stuttgart, 2015
                                    Version 2023.1 linked Tue Jun  6 09:54:11 2023


 **********************************************************************************************************************************
 LABEL *                                                                                                                                                                 
  64 bit serial version                                                                  DATE: 11-Jun-23          TIME: 12:38:13  
 **********************************************************************************************************************************

 SHA1:             8ebb0dd001088a5c915591db1a321413035db0b1
 **********************************************************************************************************************************

 Memory per process:       393 MW
 Total memory per node:    524 MW
 Total GA space:           131 MW

 GA preallocation disabled
 GA check enabled

 Variable memory set to 393.2 MW

 ZSYMEL=NOSYM


 Geometry recognized as XYZ

 SETTING BASIS          =    CC-PVDZ


 Recomputing integrals since basis changed


 Using spherical harmonics

 Library entry H      S cc-pVDZ              selected for orbital group  1
 Library entry H      P cc-pVDZ              selected for orbital group  1
 Library entry C      S cc-pVDZ              selected for orbital group  2
 Library entry C      P cc-pVDZ              selected for orbital group  2
 Library entry C      D cc-pVDZ              selected for orbital group  2


 PROGRAM * SEWARD (Integral evaluation for generally contracted gaussian basis sets)     Author: Roland Lindh, 1990

 Geometry written to block  1 of record 700


 Point group  C1  



 ATOMIC COORDINATES

 NR  ATOM    CHARGE       X              Y              Z

   1  H       1.00    1.532487404    4.740503575    0.500232766
   2  C       6.00    1.516570240    2.693761259    0.318233186
   3  C       6.00    1.516558902   -2.693761032   -0.318224909
   4  C       6.00   -0.758122254    1.340643182   -0.026789362
   5  C       6.00    3.745365048    1.327398073    0.199885271
   6  C       6.00    3.745357489   -1.327407295   -0.199882663
   7  C       6.00   -0.758126034   -1.340635378    0.026814628
   8  C       6.00   -3.288727205    2.088237999   -0.572026561
   9  H       1.00    5.546478778    2.305303356    0.339135447
  10  H       1.00    5.546469329   -2.305318228   -0.339151755
  11  H       1.00   -4.173735404   -1.350390144    2.260917676
  12  H       1.00    1.532468506   -4.740501439   -0.500233957
  13  H       1.00   -4.173727845    1.350369603   -2.260905639
  14  H       1.00   -4.120284481    3.838181706    0.142575509
  15  H       1.00   -4.120295820   -3.838158783   -0.142605045
  16  C       6.00   -3.288736654   -2.088226415    0.572025389

 Bond lengths in Bohr (Angstrom)

 1-2  2.054879877  2-4  2.669118775  2-5  2.616960237  3-6  2.616958266  3-7  2.669118371
     ( 1.087395602)     ( 1.412436829)     ( 1.384835719)     ( 1.384834676)     ( 1.412436615)

  3-12  2.054878756   4- 7  2.681814331   4- 8  2.694465259   5- 6  2.684735730   5- 9  2.054190843
       ( 1.087395009)       ( 1.419155028)       ( 1.425849611)       ( 1.420700966)       ( 1.087030981)

  6-10  2.054193159   7-16  2.694464185   8-13  2.044502003   8-14  2.065053655  11-16  2.044500503
       ( 1.087032206)       ( 1.425849042)       ( 1.081903868)       ( 1.092779333)       ( 1.081903074)

 15-16  2.065054623
       ( 1.092779846)

 Bond angles

  1-2-4  121.53341822   1-2-5  121.16196772   2-4-7  120.28285902   2-4-8  133.30637066

  2- 5- 6  121.53566660   2- 5- 9  119.67796899   3- 6- 5  121.53575378   3- 6-10  119.67798948

  3- 7- 4  120.28288460   3- 7-16  133.30632763   4- 2- 5  117.08312408   4- 7-16  106.34645307

  4- 8-13  118.26603482   4- 8-14  122.90766015   5- 6-10  118.74038187   6- 3- 7  117.08309647

  6- 3-12  121.16194958   6- 5- 9  118.74047257   7- 3-12  121.53346689   7- 4- 8  106.34638376

  7-16-11  118.26594681   7-16-15  122.90763097  11-16-15  114.66910753  13- 8-14  114.66921017

 NUCLEAR CHARGE:                   56
 NUMBER OF PRIMITIVE AOS:         272
 NUMBER OF SYMMETRY AOS:          264
 NUMBER OF CONTRACTIONS:          152   (  152A   )
 NUMBER OF INNER CORE ORBITALS:     0   (    0A   )
 NUMBER OF OUTER CORE ORBITALS:     8   (    8A   )
 NUMBER OF VALENCE ORBITALS:       40   (   40A   )


 NUCLEAR REPULSION ENERGY  328.46081823


 Eigenvalues of metric

         1 0.293E-03 0.101E-02 0.157E-02 0.176E-02 0.255E-02 0.272E-02 0.341E-02 0.386E-02


 Contracted 2-electron integrals neglected if value below      1.0D-11
 AO integral compression algorithm  1   Integral accuracy      1.0D-11

     268.435 MB (compressed) written to integral file ( 47.6%)


 NUMBER OF SORTED TWO-ELECTRON INTEGRALS:   67611006.     BUFFER LENGTH:  32768
 NUMBER OF SEGMENTS:   5  SEGMENT LENGTH:   15999503      RECORD LENGTH: 524288

 Memory used in sort:      16.56 MW

 SORT1 READ    70555182. AND WROTE    63294022. INTEGRALS IN    183 RECORDS. CPU TIME:     0.50 SEC, REAL TIME:     0.63 SEC
 SORT2 READ    63294022. AND WROTE    67611006. INTEGRALS IN   1024 RECORDS. CPU TIME:     0.45 SEC, REAL TIME:     0.56 SEC

 FILE SIZES:   FILE 1:   299.6 MBYTE,  FILE 4:   767.6 MBYTE,   TOTAL:   1067.2 MBYTE

 OPERATOR DM      FOR CENTER  0  COORDINATES:    0.000000    0.000000    0.000000


 **********************************************************************************************************************************
 DATASETS  * FILE   NREC   LENGTH (MB)   RECORD NAMES
              1      19      263.58       500      610      700      900      950      970     1000      129      960     1100   
                                          VAR    BASINP    GEOM    SYMINP    ZMAT    AOBASIS   BASIS     P2S    ABASIS      S 
                                         1400     1410     1200     1210     1080     1600     1650     1300     1700   
                                           T        V       H0       H01     AOSYM     SMH    MOLCAS    ERIS     OPER   

 PROGRAMS   *        TOTAL       INT
 CPU TIMES  *         3.48      3.38
 REAL TIME  *         6.38 SEC
 DISK USED  *      1018.35 MB
 **********************************************************************************************************************************


 Program * Restricted Hartree-Fock

 Orbital guess generated from atomic densities. Full valence occupancy:   48

 Initial occupancy:  28

 NELEC=   56   SYM=1   MS2= 0   THRE=1.0D-08   THRD=3.2D-06   THRG=3.2D-06  HFMA2=F  DIIS_START=2   DIIS_MAX=10   DIIS_INCORE=F

 Level shifts:    0.00 (CLOSED)    0.00 (OPEN)    0.30 (GAP_MIN)

 ITER           ETOT              DE          GRAD        DDIFF     DIIS  NEXP   TIME(IT)  TIME(TOT)  DIAG
   1     -307.42121352    -307.42121352     0.00D+00     0.88D-01     0     0       0.28      0.54    start
   2     -307.48836297      -0.06714945     0.35D-02     0.84D-02     1     0       0.29      0.83    diag
   3     -307.49621498      -0.00785201     0.14D-02     0.30D-02     2     0       0.29      1.12    diag
   4     -307.49802103      -0.00180605     0.61D-03     0.13D-02     3     0       0.29      1.41    diag
   5     -307.49809575      -0.00007472     0.98D-04     0.23D-03     4     0       0.29      1.70    diag
   6     -307.49812263      -0.00002688     0.36D-04     0.12D-03     5     0       0.28      1.98    diag
   7     -307.49813225      -0.00000961     0.20D-04     0.69D-04     6     0       0.29      2.27    diag
   8     -307.49813484      -0.00000259     0.10D-04     0.43D-04     7     0       0.28      2.55    fixocc
   9     -307.49813508      -0.00000024     0.31D-05     0.13D-04     8     0       0.29      2.84    diag
  10     -307.49813510      -0.00000002     0.12D-05     0.42D-05     9     0       0.29      3.13    diag/orth
  11     -307.49813510      -0.00000000     0.52D-06     0.18D-05     9     0       0.29      3.42    diag
  12     -307.49813510      -0.00000000     0.15D-06     0.37D-06     0     0       0.28      3.70    diag

 Final occupancy:  28

 !RHF STATE 1.1 Energy               -307.498135104940
  RHF One-electron energy           -1065.337546458357
  RHF Two-electron energy             429.378593124894
  RHF Kinetic energy                  307.105412144267
  RHF Nuclear energy                  328.460818228523
  RHF Virial quotient                  -1.001278788797

 !RHF STATE 1.1 Dipole moment          -0.08901161    -0.00000081    -0.00000663
 Dipole moment /Debye                  -0.22624496    -0.00000205    -0.00001685

 Orbital energies:

           1.1          2.1          3.1          4.1          5.1          6.1          7.1          8.1          9.1         10.1
    -11.257920   -11.257873   -11.240297   -11.240191   -11.238629   -11.238209   -11.237578   -11.237325    -1.163849    -1.064210

          11.1         12.1         13.1         14.1         15.1         16.1         17.1         18.1         19.1         20.1
     -1.025332    -0.924832    -0.898809    -0.801929    -0.773393    -0.682761    -0.640252    -0.631580    -0.603300    -0.586600

          21.1         22.1         23.1         24.1         25.1         26.1         27.1         28.1         29.1         30.1
     -0.567489    -0.552038    -0.503966    -0.480589    -0.479021    -0.364321    -0.322042    -0.275845     0.075081     0.149495


 HOMO     28.1    -0.275845 =      -7.5061eV
 LUMO     29.1     0.075081 =       2.0431eV
 LUMO-HOMO         0.350926 =       9.5492eV

 Orbitals saved in record  2100.2


 **********************************************************************************************************************************
 DATASETS  * FILE   NREC   LENGTH (MB)   RECORD NAMES
              1      19      263.58       500      610      700      900      950      970     1000      129      960     1100   
                                          VAR    BASINP    GEOM    SYMINP    ZMAT    AOBASIS   BASIS     P2S    ABASIS      S 
                                         1400     1410     1200     1210     1080     1600     1650     1300     1700   
                                           T        V       H0       H01     AOSYM     SMH    MOLCAS    ERIS     OPER   

              2       4        1.00       700     1000      520     2100   
                                         GEOM     BASIS   MCVARS     RHF  

 PROGRAMS   *        TOTAL    HF-SCF       INT
 CPU TIMES  *         7.18      3.70      3.38
 REAL TIME  *        11.68 SEC
 DISK USED  *      1018.35 MB
 **********************************************************************************************************************************


 Program * Restricted Hartree-Fock

 Molecular orbitals read from record     2100.2  Type=RHF/CANONICAL  

 Initial occupancy:  28

 NELEC=   56   SYM=1   MS2= 0   THRE=1.0D-08   THRD=3.2D-06   THRG=3.2D-06  HFMA2=F  DIIS_START=2   DIIS_MAX=10   DIIS_INCORE=F

 Level shifts:    0.00 (CLOSED)    0.00 (OPEN)    0.30 (GAP_MIN)

 ITER           ETOT              DE          GRAD        DDIFF     DIIS  NEXP   TIME(IT)  TIME(TOT)  DIAG
   1     -307.49813510    -307.49813510     0.00D+00     0.90D-01     0     0       0.29      0.29    start
   2     -307.49813511      -0.00000000     0.79D-07     0.19D-06     1     0       0.29      0.58    diag

 Final occupancy:  28

 !RHF STATE 1.1 Energy               -307.498135105027
  RHF One-electron energy           -1065.337544290996
  RHF Two-electron energy             429.378590957447
  RHF Kinetic energy                  307.105412373709
  RHF Nuclear energy                  328.460818228523
  RHF Virial quotient                  -1.001278788050

 !RHF STATE 1.1 Dipole moment          -0.08902688    -0.00000081    -0.00000663
 Dipole moment /Debye                  -0.22628376    -0.00000206    -0.00001685

 Orbital energies:

           1.1          2.1          3.1          4.1          5.1          6.1          7.1          8.1          9.1         10.1
    -11.257918   -11.257872   -11.240296   -11.240189   -11.238631   -11.238211   -11.237580   -11.237327    -1.163849    -1.064211

          11.1         12.1         13.1         14.1         15.1         16.1         17.1         18.1         19.1         20.1
     -1.025331    -0.924832    -0.898809    -0.801929    -0.773393    -0.682761    -0.640252    -0.631580    -0.603300    -0.586600

          21.1         22.1         23.1         24.1         25.1         26.1         27.1         28.1         29.1         30.1
     -0.567489    -0.552038    -0.503966    -0.480588    -0.479021    -0.364321    -0.322043    -0.275844     0.075081     0.149495


 HOMO     28.1    -0.275844 =      -7.5061eV
 LUMO     29.1     0.075081 =       2.0431eV
 LUMO-HOMO         0.350925 =       9.5491eV

 Orbitals saved in record  2101.2


 **********************************************************************************************************************************
 DATASETS  * FILE   NREC   LENGTH (MB)   RECORD NAMES
              1      19      263.58       500      610      700      900      950      970     1000      129      960     1100   
                                          VAR    BASINP    GEOM    SYMINP    ZMAT    AOBASIS   BASIS     P2S    ABASIS      S 
                                         1400     1410     1200     1210     1080     1600     1650     1300     1700   
                                           T        V       H0       H01     AOSYM     SMH    MOLCAS    ERIS     OPER   

              2       5        1.72       700     1000      520     2100     2101   
                                         GEOM     BASIS   MCVARS     RHF      RHF  

 PROGRAMS   *        TOTAL    HF-SCF    HF-SCF       INT
 CPU TIMES  *         7.77      0.59      3.70      3.38
 REAL TIME  *        13.05 SEC
 DISK USED  *      1018.35 MB
 **********************************************************************************************************************************


 PROGRAM * PAPT (Closed-shell)     Authors: C. Hampel, H.-J. Werner, 1991, P.J. Knowles, 2021


 Convergence thresholds:  THRVAR = 1.00D-08  THRDEN = 1.00D-06

 Number of core orbitals:           8 (   8 )
 Number of closed-shell orbitals:  20 (  20 )
 Number of external orbitals:     124 ( 124 )

 Molecular orbitals read from record     2101.2  Type=RHF/CANONICAL  

 Number of N-1 electron functions:              20
 Number of N-2 electron functions:             210
 Number of singly external CSFs:              2480
 Number of doubly external CSFs:           3076440
 Total number of CSFs:                     3078921

 Length of J-op  integral file:               0.00 MB
 Length of K-op  integral file:               1.65 MB

 Integral transformation finished. Total CPU:   0.92 sec, npass=  1  Memory used:   8.36 MW

 Reference energy:                   -307.49813511

                        CORR.ENERGY   TOTAL ENERGY   ENERGY CHANGE
 MP2:                   -1.07652599  -308.57466110    -1.07652599

 SCS-MP2 correlation energy:           -1.04601387   (PS=  1.200000  PT=  0.333333)
 SCS-MP2 total energy:               -308.54414898
 Iteration:   1     0.3199D+00
 Iteration:   2     0.1278D+01
 Iteration:   3     0.1038D+00
 Iteration:   4     0.9248D+00
 Iteration:   5     0.2969D-01
 Iteration:   6     0.4129D-01
 Iteration:   7     0.2457D-01
 Iteration:   8     0.7065D-02
 Iteration:   9     0.6008D-01
 Iteration:  10     0.4071D-02
 Iteration:  11     0.6550D-02
 Iteration:  12     0.2442D-02
 Iteration:  13     0.1343D-02
 Iteration:  14     0.1509D-02
 Iteration:  15     0.3178D-03
 Iteration:  16     0.2006D-02
 Iteration:  17     0.1063D-03
 Iteration:  18     0.6880D-04
 PAPT operator written to  7000.1
 PAPT orbitals and eigenvalues written to  7000.2

 MP3(D):                -1.11530426  -308.61343936    -0.03877827



 RESULTS
 =======

  Reference energy                   -307.498135105027
  MP3 singlet pair energy              -0.725414265241
  MP3 triplet pair energy              -0.389889992659
  MP3 correlation energy               -1.115304257901

 !MP3 total energy                   -308.613439362928

 Timing summary (sec):

 STEP                 CPU(USER)    SYS     CPU(TOT)    WALL
 Transformation          1.01      0.08      1.09      1.58
 CCSD iterations        24.32      0.35     24.67     21.49

 Program statistics:

 Available memory in ccsd:               393214372
 Min. memory needed in ccsd:               7780521
 Max. memory used in ccsd:                10549881
 Max. memory used in cckext:              10054055 ( 1 integral passes)



 **********************************************************************************************************************************
 DATASETS  * FILE   NREC   LENGTH (MB)   RECORD NAMES
              1      21      319.67       500      610      700      900      950      970     1000      129      960     1100   
                                          VAR    BASINP    GEOM    SYMINP    ZMAT    AOBASIS   BASIS     P2S    ABASIS      S 
                                         1400     1410     1200     1210     1080     1600     1650     1300     1700     1380   
                                           T        V       H0       H01     AOSYM     SMH    MOLCAS    ERIS     OPER     JKOP   
                                         7000   
                                        PAPT AO    

              2       6        2.35       700     1000      520     2100     2101     7000   
                                         GEOM     BASIS   MCVARS     RHF      RHF     PAPT   

 PROGRAMS   *        TOTAL      PAPT    HF-SCF    HF-SCF       INT
 CPU TIMES  *        25.24     17.47      0.59      3.70      3.38
 REAL TIME  *        36.94 SEC
 DISK USED  *      1018.35 MB
 **********************************************************************************************************************************


 PROGRAM * MP3 (Closed-shell)     Authors: C. Hampel, H.-J. Werner, 1991, M. Deegan, P.J. Knowles, 1992


 Convergence thresholds:  THRVAR = 1.00D-08  THRDEN = 1.00D-06

 Number of core orbitals:           8 (   8 )
 Number of closed-shell orbitals:  20 (  20 )
 Number of external orbitals:     124 ( 124 )

 Molecular orbitals read from record     7000.2  Type=PAPT/CANONICAL (state 1.1)

 Number of N-1 electron functions:              20
 Number of N-2 electron functions:             210
 Number of singly external CSFs:              2480
 Number of doubly external CSFs:           3076440
 Total number of CSFs:                     3078921

 Length of J-op  integral file:               0.00 MB
 Length of K-op  integral file:               1.65 MB

 Integral transformation finished. Total CPU:   0.95 sec, npass=  1  Memory used:   8.36 MW
 Orbital energies read from record       7000.2  Type=PAPT/CANONICAL (state 1.1)

 Reference energy:                   -307.49813511

                        CORR.ENERGY   TOTAL ENERGY   ENERGY CHANGE
 MP2:                   -1.12696255  -308.62509765    -1.12696255

 SCS-MP2 correlation energy:           -1.10338733   (PS=  1.200000  PT=  0.333333)
 SCS-MP2 total energy:               -308.60152244

 MP3(D):                -1.12759349  -308.62572860    -0.00063095



 RESULTS
 =======

  Reference energy                   -307.498135105027
  MP3 singlet pair energy              -0.738163141292
  MP3 triplet pair energy              -0.389430349653
  MP3 correlation energy               -1.127593490945

 !MP3 total energy                   -308.625728595972

 Timing summary (sec):

 STEP                 CPU(USER)    SYS     CPU(TOT)    WALL
 Transformation          1.35      0.13      1.48      1.71
 CCSD iterations        31.09      0.21     31.30      6.60

 Program statistics:

 Available memory in ccsd:               393214372
 Min. memory needed in ccsd:               7780521
 Max. memory used in ccsd:                10549881
 Max. memory used in cckext:              10054055 ( 1 integral passes)



 **********************************************************************************************************************************
 DATASETS  * FILE   NREC   LENGTH (MB)   RECORD NAMES
              1      21      319.67       500      610      700      900      950      970     1000      129      960     1100   
                                          VAR    BASINP    GEOM    SYMINP    ZMAT    AOBASIS   BASIS     P2S    ABASIS      S 
                                         1400     1410     1200     1210     1080     1600     1650     1300     1700     1380   
                                           T        V       H0       H01     AOSYM     SMH    MOLCAS    ERIS     OPER     JKOP   
                                         7000   
                                        PAPT AO    

              2       6        2.35       700     1000      520     2100     2101     7000   
                                         GEOM     BASIS   MCVARS     RHF      RHF     PAPT   

 PROGRAMS   *        TOTAL       MP3      PAPT    HF-SCF    HF-SCF       INT
 CPU TIMES  *        32.35      7.11     17.47      0.59      3.70      3.38
 REAL TIME  *        45.55 SEC
 DISK USED  *      1018.35 MB
 **********************************************************************************************************************************

 Dump information in style XML to xml output                                                                      

 Orbitals will not be exported.

 **********************************************************************************************************************************

 MP3/cc-pVDZ energy=   -308.625728595972

             MP3            PAPT          HF-SCF          HF-SCF
   -308.62572860   -308.61343936   -307.49813511   -307.49813510
 **********************************************************************************************************************************
 Molpro calculation terminated
