
 Working directory              : /var/folders/2v/xbgp75_9785319ghcgb4zr4r0000gp/T//molpro.qFb2HYFcUI/
 Global scratch directory       : /var/folders/2v/xbgp75_9785319ghcgb4zr4r0000gp/T//molpro.qFb2HYFcUI/
 Wavefunction directory         : /Users/sacpjk/wfu/
 Main file repository           : /var/folders/2v/xbgp75_9785319ghcgb4zr4r0000gp/T//molpro.qFb2HYFcUI/

 id        : peterk

 Nodes                        nprocs
 Cardiff-University-G34YLXT77Y    1
 GA implementation: MPI file
 GA implementation (serial work in mppx): MPI file

 Using customized tuning parameters: mindgm=1; mindgv=20; mindgc=4; mindgr=1; noblas=0; minvec=7
 default implementation of scratch files=df  


 Variables initialized (1032), CPU time= 0.00 sec
 
 symmetry,nosym
 
 
 geometry={
           12
     C         -1.11892819     -0.39300694      0.06045902
     C         -1.06961559      0.98569179     -0.03334154
     O          1.04351911      1.35627307     -0.21429353
     N          1.47852950      0.22573745      0.22941624
     C          0.95782302     -0.89868106     -0.27213199
     H         -1.24594514     -0.86133041      1.03067153
     H         -1.48801729     -0.97414862     -0.77721283
     H         -1.09461977      1.61014793      0.84916022
     H         -1.26644925      1.48844296     -0.97025939
     H          1.75317167      0.20428368      1.21443326
     H          0.82089701     -0.92013135     -1.34318470
     H          1.22963493     -1.82327849      0.22628373
 }
 basis=cc-pVDZ
 
 
 
 hf; hf; papt; mp4
 
 
 
 {put,xml;noorbitals,nobasis}
 Commands initialized (841), CPU time= 0.01 sec, 704 directives.
 Default parameters read. Elapsed time= 0.88 sec

 Checking input...
 Passed
1


                                         ***  PROGRAM SYSTEM MOLPRO  ***
                                       Copyright, TTI GmbH Stuttgart, 2015
                                    Version 2023.1 linked Tue Jun  6 09:54:11 2023


 **********************************************************************************************************************************
 LABEL *                                                                                                                                                                 
  64 bit serial version                                                                  DATE: 11-Jun-23          TIME: 13:57:38  
 **********************************************************************************************************************************

 SHA1:             8ebb0dd001088a5c915591db1a321413035db0b1
 **********************************************************************************************************************************

 Memory per process:       393 MW
 Total memory per node:    524 MW
 Total GA space:           131 MW

 GA preallocation disabled
 GA check enabled

 Variable memory set to 393.2 MW

 ZSYMEL=NOSYM


 Geometry recognized as XYZ

 SETTING BASIS          =    CC-PVDZ


 Recomputing integrals since basis changed


 Using spherical harmonics

 Library entry C      S cc-pVDZ              selected for orbital group  1
 Library entry C      P cc-pVDZ              selected for orbital group  1
 Library entry C      D cc-pVDZ              selected for orbital group  1
 Library entry O      S cc-pVDZ              selected for orbital group  2
 Library entry O      P cc-pVDZ              selected for orbital group  2
 Library entry O      D cc-pVDZ              selected for orbital group  2
 Library entry N      S cc-pVDZ              selected for orbital group  3
 Library entry N      P cc-pVDZ              selected for orbital group  3
 Library entry N      D cc-pVDZ              selected for orbital group  3
 Library entry H      S cc-pVDZ              selected for orbital group  5
 Library entry H      P cc-pVDZ              selected for orbital group  5


 PROGRAM * SEWARD (Integral evaluation for generally contracted gaussian basis sets)     Author: Roland Lindh, 1990

 Geometry written to block  1 of record 700


 Point group  C1  



 ATOMIC COORDINATES

 NR  ATOM    CHARGE       X              Y              Z

   1  C       6.00   -2.114467832   -0.742675482    0.114250990
   2  C       6.00   -2.021280524    1.862687526   -0.063006379
   3  O       8.00    1.971965324    2.562984653   -0.404956082
   4  N       7.00    2.794015822    0.426581957    0.433533862
   5  C       6.00    1.810023184   -1.698261077   -0.514254931
   6  H       1.00   -2.354495081   -1.627678578    1.947686916
   7  H       1.00   -2.811945147   -1.840874096   -1.468719389
   8  H       1.00   -2.068531576    3.042738608    1.604680252
   9  H       1.00   -2.393242233    2.812749547   -1.833524517
  10  H       1.00    3.313014306    0.386040207    2.294946258
  11  H       1.00    1.551270525   -1.738796250   -2.538251218
  12  H       1.00    2.323673251   -3.445496995    0.427614276

 Bond lengths in Bohr (Angstrom)

 1-2  2.613048115  1-6  2.049958745  1-7  2.048977799  2-8  2.043509705  2-9  2.043454876
     ( 1.382765514)     ( 1.084791451)     ( 1.084272357)     ( 1.081378766)     ( 1.081349752)

  3- 4  2.437836928   4- 5  2.526163697   4-10  1.932837077   5-11  2.040871629   5-12  2.050313963
       ( 1.290047746)       ( 1.336788260)       ( 1.022813334)       ( 1.079982757)       ( 1.084979425)

 Bond angles

  1-2-8  121.30409335   1-2-9  121.05397866   2-1-6  119.68913623   2-1-7  119.61238021

  3- 4- 5  118.47242249   3- 4-10  116.11441286   4- 5-11  115.98772127   4- 5-12  116.54242229

  5- 4-10  116.63301031   6- 1- 7  114.81681703   8- 2- 9  115.74705984  11- 5-12  118.06133276

 NUCLEAR CHARGE:                   40
 NUMBER OF PRIMITIVE AOS:         184
 NUMBER OF SYMMETRY AOS:          179
 NUMBER OF CONTRACTIONS:          105   (  105A   )
 NUMBER OF INNER CORE ORBITALS:     0   (    0A   )
 NUMBER OF OUTER CORE ORBITALS:     5   (    5A   )
 NUMBER OF VALENCE ORBITALS:       27   (   27A   )


 NUCLEAR REPULSION ENERGY  180.61848696


 Eigenvalues of metric

         1 0.314E-02 0.533E-02 0.883E-02 0.123E-01 0.157E-01 0.183E-01 0.237E-01 0.271E-01


 Contracted 2-electron integrals neglected if value below      1.0D-11
 AO integral compression algorithm  1   Integral accuracy      1.0D-11

     70.779 MB (compressed) written to integral file ( 51.9%)


 NUMBER OF SORTED TWO-ELECTRON INTEGRALS:   15487395.     BUFFER LENGTH:  32768
 NUMBER OF SEGMENTS:   1  SEGMENT LENGTH:   15487395      RECORD LENGTH: 524288

 Memory used in sort:      16.04 MW

 SORT1 READ    17058310. AND WROTE    15318839. INTEGRALS IN     44 RECORDS. CPU TIME:     0.11 SEC, REAL TIME:     0.15 SEC
 SORT2 READ    15318839. AND WROTE    15487395. INTEGRALS IN    270 RECORDS. CPU TIME:     0.15 SEC, REAL TIME:     0.19 SEC

 FILE SIZES:   FILE 1:   101.4 MBYTE,  FILE 4:   184.6 MBYTE,   TOTAL:    286.0 MBYTE

 OPERATOR DM      FOR CENTER  0  COORDINATES:    0.000000    0.000000    0.000000


 **********************************************************************************************************************************
 DATASETS  * FILE   NREC   LENGTH (MB)   RECORD NAMES
              1      19       89.76       500      610      700      900      950      970     1000      129      960     1100   
                                          VAR    BASINP    GEOM    SYMINP    ZMAT    AOBASIS   BASIS     P2S    ABASIS      S 
                                         1400     1410     1200     1210     1080     1600     1650     1300     1700   
                                           T        V       H0       H01     AOSYM     SMH    MOLCAS    ERIS     OPER   

 PROGRAMS   *        TOTAL       INT
 CPU TIMES  *         1.18      1.08
 REAL TIME  *         7.70 SEC
 DISK USED  *       273.27 MB
 **********************************************************************************************************************************


 Program * Restricted Hartree-Fock

 Orbital guess generated from atomic densities. Full valence occupancy:   32

 Initial occupancy:  20

 NELEC=   40   SYM=1   MS2= 0   THRE=1.0D-08   THRD=3.2D-06   THRG=3.2D-06  HFMA2=F  DIIS_START=2   DIIS_MAX=10   DIIS_INCORE=F

 Level shifts:    0.00 (CLOSED)    0.00 (OPEN)    0.30 (GAP_MIN)

 ITER           ETOT              DE          GRAD        DDIFF     DIIS  NEXP   TIME(IT)  TIME(TOT)  DIAG
   1     -246.71474404    -246.71474404     0.00D+00     0.11D+00     0     0       0.07      0.13    start
   2     -246.77538157      -0.06063753     0.73D-02     0.16D-01     1     0       0.07      0.20    diag
   3     -246.81630567      -0.04092410     0.55D-02     0.69D-02     2     0       0.07      0.27    diag
   4     -246.81812150      -0.00181583     0.81D-03     0.18D-02     3     0       0.07      0.34    diag
   5     -246.81841527      -0.00029377     0.30D-03     0.62D-03     4     0       0.07      0.41    diag
   6     -246.81851992      -0.00010465     0.18D-03     0.34D-03     5     0       0.07      0.48    diag
   7     -246.81856365      -0.00004373     0.68D-04     0.29D-03     6     0       0.07      0.55    diag
   8     -246.81857032      -0.00000667     0.31D-04     0.13D-03     7     0       0.07      0.62    fixocc
   9     -246.81857094      -0.00000062     0.92D-05     0.38D-04     8     0       0.07      0.69    diag
  10     -246.81857099      -0.00000005     0.29D-05     0.99D-05     9     0       0.07      0.76    diag/orth
  11     -246.81857099      -0.00000000     0.93D-06     0.24D-05     9     0       0.07      0.83    diag
  12     -246.81857099      -0.00000000     0.37D-06     0.79D-06     0     0       0.07      0.90    diag

 Final occupancy:  20

 !RHF STATE 1.1 Energy               -246.818570991459
  RHF One-electron energy            -693.825514459012
  RHF Two-electron energy             266.388456506240
  RHF Kinetic energy                  246.493236091975
  RHF Nuclear energy                  180.618486961312
  RHF Virial quotient                  -1.001319853253

 !RHF STATE 1.1 Dipole moment           0.02188102    -1.15592841     0.47968247
 Dipole moment /Debye                   0.05561601    -2.93807695     1.21923122

 Orbital energies:

           1.1          2.1          3.1          4.1          5.1          6.1          7.1          8.1          9.1         10.1
    -20.531382   -15.658974   -11.304901   -11.251720   -11.219439    -1.417048    -1.116253    -1.022256    -0.876675    -0.793299

          11.1         12.1         13.1         14.1         15.1         16.1         17.1         18.1         19.1         20.1
     -0.723519    -0.650922    -0.625625    -0.599279    -0.571428    -0.565701    -0.498769    -0.428834    -0.354660    -0.313646

          21.1         22.1
      0.117382     0.174191


 HOMO     20.1    -0.313646 =      -8.5347eV
 LUMO     21.1     0.117382 =       3.1941eV
 LUMO-HOMO         0.431027 =      11.7289eV

 Orbitals saved in record  2100.2


 **********************************************************************************************************************************
 DATASETS  * FILE   NREC   LENGTH (MB)   RECORD NAMES
              1      19       89.76       500      610      700      900      950      970     1000      129      960     1100   
                                          VAR    BASINP    GEOM    SYMINP    ZMAT    AOBASIS   BASIS     P2S    ABASIS      S 
                                         1400     1410     1200     1210     1080     1600     1650     1300     1700   
                                           T        V       H0       H01     AOSYM     SMH    MOLCAS    ERIS     OPER   

              2       4        0.74       700     1000      520     2100   
                                         GEOM     BASIS   MCVARS     RHF  

 PROGRAMS   *        TOTAL    HF-SCF       INT
 CPU TIMES  *         2.08      0.90      1.08
 REAL TIME  *        10.31 SEC
 DISK USED  *       273.27 MB
 **********************************************************************************************************************************


 Program * Restricted Hartree-Fock

 Molecular orbitals read from record     2100.2  Type=RHF/CANONICAL  

 Initial occupancy:  20

 NELEC=   40   SYM=1   MS2= 0   THRE=1.0D-08   THRD=3.2D-06   THRG=3.2D-06  HFMA2=F  DIIS_START=2   DIIS_MAX=10   DIIS_INCORE=F

 Level shifts:    0.00 (CLOSED)    0.00 (OPEN)    0.30 (GAP_MIN)

 ITER           ETOT              DE          GRAD        DDIFF     DIIS  NEXP   TIME(IT)  TIME(TOT)  DIAG
   1     -246.81857099    -246.81857099     0.00D+00     0.11D+00     0     0       0.07      0.07    start
   2     -246.81857099      -0.00000000     0.20D-06     0.41D-06     1     0       0.07      0.14    diag

 Final occupancy:  20

 !RHF STATE 1.1 Energy               -246.818570991614
  RHF One-electron energy            -693.825500859181
  RHF Two-electron energy             266.388442906255
  RHF Kinetic energy                  246.493236795401
  RHF Nuclear energy                  180.618486961312
  RHF Virial quotient                  -1.001319850396

 !RHF STATE 1.1 Dipole moment           0.02188061    -1.15596398     0.47967765
 Dipole moment /Debye                   0.05561496    -2.93816737     1.21921898

 Orbital energies:

           1.1          2.1          3.1          4.1          5.1          6.1          7.1          8.1          9.1         10.1
    -20.531383   -15.658974   -11.304886   -11.251726   -11.219435    -1.417047    -1.116250    -1.022257    -0.876673    -0.793299

          11.1         12.1         13.1         14.1         15.1         16.1         17.1         18.1         19.1         20.1
     -0.723516    -0.650920    -0.625625    -0.599278    -0.571426    -0.565701    -0.498769    -0.428834    -0.354658    -0.313646

          21.1         22.1
      0.117383     0.174192


 HOMO     20.1    -0.313646 =      -8.5347eV
 LUMO     21.1     0.117383 =       3.1942eV
 LUMO-HOMO         0.431029 =      11.7289eV

 Orbitals saved in record  2101.2


 **********************************************************************************************************************************
 DATASETS  * FILE   NREC   LENGTH (MB)   RECORD NAMES
              1      19       89.76       500      610      700      900      950      970     1000      129      960     1100   
                                          VAR    BASINP    GEOM    SYMINP    ZMAT    AOBASIS   BASIS     P2S    ABASIS      S 
                                         1400     1410     1200     1210     1080     1600     1650     1300     1700   
                                           T        V       H0       H01     AOSYM     SMH    MOLCAS    ERIS     OPER   

              2       5        1.14       700     1000      520     2100     2101   
                                         GEOM     BASIS   MCVARS     RHF      RHF  

 PROGRAMS   *        TOTAL    HF-SCF    HF-SCF       INT
 CPU TIMES  *         2.23      0.15      0.90      1.08
 REAL TIME  *        10.93 SEC
 DISK USED  *       273.27 MB
 **********************************************************************************************************************************


 PROGRAM * PAPT (Closed-shell)     Authors: C. Hampel, H.-J. Werner, 1991, P.J. Knowles, 2021


 Convergence thresholds:  THRVAR = 1.00D-08  THRDEN = 1.00D-06

 Number of core orbitals:           5 (   5 )
 Number of closed-shell orbitals:  15 (  15 )
 Number of external orbitals:      85 (  85 )

 Molecular orbitals read from record     2101.2  Type=RHF/CANONICAL  

 Number of N-1 electron functions:              15
 Number of N-2 electron functions:             120
 Number of singly external CSFs:              1275
 Number of doubly external CSFs:            813450
 Total number of CSFs:                      814726

 Length of J-op  integral file:               0.00 MB
 Length of K-op  integral file:               0.82 MB

 Integral transformation finished. Total CPU:   0.23 sec, npass=  1  Memory used:   2.42 MW

 Reference energy:                   -246.81857099

                        CORR.ENERGY   TOTAL ENERGY   ENERGY CHANGE
 MP2:                   -0.81249889  -247.63106989    -0.81249889

 SCS-MP2 correlation energy:           -0.79506921   (PS=  1.200000  PT=  0.333333)
 SCS-MP2 total energy:               -247.61364020
 Iteration:   1     0.3840D+00
 Iteration:   2     0.1334D+01
 Iteration:   3     0.1173D+00
 Iteration:   4     0.1099D+00
 Iteration:   5     0.6964D-01
 Iteration:   6     0.5224D-01
 Iteration:   7     0.1377D+00
 Iteration:   8     0.1858D-01
 Iteration:   9     0.2320D-01
 Iteration:  10     0.1106D-01
 Iteration:  11     0.4938D-02
 Iteration:  12     0.1234D+00
 Iteration:  13     0.2083D-02
 Iteration:  14     0.2980D-02
 Iteration:  15     0.1180D-02
 Iteration:  16     0.8437D-03
 Iteration:  17     0.5510D-03
 Iteration:  18     0.3986D-03
 Iteration:  19     0.2505D-03
 Iteration:  20     0.1663D-03
 Iteration:  21     0.1742D-03
 Iteration:  22     0.4404D-04
 PAPT operator written to  7000.1
 PAPT orbitals and eigenvalues written to  7000.2

 MP3(D):                -0.83402179  -247.65259278    -0.02152290



 RESULTS
 =======

  Reference energy                   -246.818570991614
  MP3 singlet pair energy              -0.552787207804
  MP3 triplet pair energy              -0.281234582129
  MP3 correlation energy               -0.834021789933

 !MP3 total energy                   -247.652592781547

 Timing summary (sec):

 STEP                 CPU(USER)    SYS     CPU(TOT)    WALL
 Transformation          0.25      0.03      0.28      1.24
 CCSD iterations         6.39      0.13      6.52      8.37

 Program statistics:

 Available memory in ccsd:               393215080
 Min. memory needed in ccsd:               2201959
 Max. memory used in ccsd:                 2904859
 Max. memory used in cckext:               2797547 ( 1 integral passes)



 **********************************************************************************************************************************
 DATASETS  * FILE   NREC   LENGTH (MB)   RECORD NAMES
              1      21      105.16       500      610      700      900      950      970     1000      129      960     1100   
                                          VAR    BASINP    GEOM    SYMINP    ZMAT    AOBASIS   BASIS     P2S    ABASIS      S 
                                         1400     1410     1200     1210     1080     1600     1650     1300     1700     1380   
                                           T        V       H0       H01     AOSYM     SMH    MOLCAS    ERIS     OPER     JKOP   
                                         7000   
                                        PAPT AO    

              2       6        1.49       700     1000      520     2100     2101     7000   
                                         GEOM     BASIS   MCVARS     RHF      RHF     PAPT   

 PROGRAMS   *        TOTAL      PAPT    HF-SCF    HF-SCF       INT
 CPU TIMES  *         6.54      4.31      0.15      0.90      1.08
 REAL TIME  *        20.99 SEC
 DISK USED  *       273.27 MB
 **********************************************************************************************************************************


 PROGRAM * MP4 (Closed-shell)     Authors: C. Hampel, H.-J. Werner, 1991, M. Deegan, P.J. Knowles, 1992


 Convergence thresholds:  THRVAR = 1.00D-08  THRDEN = 1.00D-06

 MP4(T)     terms to be evaluated (factor= 0.000)


 Number of core orbitals:           5 (   5 )
 Number of closed-shell orbitals:  15 (  15 )
 Number of external orbitals:      85 (  85 )

 Molecular orbitals read from record     7000.2  Type=PAPT/CANONICAL (state 1.1)

 Number of N-1 electron functions:              15
 Number of N-2 electron functions:             120
 Number of singly external CSFs:              1275
 Number of doubly external CSFs:            813450
 Total number of CSFs:                      814726

 Length of J-op  integral file:               0.00 MB
 Length of K-op  integral file:               0.82 MB

 Memory could be reduced to 12.93 Mwords without degradation in triples

 Integral transformation finished. Total CPU:   0.49 sec, npass=  1  Memory used:  11.77 MW
 Orbital energies read from record       7000.2  Type=PAPT/CANONICAL (state 1.1)

 Reference energy:                   -246.81857099

                        CORR.ENERGY   TOTAL ENERGY   ENERGY CHANGE
 MP2:                   -0.84349754  -247.66206853    -0.84349754

 SCS-MP2 correlation energy:           -0.83127221   (PS=  1.200000  PT=  0.333333)
 SCS-MP2 total energy:               -247.64984320

 MP3(D):                -0.84376837  -247.66233936    -0.00027083
 MP4(DQ):               -0.83619251  -247.65476350     0.00757585
 MP4(SDQ):              -0.84601209  -247.66458308    -0.00981957

 Norm of t1 vector:      0.10780888      S-energy:    -0.00981957      T1 diagnostic:  0.01391807

 Largest off-diagonal element in interal  block of Fock matrix:  0.14D+00
 Largest off-diagonal element in external block of Fock matrix:  0.13D+00


 Total CPU time for triples:     12.44 sec


 RESULTS
 =======

  Reference energy                   -246.818570991614
  MP4(SDQ) singlet pair energy         -0.553643045007
  MP4(SDQ) triplet pair energy         -0.282549468071
  MP4(SDQ) correlation energy          -0.846012087567

  Triples contribution                 -0.038336287470
  Total correlation energy             -0.884348375036

  MP4(SDQ) total energy              -247.664583079181
 !MP4(SDTQ) total energy             -247.702919366651

 Timing summary (sec):

 STEP                 CPU(USER)    SYS     CPU(TOT)    WALL
 Transformation          0.58      0.07      0.65      1.48
 CCSD iterations         8.64      0.08      8.72      3.27
 Triples                12.44      0.84     13.28     14.26

 Program statistics:

 Available memory in ccsd:               393215080
 Min. memory needed in ccsd:               2201959
 Max. memory used in ccsd:                 2904859
 Max. memory used in cckext:               2797547 ( 1 integral passes)



 **********************************************************************************************************************************
 DATASETS  * FILE   NREC   LENGTH (MB)   RECORD NAMES
              1      22      140.72       500      610      700      900      950      970     1000      129      960     1100   
                                          VAR    BASINP    GEOM    SYMINP    ZMAT    AOBASIS   BASIS     P2S    ABASIS      S 
                                         1400     1410     1200     1210     1080     1600     1650     1300     1700     1380   
                                           T        V       H0       H01     AOSYM     SMH    MOLCAS    ERIS     OPER     JKOP   
                                         7000     1380(1)
                                        PAPT AO   JKOP   

              2       6        1.49       700     1000      520     2100     2101     7000   
                                         GEOM     BASIS   MCVARS     RHF      RHF     PAPT   

 PROGRAMS   *        TOTAL       MP4      PAPT    HF-SCF    HF-SCF       INT
 CPU TIMES  *        21.56     15.02      4.31      0.15      0.90      1.08
 REAL TIME  *        40.34 SEC
 DISK USED  *       273.27 MB
 **********************************************************************************************************************************

 Dump information in style XML to xml output                                                                      

 Orbitals will not be exported.

 **********************************************************************************************************************************

 MP4/cc-pVDZ energy=   -247.702919366651

             MP4            PAPT          HF-SCF          HF-SCF
   -247.70291937   -247.65259278   -246.81857099   -246.81857099
 **********************************************************************************************************************************
 Molpro calculation terminated
