
 Working directory              : /var/folders/2v/xbgp75_9785319ghcgb4zr4r0000gp/T//molpro.gEG41jMpUl/
 Global scratch directory       : /var/folders/2v/xbgp75_9785319ghcgb4zr4r0000gp/T//molpro.gEG41jMpUl/
 Wavefunction directory         : /Users/sacpjk/wfu/
 Main file repository           : /var/folders/2v/xbgp75_9785319ghcgb4zr4r0000gp/T//molpro.gEG41jMpUl/

 id        : peterk

 Nodes                        nprocs
 Cardiff-University-G34YLXT77Y    1
 GA implementation: MPI file
 GA implementation (serial work in mppx): MPI file

 Using customized tuning parameters: mindgm=1; mindgv=20; mindgc=4; mindgr=1; noblas=0; minvec=7
 default implementation of scratch files=df  


 Variables initialized (1032), CPU time= 0.00 sec
 
 symmetry,nosym
 
 
 geometry={
            3
     C          0.00000000      0.00000000     -0.02902643
     N          0.00000000      0.00000000      1.12397830
     H          0.00000000      0.00000000     -1.09495187
 }
 basis=cc-pVDZ
 
 
 
 hf; ccsd(t)
 
 
 
 {put,xml;noorbitals,nobasis}
 Commands initialized (841), CPU time= 0.01 sec, 704 directives.
 Default parameters read. Elapsed time= 0.07 sec

 Checking input...
 Passed
1


                                         ***  PROGRAM SYSTEM MOLPRO  ***
                                       Copyright, TTI GmbH Stuttgart, 2015
                                    Version 2023.1 linked Tue Jun  6 09:54:11 2023


 **********************************************************************************************************************************
 LABEL *                                                                                                                                                                 
  64 bit serial version                                                                  DATE: 09-Jun-23          TIME: 09:30:59  
 **********************************************************************************************************************************

 SHA1:             8ebb0dd001088a5c915591db1a321413035db0b1
 **********************************************************************************************************************************

 Memory per process:       805 MW
 Total memory per node:   1074 MW
 Total GA space:           268 MW

 GA preallocation disabled
 GA check enabled

 Variable memory set to 805.3 MW

 ZSYMEL=NOSYM


 Geometry recognized as XYZ

 SETTING BASIS          =    CC-PVDZ


 Recomputing integrals since basis changed


 Using spherical harmonics

 Library entry C      S cc-pVDZ              selected for orbital group  1
 Library entry C      P cc-pVDZ              selected for orbital group  1
 Library entry C      D cc-pVDZ              selected for orbital group  1
 Library entry N      S cc-pVDZ              selected for orbital group  2
 Library entry N      P cc-pVDZ              selected for orbital group  2
 Library entry N      D cc-pVDZ              selected for orbital group  2
 Library entry H      S cc-pVDZ              selected for orbital group  3
 Library entry H      P cc-pVDZ              selected for orbital group  3


 PROGRAM * SEWARD (Integral evaluation for generally contracted gaussian basis sets)     Author: Roland Lindh, 1990

 Geometry written to block  1 of record 700


 Point group  C1  



 ATOMIC COORDINATES

 NR  ATOM    CHARGE       X              Y              Z

   1  C       6.00    0.000000000    0.000000000   -0.054852003
   2  N       7.00    0.000000000    0.000000000    2.124011157
   3  H       1.00    0.000000000    0.000000000   -2.069159154

 Bond lengths in Bohr (Angstrom)

 1-2  2.178863160  1-3  2.014307151
     ( 1.153004730)     ( 1.065925440)

 Bond angles

  2-1-3  180.00000000

 NUCLEAR CHARGE:                   14
 NUMBER OF PRIMITIVE AOS:          61
 NUMBER OF SYMMETRY AOS:           59
 NUMBER OF CONTRACTIONS:           33   (   33A   )
 NUMBER OF INNER CORE ORBITALS:     0   (    0A   )
 NUMBER OF OUTER CORE ORBITALS:     2   (    2A   )
 NUMBER OF VALENCE ORBITALS:        9   (    9A   )


 NUCLEAR REPULSION ENERGY   23.92418025

 EXTRA SYMMETRY OF AOS IN SYMMETRY 1:   1 1 1 2 3 1 2 3 1 1   4 2 5 3 1 1 1 2 3 1   2 3 1 1 4 2 5 3 1 1   2 3 1

 Eigenvalues of metric

         1 0.575E-02 0.193E-01 0.229E-01 0.480E-01 0.834E-01 0.117E+00 0.125E+00 0.125E+00


 Contracted 2-electron integrals neglected if value below      1.0D-11
 AO integral compression algorithm  1   Integral accuracy      1.0D-11

     0.524 MB (compressed) written to integral file ( 25.0%)


 NUMBER OF SORTED TWO-ELECTRON INTEGRALS:     157641.     BUFFER LENGTH:  32768
 NUMBER OF SEGMENTS:   1  SEGMENT LENGTH:     157641      RECORD LENGTH: 524288

 Memory used in sort:       0.71 MW

 SORT1 READ      211834. AND WROTE       38438. INTEGRALS IN      1 RECORDS. CPU TIME:     0.00 SEC, REAL TIME:     0.00 SEC
 SORT2 READ       38438. AND WROTE      157641. INTEGRALS IN      2 RECORDS. CPU TIME:     0.00 SEC, REAL TIME:     0.01 SEC

 FILE SIZES:   FILE 1:    30.6 MBYTE,  FILE 4:     4.3 MBYTE,   TOTAL:     34.8 MBYTE

 OPERATOR DM      FOR CENTER  0  COORDINATES:    0.000000    0.000000    0.000000


 **********************************************************************************************************************************
 DATASETS  * FILE   NREC   LENGTH (MB)   RECORD NAMES
              1      19       28.91       500      610      700      900      950      970     1000      129      960     1100   
                                          VAR    BASINP    GEOM    SYMINP    ZMAT    AOBASIS   BASIS     P2S    ABASIS      S 
                                         1400     1410     1200     1210     1080     1600     1650     1300     1700   
                                           T        V       H0       H01     AOSYM     SMH    MOLCAS    ERIS     OPER   

 PROGRAMS   *        TOTAL       INT
 CPU TIMES  *         0.19      0.10
 REAL TIME  *         0.48 SEC
 DISK USED  *        33.57 MB
 **********************************************************************************************************************************


 Program * Restricted Hartree-Fock

 Orbital guess generated from atomic densities. Full valence occupancy:   11

 Initial occupancy:   7

 NELEC=   14   SYM=1   MS2= 0   THRE=1.0D-08   THRD=3.2D-06   THRG=3.2D-06  HFMA2=F  DIIS_START=2   DIIS_MAX=10   DIIS_INCORE=F

 Level shifts:    0.00 (CLOSED)    0.00 (OPEN)    0.30 (GAP_MIN)

 ITER           ETOT              DE          GRAD        DDIFF     DIIS  NEXP   TIME(IT)  TIME(TOT)  DIAG
   1      -92.85917839     -92.85917839     0.00D+00     0.20D+00     0     0       0.00      0.00    start
   2      -92.86837601      -0.00919762     0.11D-01     0.26D-01     1     0       0.00      0.00    diag
   3      -92.88305187      -0.01467586     0.98D-02     0.13D-01     2     0       0.00      0.00    diag
   4      -92.88326106      -0.00020919     0.76D-03     0.21D-02     3     0       0.00      0.00    diag
   5      -92.88327164      -0.00001057     0.17D-03     0.44D-03     4     0       0.00      0.00    diag
   6      -92.88327238      -0.00000074     0.47D-04     0.12D-03     5     0       0.00      0.00    diag
   7      -92.88327244      -0.00000006     0.16D-04     0.35D-04     6     0       0.00      0.00    diag
   8      -92.88327244      -0.00000000     0.24D-05     0.62D-05     7     0       0.01      0.01    fixocc
   9      -92.88327244      -0.00000000     0.21D-06     0.64D-06     8     0       0.00      0.01    diag
  10      -92.88327244      -0.00000000     0.22D-07     0.60D-07     0     0       0.00      0.01    diag/orth

 Final occupancy:   7

 !RHF STATE 1.1 Energy                -92.883272437197
  RHF One-electron energy            -172.600857858243
  RHF Two-electron energy              55.793405172177
  RHF Kinetic energy                   92.672763715552
  RHF Nuclear energy                   23.924180248868
  RHF Virial quotient                  -1.002271527396

 !RHF STATE 1.1 Dipole moment           0.00000000     0.00000000    -1.23588263
 Dipole moment /Debye                   0.00000000     0.00000000    -3.14130031

 Orbital energies:

           1.1          2.1          3.1          4.1          5.1          6.1          7.1          8.1          9.1
    -15.603503   -11.298116    -1.236080    -0.807805    -0.577400    -0.492060    -0.492060     0.181418     0.189285


 HOMO      7.1    -0.492060 =     -13.3896eV
 LUMO      8.1     0.181418 =       4.9366eV
 LUMO-HOMO         0.673478 =      18.3263eV

 Orbitals saved in record  2100.2


 **********************************************************************************************************************************
 DATASETS  * FILE   NREC   LENGTH (MB)   RECORD NAMES
              1      19       28.91       500      610      700      900      950      970     1000      129      960     1100   
                                          VAR    BASINP    GEOM    SYMINP    ZMAT    AOBASIS   BASIS     P2S    ABASIS      S 
                                         1400     1410     1200     1210     1080     1600     1650     1300     1700   
                                           T        V       H0       H01     AOSYM     SMH    MOLCAS    ERIS     OPER   

              2       4        0.43       700     1000      520     2100   
                                         GEOM     BASIS   MCVARS     RHF  

 PROGRAMS   *        TOTAL    HF-SCF       INT
 CPU TIMES  *         0.20      0.00      0.10
 REAL TIME  *         0.65 SEC
 DISK USED  *        33.57 MB
 **********************************************************************************************************************************


 PROGRAM * CCSD (Closed-shell coupled cluster)     Authors: C. Hampel, H.-J. Werner, 1991, M. Deegan, P.J. Knowles, 1992


 Convergence thresholds:  THRVAR = 1.00D-08  THRDEN = 1.00D-06

 CCSD(T)     terms to be evaluated (factor= 1.000)


 Number of core orbitals:           2 (   2 )
 Number of closed-shell orbitals:   5 (   5 )
 Number of external orbitals:      26 (  26 )

 Molecular orbitals read from record     2100.2  Type=RHF/CANONICAL  

 Number of N-1 electron functions:               5
 Number of N-2 electron functions:              15
 Number of singly external CSFs:               130
 Number of doubly external CSFs:              8515
 Total number of CSFs:                        8646

 Length of J-op  integral file:               0.00 MB
 Length of K-op  integral file:               0.14 MB
 Length of 3-ext integral record:             0.00 MB

 Memory could be reduced to 0.22 Mwords without degradation in triples

 Integral transformation finished. Total CPU:   0.00 sec, npass=  1  Memory used:   0.22 MW

 Reference energy:                    -92.88327244

 MP2 singlet pair energy:              -0.17502579
 MP2 triplet pair energy:              -0.10909279
 MP2 correlation energy:               -0.28411858
 MP2 total energy:                    -93.16739102

 SCS-MP2 correlation energy:           -0.27791090   (PS=  1.200000  PT=  0.333333)
 SCS-MP2 total energy:                -93.16118334

 ITER.      SQ.NORM     CORR.ENERGY   TOTAL ENERGY   ENERGY CHANGE        DEN1      VAR(S)    VAR(P)  DIIS     TIME  TIME/IT
   1      1.10776016    -0.29139863   -93.17467107    -0.00728005     0.00329712  0.21D-02  0.26D-02  1  1     0.30     0.01
   2      1.11798715    -0.29272362   -93.17599606    -0.00132499    -0.00916723  0.26D-04  0.42D-03  2  2     0.31     0.01
   3      1.12286175    -0.29305923   -93.17633167    -0.00033561    -0.00231333  0.12D-04  0.41D-04  3  3     0.31     0.01
   4      1.12489987    -0.29315775   -93.17643018    -0.00009851    -0.00072532  0.40D-06  0.38D-05  4  4     0.32     0.01
   5      1.12528620    -0.29315561   -93.17642804     0.00000214    -0.00010959  0.93D-07  0.35D-06  5  5     0.32     0.01
   6      1.12536353    -0.29315568   -93.17642812    -0.00000008    -0.00001855  0.57D-08  0.19D-07  6  6     0.33     0.01
   7      1.12537263    -0.29315781   -93.17643024    -0.00000212    -0.00000316  0.38D-09  0.17D-08  6  1     0.33     0.01
   8      1.12537222    -0.29315809   -93.17643053    -0.00000029     0.00000103  0.26D-10  0.96D-10  6  3     0.34     0.01
   9      1.12537306    -0.29315803   -93.17643047     0.00000006    -0.00000047  0.69D-11  0.68D-11  6  2     0.34     0.01

 Norm of t1 vector:      0.06105121      S-energy:     0.00000007      T1 diagnostic:  0.01365146
                                                                       D1 diagnostic:  0.02700472
                                                                       D2 diagnostic:  0.17717016 (internal)

 Doubles amplitudes (print threshold =  0.500E-01):

         I         J         SYM. A    SYM. B    A         B      T(IJ, AB)

         4         4         1         1         2         2     -0.05700391
         4         4         1         1         3         3     -0.05869450
         5         5         1         1         2         2     -0.05869450
         5         5         1         1         3         3     -0.05700391


 Total CPU time for triples:      0.02 sec


 RESULTS
 =======

  Reference energy                    -92.883272437197
  CCSD singlet pair energy             -0.203215765937
  CCSD triplet pair energy             -0.089942335898
  CCSD correlation energy              -0.293158032316

  Triples (T) contribution             -0.011850866321
  Total correlation energy             -0.305008898637

  CCSD total energy                   -93.176430469514
  CCSD[T] energy                      -93.188960605655
  CCSD-T energy                       -93.187928718701
 !CCSD(T) total energy                -93.188281335835

 Timing summary (sec):

 STEP                 CPU(USER)    SYS     CPU(TOT)    WALL
 CCSD iterations         0.34      0.01      0.35      0.11
 Triples                 0.02      0.00      0.02      0.01

 Program statistics:

 Available memory in ccsd:               805306261
 Min. memory needed in ccsd:                 40095
 Max. memory used in ccsd:                   44920
 Max. memory used in cckext:                 72773 ( 9 integral passes)



 **********************************************************************************************************************************
 DATASETS  * FILE   NREC   LENGTH (MB)   RECORD NAMES
              1      20       29.46       500      610      700      900      950      970     1000      129      960     1100   
                                          VAR    BASINP    GEOM    SYMINP    ZMAT    AOBASIS   BASIS     P2S    ABASIS      S 
                                         1400     1410     1200     1210     1080     1600     1650     1300     1700     1380   
                                           T        V       H0       H01     AOSYM     SMH    MOLCAS    ERIS     OPER     JKOP   

              2       4        0.43       700     1000      520     2100   
                                         GEOM     BASIS   MCVARS     RHF  

 PROGRAMS   *        TOTAL   CCSD(T)    HF-SCF       INT
 CPU TIMES  *         0.29      0.10      0.00      0.10
 REAL TIME  *         0.84 SEC
 DISK USED  *        33.57 MB
 **********************************************************************************************************************************

 Dump information in style XML to xml output                                                                      

 Orbitals will not be exported.

 **********************************************************************************************************************************

 CCSD(T)/cc-pVDZ energy=    -93.188281335835

         CCSD(T)          HF-SCF
    -93.18828134    -92.88327244
 **********************************************************************************************************************************
 Molpro calculation terminated
