
 Working directory              : /tmp/peterk/molpro.bnP8kfFgoq/
 Global scratch directory       : /tmp/peterk/molpro.bnP8kfFgoq/
 Wavefunction directory         : /home/peterk/wfu/
 Main file repository           : /tmp/peterk/molpro.bnP8kfFgoq/

 id        : peterk

 Nodes     nprocs
 marat        1
 GA implementation: MPI file
 GA implementation (serial work in mppx): MPI file

 Using customized tuning parameters: mindgm=1; mindgv=20; mindgc=4; mindgr=1; noblas=0; minvec=7
 default implementation of scratch files=df  


 Variables initialized (1032), CPU time= 0.00 sec
 
 core,small
 angstrom
 
 geometry={
 F;F,F,1.41134168
 }
 basis=cc-pCVQZ
 
 
 
 hf
 
 
 
 {put,xml;noorbitals,nobasis}
 Commands initialized (841), CPU time= 0.01 sec, 708 directives.
 Default parameters read. Elapsed time= 0.05 sec

 Checking input...
 Passed
1


                                         ***  PROGRAM SYSTEM MOLPRO  ***
                                       Copyright, TTI GmbH Stuttgart, 2015
                                    Version 2023.1 linked Sat Jun 10 08:01:27 2023


 **********************************************************************************************************************************
 LABEL *                                                                                                                                                                 
  (16 PROC) 64 bit serial version                                                        DATE: 12-Jun-23          TIME: 10:22:14  
 **********************************************************************************************************************************

 SHA1:             8376d659ba1296ca7ee514c57770fe2c96af278c
 **********************************************************************************************************************************

 Memory per process:      1074 MW
 Total memory per node:   1074 MW

 GA preallocation disabled
 GA check disabled

 Variable memory set to 1073.7 MW

 ZUNIT=ANG

 SETTING BASIS          =    CC-PCVQZ


 Recomputing integrals since basis changed


 Using spherical harmonics

 Library entry F      S cc-pCVQZ             selected for orbital group  1
 Library entry F      P cc-pCVQZ             selected for orbital group  1
 Library entry F      D cc-pCVQZ             selected for orbital group  1
 Library entry F      F cc-pCVQZ             selected for orbital group  1
 Library entry F      G cc-pCVQZ             selected for orbital group  1


 PROGRAM * SEWARD (Integral evaluation for generally contracted gaussian basis sets)     Author: Roland Lindh, 1990

 Geometry written to block  1 of record 700

 Orientation using atomic masses  
 Molecule type: Linear
 Symmetry elements: X,Y,Z
 Rotational constants:      26.7094998     26.7094998      0.0000000 GHz  (calculated with average atomic masses)

 Point group  D2h 



 ATOMIC COORDINATES

 NR  ATOM    CHARGE       X              Y              Z

   1  F       9.00    0.000000000    0.000000000   -1.333524622
   2  F       9.00    0.000000000    0.000000000    1.333524622

 Bond lengths in Bohr (Angstrom)

 1-2  2.667049243
     ( 1.411341680)

 NUCLEAR CHARGE:                   18
 NUMBER OF PRIMITIVE AOS:         234
 NUMBER OF SYMMETRY AOS:          194
 NUMBER OF CONTRACTIONS:          168   (   34Ag  +   20B3u +   20B2u +   10B1g +   34B1u +   20B2g +   20B3g +   10Au  )
 NUMBER OF INNER CORE ORBITALS:     0   (    0Ag  +    0B3u +    0B2u +    0B1g +    0B1u +    0B2g +    0B3g +    0Au  )
 NUMBER OF OUTER CORE ORBITALS:     2   (    1Ag  +    0B3u +    0B2u +    0B1g +    1B1u +    0B2g +    0B3g +    0Au  )
 NUMBER OF VALENCE ORBITALS:        8   (    2Ag  +    1B3u +    1B2u +    0B1g +    2B1u +    1B2g +    1B3g +    0Au  )


 NUCLEAR REPULSION ENERGY   30.37064284

 EXTRA SYMMETRY OF AOS IN SYMMETRY 1:   1 1 1 1 1 1 1 1 1 1   1 1 1 1 1 1 2 1 2 1   2 1 2 1 2 1 2 1 2 1   2 1 3 2
 EXTRA SYMMETRY OF AOS IN SYMMETRY 2:   1 1 1 1 1 1 1 1 1 1   1 1 1 2 1 2 1 2 1 2
 EXTRA SYMMETRY OF AOS IN SYMMETRY 3:   1 1 1 1 1 1 1 1 1 1   1 1 1 2 1 2 1 2 1 2
 EXTRA SYMMETRY OF AOS IN SYMMETRY 4:   1 1 1 1 1 1 1 1 1 2
 EXTRA SYMMETRY OF AOS IN SYMMETRY 5:   1 1 1 1 1 1 1 1 1 1   1 1 1 1 1 1 2 1 2 1   2 1 2 1 2 1 2 1 2 1   2 1 3 2
 EXTRA SYMMETRY OF AOS IN SYMMETRY 6:   1 1 1 1 1 1 1 1 1 1   1 1 1 2 1 2 1 2 1 2
 EXTRA SYMMETRY OF AOS IN SYMMETRY 7:   1 1 1 1 1 1 1 1 1 1   1 1 1 2 1 2 1 2 1 2
 EXTRA SYMMETRY OF AOS IN SYMMETRY 8:   1 1 1 1 1 1 1 1 1 2

 Eigenvalues of metric

         1 0.265E-04 0.161E-02 0.265E-02 0.275E-01 0.556E-01 0.938E-01 0.123E+00 0.162E+00
         2 0.277E-02 0.114E+00 0.158E+00 0.166E+00 0.433E+00 0.485E+00 0.519E+00 0.634E+00
         3 0.277E-02 0.114E+00 0.158E+00 0.166E+00 0.433E+00 0.485E+00 0.519E+00 0.634E+00
         4 0.167E+00 0.431E+00 0.516E+00 0.861E+00 0.993E+00 0.100E+01 0.103E+01 0.147E+01
         5 0.260E-04 0.139E-02 0.232E-02 0.518E-02 0.200E-01 0.490E-01 0.924E-01 0.134E+00
         6 0.271E-02 0.919E-01 0.981E-01 0.142E+00 0.230E+00 0.415E+00 0.471E+00 0.487E+00
         7 0.271E-02 0.919E-01 0.981E-01 0.142E+00 0.230E+00 0.415E+00 0.471E+00 0.487E+00
         8 0.154E+00 0.387E+00 0.441E+00 0.786E+00 0.968E+00 0.994E+00 0.100E+01 0.140E+01


 Contracted 2-electron integrals neglected if value below      1.0D-12
 AO integral compression algorithm  1   Integral accuracy      1.0D-12

     99.877 MB (compressed) written to integral file ( 50.9%)


 NUMBER OF SORTED TWO-ELECTRON INTEGRALS:   13085170.     BUFFER LENGTH:  32768
 NUMBER OF SEGMENTS:   1  SEGMENT LENGTH:   13085170      RECORD LENGTH: 524288

 Memory used in sort:      13.64 MW

 SORT1 READ    24541824. AND WROTE    10366967. INTEGRALS IN     30 RECORDS. CPU TIME:     0.44 SEC, REAL TIME:     0.52 SEC
 SORT2 READ    10366967. AND WROTE    13085170. INTEGRALS IN    381 RECORDS. CPU TIME:     0.34 SEC, REAL TIME:     0.36 SEC

 FILE SIZES:   FILE 1:   130.6 MBYTE,  FILE 4:   125.9 MBYTE,   TOTAL:    256.5 MBYTE

 OPERATOR DM      FOR CENTER  0  COORDINATES:    0.000000    0.000000    0.000000


 **********************************************************************************************************************************
 DATASETS  * FILE   NREC   LENGTH (MB)   RECORD NAMES
              1      19       81.27       500      610      700      900      950      970     1000      129      960     1100   
                                          VAR    BASINP    GEOM    SYMINP    ZMAT    AOBASIS   BASIS     P2S    ABASIS      S 
                                         1400     1410     1200     1210     1080     1600     1650     1300     1700   
                                           T        V       H0       H01     AOSYM     SMH    MOLCAS    ERIS     OPER   

 PROGRAMS   *        TOTAL       INT
 CPU TIMES  *         3.18      3.08
 REAL TIME  *         3.99 SEC
 DISK USED  *       244.95 MB
 **********************************************************************************************************************************


 Program * Restricted Hartree-Fock

 Orbital guess generated from atomic densities. Full valence occupancy:    3   1   1   0   3   1   1   0


 Initial occupancy:   3   1   1   0   2   1   1   0

 NELEC=   18   SYM=1   MS2= 0   THRE=1.0D-08   THRD=3.2D-06   THRG=3.2D-06  HFMA2=F  DIIS_START=2   DIIS_MAX=10   DIIS_INCORE=F

 Level shifts:    0.00 (CLOSED)    0.00 (OPEN)    0.30 (GAP_MIN)

 ITER           ETOT              DE          GRAD        DDIFF     DIIS  NEXP   TIME(IT)  TIME(TOT)  DIAG
   1     -198.74201395    -198.74201395     0.00D+00     0.13D+00     0     0       0.02      0.04    start
   2     -198.76598665      -0.02397270     0.15D-01     0.84D-02     1     0       0.02      0.06    diag
   3     -198.76844860      -0.00246194     0.51D-02     0.25D-02     2     0       0.02      0.08    diag
   4     -198.76855310      -0.00010451     0.74D-03     0.60D-03     3     0       0.02      0.10    diag
   5     -198.76855993      -0.00000682     0.19D-03     0.13D-03     4     0       0.03      0.13    diag
   6     -198.76856021      -0.00000028     0.37D-04     0.25D-04     5     0       0.02      0.15    diag
   7     -198.76856022      -0.00000001     0.62D-05     0.35D-05     6     0       0.03      0.18    diag
   8     -198.76856022      -0.00000000     0.40D-06     0.26D-06     7     0       0.01      0.19    fixocc
   9     -198.76856022      -0.00000000     0.45D-07     0.33D-07     0     0       0.03      0.22    diag

 Final occupancy:   3   1   1   0   2   1   1   0

 !RHF STATE 1.1 Energy               -198.768560217029
  RHF One-electron energy            -338.637862671052
  RHF Two-electron energy             109.498659617808
  RHF Kinetic energy                  198.580223882160
  RHF Nuclear energy                   30.370642836215
  RHF Virial quotient                  -1.000948414355

 !RHF STATE 1.1 Dipole moment           0.00000000     0.00000000     0.00000000
 Dipole moment /Debye                   0.00000000     0.00000000     0.00000000

 Orbital energies:

           1.1          2.1          3.1          4.1          5.1
    -26.427547    -1.764362    -0.751203     0.685625     0.783360

           1.2          2.2          3.2
     -0.810661     0.640992     1.418784

           1.3          2.3          3.3
     -0.810661     0.640992     1.418784

           1.4          2.4
      1.434155     4.122748

           1.5          2.5          3.5          4.5
    -26.427300    -1.496850     0.088272     0.578168

           1.6          2.6          3.6
     -0.665844     0.753221     2.200430

           1.7          2.7          3.7
     -0.665844     0.753221     2.200430

           1.8          2.8
      1.730868     4.915491


 HOMO      1.7    -0.665844 =     -18.1185eV
 LUMO      3.5     0.088272 =       2.4020eV
 LUMO-HOMO         0.754116 =      20.5206eV

 Orbitals saved in record  2100.2


 **********************************************************************************************************************************
 DATASETS  * FILE   NREC   LENGTH (MB)   RECORD NAMES
              1      19       81.27       500      610      700      900      950      970     1000      129      960     1100   
                                          VAR    BASINP    GEOM    SYMINP    ZMAT    AOBASIS   BASIS     P2S    ABASIS      S 
                                         1400     1410     1200     1210     1080     1600     1650     1300     1700   
                                           T        V       H0       H01     AOSYM     SMH    MOLCAS    ERIS     OPER   

              2       4        0.47       700     1000      520     2100   
                                         GEOM     BASIS   MCVARS     RHF  

 PROGRAMS   *        TOTAL    HF-SCF       INT
 CPU TIMES  *         3.40      0.22      3.08
 REAL TIME  *         4.24 SEC
 DISK USED  *       244.95 MB
 **********************************************************************************************************************************

 Dump information in style XML to xml output                                                                      

 Orbitals will not be exported.

 **********************************************************************************************************************************

 HF/cc-pCVQZ energy=   -198.768560217029

          HF-SCF
   -198.76856022
 **********************************************************************************************************************************
 Molpro calculation terminated
