
 Working directory              : /var/folders/2v/xbgp75_9785319ghcgb4zr4r0000gp/T//molpro.AhKsmPt3v7/
 Global scratch directory       : /var/folders/2v/xbgp75_9785319ghcgb4zr4r0000gp/T//molpro.AhKsmPt3v7/
 Wavefunction directory         : /Users/sacpjk/wfu/
 Main file repository           : /var/folders/2v/xbgp75_9785319ghcgb4zr4r0000gp/T//molpro.AhKsmPt3v7/

 id        : peterk

 Nodes                        nprocs
 Cardiff-University-G34YLXT77Y    1
 GA implementation: MPI file
 GA implementation (serial work in mppx): MPI file

 Using customized tuning parameters: mindgm=1; mindgv=20; mindgc=4; mindgr=1; noblas=0; minvec=7
 default implementation of scratch files=df  


 Variables initialized (1032), CPU time= 0.00 sec
 
 symmetry,nosym
 
 
 geometry={
 14
  n         -1.453934135634    0.199944332888   -0.757715097449
  h         -0.625338396930   -0.384909200688   -0.808057179042
  h         -2.115761700754   -0.189715236660   -1.415952054177
  c         -2.013951575915    0.120426538372    0.589663024499
  h         -2.908030526802    0.738272676333    0.650883920854
  h         -2.278038267596   -0.886815706602    0.927168615906
  h         -1.295568295023    0.527702873085    1.298803730494
  n          1.583600719117   -0.726493189723   -0.605239056236
  h          1.879869389195   -0.451955454822   -1.533224299529
  h          2.207150386084   -1.474183505751   -0.330044193261
  c          1.743830695067    0.408717403161    0.308436247873
  h          1.473640390979    0.094021622922    1.314089356636
  h          2.751241006206    0.830493962319    0.345407981528
  h          1.051290312165    1.194492885167    0.015779001903
 }
 basis=aug-cc-pVDZ
 
 
 
 hf; hf; papt; mp4; counterpoise
 
 
 
 {put,xml;noorbitals,nobasis}
 Commands initialized (841), CPU time= 0.01 sec, 704 directives.
 Default parameters read. Elapsed time= 0.56 sec

 Checking input...
 Passed
1


                                         ***  PROGRAM SYSTEM MOLPRO  ***
                                       Copyright, TTI GmbH Stuttgart, 2015
                                    Version 2023.1 linked Tue Jun  6 09:54:11 2023


 **********************************************************************************************************************************
 LABEL *                                                                                                                                                                 
  64 bit serial version                                                                  DATE: 08-Jun-23          TIME: 16:50:45  
 **********************************************************************************************************************************

 SHA1:             8ebb0dd001088a5c915591db1a321413035db0b1
 **********************************************************************************************************************************

 Memory per process:       805 MW
 Total memory per node:   1074 MW
 Total GA space:           268 MW

 GA preallocation disabled
 GA check enabled

 Variable memory set to 805.3 MW

 ZSYMEL=NOSYM


 Geometry recognized as XYZ

 SETTING BASIS          =    AUG-CC-PVDZ


 Recomputing integrals since basis changed


 Using spherical harmonics

 Library entry N      S aug-cc-pVDZ          selected for orbital group  1
 Library entry N      P aug-cc-pVDZ          selected for orbital group  1
 Library entry N      D aug-cc-pVDZ          selected for orbital group  1
 Library entry H      S aug-cc-pVDZ          selected for orbital group  2
 Library entry H      P aug-cc-pVDZ          selected for orbital group  2
 Library entry C      S aug-cc-pVDZ          selected for orbital group  3
 Library entry C      P aug-cc-pVDZ          selected for orbital group  3
 Library entry C      D aug-cc-pVDZ          selected for orbital group  3


 PROGRAM * SEWARD (Integral evaluation for generally contracted gaussian basis sets)     Author: Roland Lindh, 1990

 Geometry written to block  1 of record 700


 Point group  C1  



 ATOMIC COORDINATES

 NR  ATOM    CHARGE       X              Y              Z

   1  N       7.00   -2.747537320    0.377840029   -1.431874015
   2  H       1.00   -1.181718305   -0.727372972   -1.527006761
   3  H       1.00   -3.998210159   -0.358509839   -2.675761588
   4  C       6.00   -3.805816907    0.227573176    1.114301622
   5  H       1.00   -5.495381258    1.395133164    1.229992349
   6  H       1.00   -4.304868427   -1.675838808    1.752094755
   7  H       1.00   -2.448269253    0.997213905    2.454383340
   8  N       7.00    2.992571650   -1.372873160   -1.143736056
   9  H       1.00    3.552438296   -0.854072030   -2.897374014
  10  H       1.00    4.170909746   -2.785803083   -0.623693134
  11  C       6.00    3.295362421    0.772363954    0.582860035
  12  H       1.00    2.784776745    0.177675117    2.483268987
  13  H       1.00    5.199092005    1.569406137    0.652726486
  14  H       1.00    1.986650767    2.257264411    0.029817992

 Bond lengths in Bohr (Angstrom)

 1-2  1.918941167  1-3  1.911452321  1-4  2.761439151  4-5  2.056990123  4-6  2.068528386
     ( 1.015459935)     ( 1.011497008)     ( 1.461290668)     ( 1.088512296)     ( 1.094618082)

  4- 7  2.056964145   8- 9  1.912551008   8-10  1.911882914   8-11  2.770353514  11-12  2.055701031
       ( 1.088498549)       ( 1.012078408)       ( 1.011724868)       ( 1.466007946)       ( 1.087830138)

 11-13  2.065028786  11-14  2.055118259
       ( 1.092766173)       ( 1.087521749)

 Bond angles

  1-4-5  109.61825692   1-4-6  115.26640672   1-4-7  109.11184884   2-1-3  106.24620118

  2-1-4  109.09178005   3-1-4  109.16631861   5-4-6  107.86599269   5-4-7  107.04188173

  6- 4- 7  107.61673372   8-11-12  108.96566473   8-11-13  114.88035324   8-11-14  108.79498984

  9- 8-10  105.63187802   9- 8-11  109.23286160  10- 8-11  109.59570301  12-11-13  108.02032202

 12-11-14  107.43539387  13-11-14  108.49916730

 NUCLEAR CHARGE:                   36
 NUMBER OF PRIMITIVE AOS:         258
 NUMBER OF SYMMETRY AOS:          250
 NUMBER OF CONTRACTIONS:          182   (  182A   )
 NUMBER OF INNER CORE ORBITALS:     0   (    0A   )
 NUMBER OF OUTER CORE ORBITALS:     4   (    4A   )
 NUMBER OF VALENCE ORBITALS:       26   (   26A   )


 NUCLEAR REPULSION ENERGY  131.71717807


 Eigenvalues of metric

         1 0.204E-03 0.326E-03 0.374E-03 0.447E-03 0.494E-03 0.549E-03 0.634E-03 0.710E-03


 Contracted 2-electron integrals neglected if value below      1.0D-11
 AO integral compression algorithm  1   Integral accuracy      1.0D-11

     612.368 MB (compressed) written to integral file ( 49.6%)


 NUMBER OF SORTED TWO-ELECTRON INTEGRALS:  138669531.     BUFFER LENGTH:  32768
 NUMBER OF SEGMENTS:   9  SEGMENT LENGTH:   15999503      RECORD LENGTH: 524288

 Memory used in sort:      16.56 MW

 SORT1 READ   154345298. AND WROTE   134467543. INTEGRALS IN    389 RECORDS. CPU TIME:     0.99 SEC, REAL TIME:     1.33 SEC
 SORT2 READ   134467543. AND WROTE   138669531. INTEGRALS IN   2336 RECORDS. CPU TIME:     0.77 SEC, REAL TIME:     1.07 SEC

 FILE SIZES:   FILE 1:   643.8 MBYTE,  FILE 4:  1631.6 MBYTE,   TOTAL:   2275.5 MBYTE

 OPERATOR DM      FOR CENTER  0  COORDINATES:    0.000000    0.000000    0.000000


 **********************************************************************************************************************************
 DATASETS  * FILE   NREC   LENGTH (MB)   RECORD NAMES
              1      19      562.80       500      610      700      900      950      970     1000      129      960     1100   
                                          VAR    BASINP    GEOM    SYMINP    ZMAT    AOBASIS   BASIS     P2S    ABASIS      S 
                                         1400     1410     1200     1210     1080     1600     1650     1300     1700   
                                           T        V       H0       H01     AOSYM     SMH    MOLCAS    ERIS     OPER   

 PROGRAMS   *        TOTAL       INT
 CPU TIMES  *         4.74      4.64
 REAL TIME  *         8.15 SEC
 DISK USED  *         2.12 GB
 **********************************************************************************************************************************


 Program * Restricted Hartree-Fock

 Orbital guess generated from atomic densities. Full valence occupancy:   30

 Initial occupancy:  18

 NELEC=   36   SYM=1   MS2= 0   THRE=1.0D-08   THRD=3.2D-06   THRG=3.2D-06  HFMA2=F  DIIS_START=2   DIIS_MAX=10   DIIS_INCORE=F

 Level shifts:    0.00 (CLOSED)    0.00 (OPEN)    0.30 (GAP_MIN)

 ITER           ETOT              DE          GRAD        DDIFF     DIIS  NEXP   TIME(IT)  TIME(TOT)  DIAG
   1     -190.40688022    -190.40688022     0.00D+00     0.62D-01     0     0       0.54      1.02    start
   2     -190.45587537      -0.04899515     0.38D-02     0.67D-02     1     0       0.51      1.53    diag
   3     -190.46238278      -0.00650741     0.15D-02     0.19D-02     2     0       0.52      2.05    diag
   4     -190.46336582      -0.00098304     0.48D-03     0.79D-03     3     0       0.52      2.57    diag
   5     -190.46340601      -0.00004019     0.85D-04     0.16D-03     4     0       0.52      3.09    diag
   6     -190.46340886      -0.00000284     0.21D-04     0.45D-04     5     0       0.51      3.60    diag
   7     -190.46340906      -0.00000020     0.56D-05     0.11D-04     6     0       0.52      4.12    diag
   8     -190.46340908      -0.00000002     0.15D-05     0.42D-05     7     0       0.53      4.65    fixocc
   9     -190.46340908      -0.00000000     0.40D-06     0.10D-05     8     0       0.53      5.18    diag
  10     -190.46340908      -0.00000000     0.10D-06     0.18D-06     0     0       0.54      5.72    diag/orth

 Final occupancy:  18

 !RHF STATE 1.1 Energy               -190.463409084472
  RHF One-electron energy            -518.166452718128
  RHF Two-electron energy             195.985865562282
  RHF Kinetic energy                  190.199751427168
  RHF Nuclear energy                  131.717178071374
  RHF Virial quotient                  -1.001386214521

 !RHF STATE 1.1 Dipole moment           0.58324083    -0.40525757     0.06930144
 Dipole moment /Debye                   1.48245031    -1.03006200     0.17614669

 Orbital energies:

           1.1          2.1          3.1          4.1          5.1          6.1          7.1          8.1          9.1         10.1
    -15.555983   -15.527307   -11.248333   -11.235300    -1.180484    -1.155172    -0.900787    -0.882943    -0.670001    -0.649327

          11.1         12.1         13.1         14.1         15.1         16.1         17.1         18.1         19.1         20.1
     -0.606028    -0.589404    -0.558650    -0.538833    -0.519267    -0.502807    -0.402376    -0.374360     0.034020     0.046511


 HOMO     18.1    -0.374360 =     -10.1869eV
 LUMO     19.1     0.034020 =       0.9257eV
 LUMO-HOMO         0.408380 =      11.1126eV

 Orbitals saved in record  2100.2


 **********************************************************************************************************************************
 DATASETS  * FILE   NREC   LENGTH (MB)   RECORD NAMES
              1      19      562.80       500      610      700      900      950      970     1000      129      960     1100   
                                          VAR    BASINP    GEOM    SYMINP    ZMAT    AOBASIS   BASIS     P2S    ABASIS      S 
                                         1400     1410     1200     1210     1080     1600     1650     1300     1700   
                                           T        V       H0       H01     AOSYM     SMH    MOLCAS    ERIS     OPER   

              2       4        1.12       700     1000      520     2100   
                                         GEOM     BASIS   MCVARS     RHF  

 PROGRAMS   *        TOTAL    HF-SCF       INT
 CPU TIMES  *        10.46      5.72      4.64
 REAL TIME  *        15.72 SEC
 DISK USED  *         2.12 GB
 **********************************************************************************************************************************


 Program * Restricted Hartree-Fock

 Molecular orbitals read from record     2100.2  Type=RHF/CANONICAL  

 Initial occupancy:  18

 NELEC=   36   SYM=1   MS2= 0   THRE=1.0D-08   THRD=3.2D-06   THRG=3.2D-06  HFMA2=F  DIIS_START=2   DIIS_MAX=10   DIIS_INCORE=F

 Level shifts:    0.00 (CLOSED)    0.00 (OPEN)    0.30 (GAP_MIN)

 ITER           ETOT              DE          GRAD        DDIFF     DIIS  NEXP   TIME(IT)  TIME(TOT)  DIAG
   1     -190.46340908    -190.46340908     0.00D+00     0.64D-01     0     0       0.54      0.54    start
   2     -190.46340908      -0.00000000     0.47D-07     0.80D-07     1     0       0.53      1.07    diag

 Final occupancy:  18

 !RHF STATE 1.1 Energy               -190.463409084492
  RHF One-electron energy            -518.166454959668
  RHF Two-electron energy             195.985867803803
  RHF Kinetic energy                  190.199749467684
  RHF Nuclear energy                  131.717178071374
  RHF Virial quotient                  -1.001386224838

 !RHF STATE 1.1 Dipole moment           0.58323977    -0.40525988     0.06930276
 Dipole moment /Debye                   1.48244762    -1.03006786     0.17615006

 Orbital energies:

           1.1          2.1          3.1          4.1          5.1          6.1          7.1          8.1          9.1         10.1
    -15.555981   -15.527310   -11.248333   -11.235300    -1.180483    -1.155172    -0.900786    -0.882943    -0.670000    -0.649328

          11.1         12.1         13.1         14.1         15.1         16.1         17.1         18.1         19.1         20.1
     -0.606027    -0.589404    -0.558650    -0.538834    -0.519267    -0.502807    -0.402375    -0.374361     0.034020     0.046511


 HOMO     18.1    -0.374361 =     -10.1869eV
 LUMO     19.1     0.034020 =       0.9257eV
 LUMO-HOMO         0.408381 =      11.1126eV

 Orbitals saved in record  2101.2


 **********************************************************************************************************************************
 DATASETS  * FILE   NREC   LENGTH (MB)   RECORD NAMES
              1      19      562.80       500      610      700      900      950      970     1000      129      960     1100   
                                          VAR    BASINP    GEOM    SYMINP    ZMAT    AOBASIS   BASIS     P2S    ABASIS      S 
                                         1400     1410     1200     1210     1080     1600     1650     1300     1700   
                                           T        V       H0       H01     AOSYM     SMH    MOLCAS    ERIS     OPER   

              2       5        2.11       700     1000      520     2100     2101   
                                         GEOM     BASIS   MCVARS     RHF      RHF  

 PROGRAMS   *        TOTAL    HF-SCF    HF-SCF       INT
 CPU TIMES  *        11.55      1.09      5.72      4.64
 REAL TIME  *        17.49 SEC
 DISK USED  *         2.12 GB
 **********************************************************************************************************************************


 PROGRAM * PAPT (Closed-shell)     Authors: C. Hampel, H.-J. Werner, 1991, P.J. Knowles, 2021


 Convergence thresholds:  THRVAR = 1.00D-08  THRDEN = 1.00D-06

 Number of core orbitals:           4 (   4 )
 Number of closed-shell orbitals:  14 (  14 )
 Number of external orbitals:     164 ( 164 )

 Molecular orbitals read from record     2101.2  Type=RHF/CANONICAL  

 Number of N-1 electron functions:              14
 Number of N-2 electron functions:             105
 Number of singly external CSFs:              2296
 Number of doubly external CSFs:           2636956
 Total number of CSFs:                     2639253

 Length of J-op  integral file:               0.00 MB
 Length of K-op  integral file:               2.34 MB

 Integral transformation finished. Total CPU:   1.19 sec, npass=  1  Memory used:   6.46 MW

 Reference energy:                   -190.46340908

                        CORR.ENERGY   TOTAL ENERGY   ENERGY CHANGE
 MP2:                   -0.69107631  -191.15448539    -0.69107631

 SCS-MP2 correlation energy:           -0.69166315   (PS=  1.200000  PT=  0.333333)
 SCS-MP2 total energy:               -191.15507223
 Iteration:   1     0.1861D+00
 Iteration:   2     0.3330D+00
 Iteration:   3     0.5799D-01
 Iteration:   4     0.3520D-01
 Iteration:   5     0.2150D-01
 Iteration:   6     0.9286D-02
 Iteration:   7     0.5697D-01
 Iteration:   8     0.3431D-02
 Iteration:   9     0.4270D-02
 Iteration:  10     0.4894D-02
 Iteration:  11     0.2996D-02
 Iteration:  12     0.7902D-02
 Iteration:  13     0.2423D-02
 Iteration:  14     0.3626D-01
 Iteration:  15     0.1711D-02
 Iteration:  16     0.2749D-01
 Iteration:  17     0.4331D-03
 Iteration:  18     0.4902D-03
 Iteration:  19     0.2532D-03
 Iteration:  20     0.1187D-03
 Iteration:  21     0.6700D-03
 Iteration:  22     0.4642D-04
 PAPT operator written to  7000.1
 PAPT orbitals and eigenvalues written to  7000.2

 MP3(D):                -0.74050873  -191.20391782    -0.04943243



 RESULTS
 =======

  Reference energy                   -190.463409084491
  MP3 singlet pair energy              -0.512031203798
  MP3 triplet pair energy              -0.228477528532
  MP3 correlation energy               -0.740508732330

 !MP3 total energy                   -191.203917816821

 Timing summary (sec):

 STEP                 CPU(USER)    SYS     CPU(TOT)    WALL
 Transformation          1.26      0.16      1.42      1.74
 CCSD iterations        22.20      0.46     22.66     14.97

 Program statistics:

 Available memory in ccsd:               805305566
 Min. memory needed in ccsd:               6754795
 Max. memory used in ccsd:                 9117435
 Max. memory used in cckext:               7300202 ( 1 integral passes)



 **********************************************************************************************************************************
 DATASETS  * FILE   NREC   LENGTH (MB)   RECORD NAMES
              1      21      603.32       500      610      700      900      950      970     1000      129      960     1100   
                                          VAR    BASINP    GEOM    SYMINP    ZMAT    AOBASIS   BASIS     P2S    ABASIS      S 
                                         1400     1410     1200     1210     1080     1600     1650     1300     1700     1380   
                                           T        V       H0       H01     AOSYM     SMH    MOLCAS    ERIS     OPER     JKOP   
                                         7000   
                                        PAPT AO    

              2       6        2.97       700     1000      520     2100     2101     7000   
                                         GEOM     BASIS   MCVARS     RHF      RHF     PAPT   

 PROGRAMS   *        TOTAL      PAPT    HF-SCF    HF-SCF       INT
 CPU TIMES  *        23.38     11.83      1.09      5.72      4.64
 REAL TIME  *        34.90 SEC
 DISK USED  *         2.12 GB
 **********************************************************************************************************************************


 PROGRAM * MP4 (Closed-shell)     Authors: C. Hampel, H.-J. Werner, 1991, M. Deegan, P.J. Knowles, 1992


 Convergence thresholds:  THRVAR = 1.00D-08  THRDEN = 1.00D-06

 MP4(T)     terms to be evaluated (factor= 0.000)


 Number of core orbitals:           4 (   4 )
 Number of closed-shell orbitals:  14 (  14 )
 Number of external orbitals:     164 ( 164 )

 Molecular orbitals read from record     7000.2  Type=PAPT/CANONICAL (state 1.1)

 Number of N-1 electron functions:              14
 Number of N-2 electron functions:             105
 Number of singly external CSFs:              2296
 Number of doubly external CSFs:           2636956
 Total number of CSFs:                     2639253

 Length of J-op  integral file:               0.00 MB
 Length of K-op  integral file:               2.34 MB

 Memory could be reduced to 79.58 Mwords without degradation in triples

 Integral transformation finished. Total CPU:   3.53 sec, npass=  1  Memory used:  51.92 MW
 Orbital energies read from record       7000.2  Type=PAPT/CANONICAL (state 1.1)

 Reference energy:                   -190.46340908

                        CORR.ENERGY   TOTAL ENERGY   ENERGY CHANGE
 MP2:                   -0.74979088  -191.21319996    -0.74979088

 SCS-MP2 correlation energy:           -0.75454262   (PS=  1.200000  PT=  0.333333)
 SCS-MP2 total energy:               -191.21795171

 MP3(D):                -0.75011901  -191.21352809    -0.00032813
 MP4(DQ):               -0.74433251  -191.20774159     0.00578650
 MP4(SDQ):              -0.74870405  -191.21211313    -0.00437154

 Norm of t1 vector:      0.05696885      S-energy:    -0.00437154      T1 diagnostic:  0.00761278

 Largest off-diagonal element in interal  block of Fock matrix:  0.82D-01
 Largest off-diagonal element in external block of Fock matrix:  0.13D+00


 Total CPU time for triples:     85.17 sec


 RESULTS
 =======

  Reference energy                   -190.463409084491
  MP4(SDQ) singlet pair energy         -0.516927036201
  MP4(SDQ) triplet pair energy         -0.227405471705
  MP4(SDQ) correlation energy          -0.748704046546

  Triples contribution                 -0.025879889993
  Total correlation energy             -0.774583936540

  MP4(SDQ) total energy              -191.212113131038
 !MP4(SDTQ) total energy             -191.237993021031

 Timing summary (sec):

 STEP                 CPU(USER)    SYS     CPU(TOT)    WALL
 Transformation          4.20      0.53      4.73      6.57
 CCSD iterations        29.77      0.34     30.11      8.32
 Triples                85.17      5.36     90.53    102.11

 Program statistics:

 Available memory in ccsd:               805305566
 Min. memory needed in ccsd:               6754795
 Max. memory used in ccsd:                 9117435
 Max. memory used in cckext:               7300202 ( 1 integral passes)



 **********************************************************************************************************************************
 DATASETS  * FILE   NREC   LENGTH (MB)   RECORD NAMES
              1      22      840.32       500      610      700      900      950      970     1000      129      960     1100   
                                          VAR    BASINP    GEOM    SYMINP    ZMAT    AOBASIS   BASIS     P2S    ABASIS      S 
                                         1400     1410     1200     1210     1080     1600     1650     1300     1700     1380   
                                           T        V       H0       H01     AOSYM     SMH    MOLCAS    ERIS     OPER     JKOP   
                                         7000     1380(1)
                                        PAPT AO   JKOP   

              2       6        2.97       700     1000      520     2100     2101     7000   
                                         GEOM     BASIS   MCVARS     RHF      RHF     PAPT   

 PROGRAMS   *        TOTAL       MP4      PAPT    HF-SCF    HF-SCF       INT
 CPU TIMES  *       119.06     95.68     11.83      1.09      5.72      4.64
 REAL TIME  *       152.65 SEC
 DISK USED  *         2.12 GB
 **********************************************************************************************************************************

 Counterpoise: absolute minimum monomer separation=    -1.000 Bragg radius scale factor=     1.400 Number of monomers= 2

 Counterpoise  MP4  energy

 Running default procedure: HF-SCF001  PAPT  MP4

 Assignment of unique atoms to monomers:
1-14     1     1     1     1     1     1     1     2     2     2     2     2     2     2

 *** Long output written to logfile /Users/sacpjk/current/PAPT/S66/7616fe93/10.molpro/run/1.molpro/1.log ***


 Description                       ENERGY          ENERGR          ENERGC
 Raw                        -191.23799302   -190.46340908   -191.21211313
 Dimer basis, monomer 1      -95.61596381    -95.23089293    -95.60337335
 Dimer basis, monomer 2      -95.61634302    -95.23109459    -95.60371949
 Monomer basis, monomer 1    -95.61494096    -95.23058375    -95.60243190
 Monomer basis, monomer 2    -95.61494559    -95.23064555    -95.60243542
 Counterpoise correction       0.00242028      0.00075822      0.00222551
 Counterpoise corrected     -191.23557274   -190.46265086   -191.20988762


 **********************************************************************************************************************************
 DATASETS  * FILE   NREC   LENGTH (MB)   RECORD NAMES
              1      18       30.00       500      610      700      900      950      970     1000      129      960     1100   
                                          VAR    BASINP    GEOM    SYMINP    ZMAT    AOBASIS   BASIS     P2S    ABASIS      S 
                                         1400     1410     1200     1210     1080     1600     1650     1700   
                                           T        V       H0       H01     AOSYM     SMH    MOLCAS    OPER   

              2      11        5.94       700     1000      520     2100     2101     2102      701     1001     2103      702   
                                         GEOM     BASIS   MCVARS     RHF      RHF      RHF     GEOM     BASIS     RHF     GEOM   
                                         7000   
                                         PAPT   

 PROGRAMS   *        TOTALCOUNTERPOI      PAPT    HF-SCF       INT       MP4      PAPT    HF-SCF       INT       MP4      PAPT
 CPU TIMES  *       181.32      1.11      0.42      0.36      0.40      1.13      0.52      0.38      0.41     17.79      3.08
 REAL TIME  *       232.93 SEC
 DISK USED  *         2.12 GB
 **********************************************************************************************************************************

 Dump information in style XML to xml output                                                                      

 Orbitals will not be exported.

 **********************************************************************************************************************************

 MP4/aug-cc-pVDZ energy=   -191.235572738454

             MP4            PAPT          HF-SCF             MP4            PAPT          HF-SCF             MP4            PAPT
    -95.61494559    -95.59820418    -95.23064555    -95.61494096    -95.59819551    -95.23058375    -95.61634302    -95.59952257
 **********************************************************************************************************************************
 Molpro calculation terminated
