
 Working directory              : /var/folders/2v/xbgp75_9785319ghcgb4zr4r0000gp/T//molpro.7OapFxCdJz/
 Global scratch directory       : /var/folders/2v/xbgp75_9785319ghcgb4zr4r0000gp/T//molpro.7OapFxCdJz/
 Wavefunction directory         : /Users/sacpjk/wfu/
 Main file repository           : /var/folders/2v/xbgp75_9785319ghcgb4zr4r0000gp/T//molpro.7OapFxCdJz/

 id        : peterk

 Nodes                        nprocs
 Cardiff-University-G34YLXT77Y    1
 GA implementation: MPI file
 GA implementation (serial work in mppx): MPI file

 Using customized tuning parameters: mindgm=1; mindgv=20; mindgc=4; mindgr=1; noblas=0; minvec=7
 default implementation of scratch files=df  


 Variables initialized (1032), CPU time= 0.00 sec
 
 symmetry,nosym
 
 
 geometry={
            5
     C          0.00000000      0.00000000      0.06556637
     F          0.00000000      0.00000000     -1.31562859
     H          0.51491633     -0.89186125      0.41668741
     H          0.51491633      0.89186125      0.41668741
     H         -1.02983267      0.00000000      0.41668741
 }
 basis=cc-pVTZ
 
 
 
 hf; hf; papt; mp4
 
 
 
 {put,xml;noorbitals,nobasis}
 Commands initialized (841), CPU time= 0.00 sec, 704 directives.
 Default parameters read. Elapsed time= 1.30 sec

 Checking input...
 Passed
1


                                         ***  PROGRAM SYSTEM MOLPRO  ***
                                       Copyright, TTI GmbH Stuttgart, 2015
                                    Version 2023.1 linked Tue Jun  6 09:54:11 2023


 **********************************************************************************************************************************
 LABEL *                                                                                                                                                                 
  64 bit serial version                                                                  DATE: 09-Jun-23          TIME: 15:38:16  
 **********************************************************************************************************************************

 SHA1:             8ebb0dd001088a5c915591db1a321413035db0b1
 **********************************************************************************************************************************

 Memory per process:       805 MW
 Total memory per node:   1074 MW
 Total GA space:           268 MW

 GA preallocation disabled
 GA check enabled

 Variable memory set to 805.3 MW

 ZSYMEL=NOSYM


 Geometry recognized as XYZ

 SETTING BASIS          =    CC-PVTZ


 Recomputing integrals since basis changed


 Using spherical harmonics

 Library entry C      S cc-pVTZ              selected for orbital group  1
 Library entry C      P cc-pVTZ              selected for orbital group  1
 Library entry C      D cc-pVTZ              selected for orbital group  1
 Library entry C      F cc-pVTZ              selected for orbital group  1
 Library entry F      S cc-pVTZ              selected for orbital group  2
 Library entry F      P cc-pVTZ              selected for orbital group  2
 Library entry F      D cc-pVTZ              selected for orbital group  2
 Library entry F      F cc-pVTZ              selected for orbital group  2
 Library entry H      S cc-pVTZ              selected for orbital group  3
 Library entry H      P cc-pVTZ              selected for orbital group  3
 Library entry H      D cc-pVTZ              selected for orbital group  3


 PROGRAM * SEWARD (Integral evaluation for generally contracted gaussian basis sets)     Author: Roland Lindh, 1990

 Geometry written to block  1 of record 700


 Point group  C1  



 ATOMIC COORDINATES

 NR  ATOM    CHARGE       X              Y              Z

   1  C       6.00    0.000000000    0.000000000    0.123902482
   2  F       9.00    0.000000000    0.000000000   -2.486177717
   3  H       1.00    0.973050841   -1.685373504    0.787425084
   4  H       1.00    0.973050841    1.685373504    0.787425084
   5  H       1.00   -1.946101700    0.000000000    0.787425084

 Bond lengths in Bohr (Angstrom)

 1-2  2.610080199  1-3  2.056106522  1-4  2.056106522  1-5  2.056106532
     ( 1.381194960)     ( 1.088044715)     ( 1.088044715)     ( 1.088044720)

 Bond angles

  2-1-3  108.82678959   2-1-4  108.82678959   2-1-5  108.82678949   3-1-4  110.10789247

  3-1-5  110.10789219   4-1-5  110.10789219

 NUCLEAR CHARGE:                   18
 NUMBER OF PRIMITIVE AOS:         145
 NUMBER OF SYMMETRY AOS:          132
 NUMBER OF CONTRACTIONS:          102   (  102A   )
 NUMBER OF INNER CORE ORBITALS:     0   (    0A   )
 NUMBER OF OUTER CORE ORBITALS:     2   (    2A   )
 NUMBER OF VALENCE ORBITALS:       11   (   11A   )


 NUCLEAR REPULSION ENERGY   37.42306171


 Eigenvalues of metric

         1 0.135E-02 0.193E-02 0.193E-02 0.396E-02 0.518E-02 0.107E-01 0.107E-01 0.121E-01


 Contracted 2-electron integrals neglected if value below      1.0D-11
 AO integral compression algorithm  1   Integral accuracy      1.0D-11

     56.361 MB (compressed) written to integral file ( 43.0%)


 NUMBER OF SORTED TWO-ELECTRON INTEGRALS:   13799631.     BUFFER LENGTH:  32768
 NUMBER OF SEGMENTS:   1  SEGMENT LENGTH:   13799631      RECORD LENGTH: 524288

 Memory used in sort:      14.36 MW

 SORT1 READ    16309490. AND WROTE    11131089. INTEGRALS IN     32 RECORDS. CPU TIME:     0.07 SEC, REAL TIME:     0.10 SEC
 SORT2 READ    11131089. AND WROTE    13799631. INTEGRALS IN    215 RECORDS. CPU TIME:     0.12 SEC, REAL TIME:     0.14 SEC

 FILE SIZES:   FILE 1:    86.8 MBYTE,  FILE 4:   134.3 MBYTE,   TOTAL:    221.1 MBYTE

 OPERATOR DM      FOR CENTER  0  COORDINATES:    0.000000    0.000000    0.000000


 **********************************************************************************************************************************
 DATASETS  * FILE   NREC   LENGTH (MB)   RECORD NAMES
              1      19       75.79       500      610      700      900      950      970     1000      129      960     1100   
                                          VAR    BASINP    GEOM    SYMINP    ZMAT    AOBASIS   BASIS     P2S    ABASIS      S 
                                         1400     1410     1200     1210     1080     1600     1650     1300     1700   
                                           T        V       H0       H01     AOSYM     SMH    MOLCAS    ERIS     OPER   

 PROGRAMS   *        TOTAL       INT
 CPU TIMES  *         0.67      0.58
 REAL TIME  *         3.37 SEC
 DISK USED  *       211.25 MB
 **********************************************************************************************************************************


 Program * Restricted Hartree-Fock

 Orbital guess generated from atomic densities. Full valence occupancy:   13

 Initial occupancy:   9

 NELEC=   18   SYM=1   MS2= 0   THRE=1.0D-08   THRD=3.2D-06   THRG=3.2D-06  HFMA2=F  DIIS_START=2   DIIS_MAX=10   DIIS_INCORE=F

 Level shifts:    0.00 (CLOSED)    0.00 (OPEN)    0.30 (GAP_MIN)

 ITER           ETOT              DE          GRAD        DDIFF     DIIS  NEXP   TIME(IT)  TIME(TOT)  DIAG
   1     -139.06908709    -139.06908709     0.00D+00     0.81D-01     0     0       0.06      0.11    start
   2     -139.08933574      -0.02024866     0.59D-02     0.67D-02     1     0       0.05      0.16    diag
   3     -139.09416605      -0.00483031     0.32D-02     0.24D-02     2     0       0.06      0.22    diag
   4     -139.09450724      -0.00034119     0.60D-03     0.63D-03     3     0       0.06      0.28    diag
   5     -139.09452713      -0.00001988     0.12D-03     0.18D-03     4     0       0.05      0.33    diag
   6     -139.09452808      -0.00000095     0.27D-04     0.44D-04     5     0       0.06      0.39    diag
   7     -139.09452813      -0.00000005     0.63D-05     0.11D-04     6     0       0.05      0.44    diag
   8     -139.09452814      -0.00000000     0.15D-05     0.26D-05     7     0       0.05      0.49    fixocc
   9     -139.09452814      -0.00000000     0.34D-06     0.45D-06     0     0       0.06      0.55    diag

 Final occupancy:   9

 !RHF STATE 1.1 Energy               -139.094528135392
  RHF One-electron energy            -266.582350568356
  RHF Two-electron energy              90.064760719925
  RHF Kinetic energy                  138.985724097821
  RHF Nuclear energy                   37.423061713039
  RHF Virial quotient                  -1.000782843262

 !RHF STATE 1.1 Dipole moment           0.00000000    -0.00000000     0.80030828
 Dipole moment /Debye                   0.00000001    -0.00000000     2.03418075

 Orbital energies:

           1.1          2.1          3.1          4.1          5.1          6.1          7.1          8.1          9.1         10.1
    -26.271483   -11.303393    -1.583400    -0.953494    -0.693113    -0.693113    -0.671403    -0.528504    -0.528504     0.143738

          11.1
      0.214480


 HOMO      9.1    -0.528504 =     -14.3813eV
 LUMO     10.1     0.143738 =       3.9113eV
 LUMO-HOMO         0.672241 =      18.2926eV

 Orbitals saved in record  2100.2


 **********************************************************************************************************************************
 DATASETS  * FILE   NREC   LENGTH (MB)   RECORD NAMES
              1      19       75.79       500      610      700      900      950      970     1000      129      960     1100   
                                          VAR    BASINP    GEOM    SYMINP    ZMAT    AOBASIS   BASIS     P2S    ABASIS      S 
                                         1400     1410     1200     1210     1080     1600     1650     1300     1700   
                                           T        V       H0       H01     AOSYM     SMH    MOLCAS    ERIS     OPER   

              2       4        0.62       700     1000      520     2100   
                                         GEOM     BASIS   MCVARS     RHF  

 PROGRAMS   *        TOTAL    HF-SCF       INT
 CPU TIMES  *         1.22      0.55      0.58
 REAL TIME  *         4.37 SEC
 DISK USED  *       211.25 MB
 **********************************************************************************************************************************


 Program * Restricted Hartree-Fock

 Molecular orbitals read from record     2100.2  Type=RHF/CANONICAL  

 Initial occupancy:   9

 NELEC=   18   SYM=1   MS2= 0   THRE=1.0D-08   THRD=3.2D-06   THRG=3.2D-06  HFMA2=F  DIIS_START=2   DIIS_MAX=10   DIIS_INCORE=F

 Level shifts:    0.00 (CLOSED)    0.00 (OPEN)    0.30 (GAP_MIN)

 ITER           ETOT              DE          GRAD        DDIFF     DIIS  NEXP   TIME(IT)  TIME(TOT)  DIAG
   1     -139.09452814    -139.09452814     0.00D+00     0.82D-01     0     0       0.05      0.05    start
   2     -139.09452814      -0.00000000     0.16D-06     0.21D-06     1     0       0.06      0.11    diag

 Final occupancy:   9

 !RHF STATE 1.1 Energy               -139.094528135430
  RHF One-electron energy            -266.582359416820
  RHF Two-electron energy              90.064769568350
  RHF Kinetic energy                  138.985739376046
  RHF Nuclear energy                   37.423061713039
  RHF Virial quotient                  -1.000782733249

 !RHF STATE 1.1 Dipole moment           0.00000000    -0.00000000     0.80030253
 Dipole moment /Debye                   0.00000001    -0.00000000     2.03416613

 Orbital energies:

           1.1          2.1          3.1          4.1          5.1          6.1          7.1          8.1          9.1         10.1
    -26.271488   -11.303390    -1.583402    -0.953493    -0.693115    -0.693115    -0.671403    -0.528504    -0.528504     0.143738

          11.1
      0.214480


 HOMO      9.1    -0.528504 =     -14.3813eV
 LUMO     10.1     0.143738 =       3.9113eV
 LUMO-HOMO         0.672242 =      18.2926eV

 Orbitals saved in record  2101.2


 **********************************************************************************************************************************
 DATASETS  * FILE   NREC   LENGTH (MB)   RECORD NAMES
              1      19       75.79       500      610      700      900      950      970     1000      129      960     1100   
                                          VAR    BASINP    GEOM    SYMINP    ZMAT    AOBASIS   BASIS     P2S    ABASIS      S 
                                         1400     1410     1200     1210     1080     1600     1650     1300     1700   
                                           T        V       H0       H01     AOSYM     SMH    MOLCAS    ERIS     OPER   

              2       5        0.99       700     1000      520     2100     2101   
                                         GEOM     BASIS   MCVARS     RHF      RHF  

 PROGRAMS   *        TOTAL    HF-SCF    HF-SCF       INT
 CPU TIMES  *         1.34      0.12      0.55      0.58
 REAL TIME  *         4.96 SEC
 DISK USED  *       211.25 MB
 **********************************************************************************************************************************


 PROGRAM * PAPT (Closed-shell)     Authors: C. Hampel, H.-J. Werner, 1991, P.J. Knowles, 2021


 Convergence thresholds:  THRVAR = 1.00D-08  THRDEN = 1.00D-06

 Number of core orbitals:           2 (   2 )
 Number of closed-shell orbitals:   7 (   7 )
 Number of external orbitals:      93 (  93 )

 Molecular orbitals read from record     2101.2  Type=RHF/CANONICAL  

 Number of N-1 electron functions:               7
 Number of N-2 electron functions:              28
 Number of singly external CSFs:               651
 Number of doubly external CSFs:            212226
 Total number of CSFs:                      212878

 Length of J-op  integral file:               0.00 MB
 Length of K-op  integral file:               0.78 MB

 Integral transformation finished. Total CPU:   0.08 sec, npass=  1  Memory used:   0.72 MW

 Reference energy:                   -139.09452814

                        CORR.ENERGY   TOTAL ENERGY   ENERGY CHANGE
 MP2:                   -0.43403164  -139.52855977    -0.43403164

 SCS-MP2 correlation energy:           -0.43272181   (PS=  1.200000  PT=  0.333333)
 SCS-MP2 total energy:               -139.52724994
 Iteration:   1     0.2482D+00
 Iteration:   2     0.2716D+00
 Iteration:   3     0.1087D+00
 Iteration:   4     0.6631D-01
 Iteration:   5     0.4524D+00
 Iteration:   6     0.3119D-01
 Iteration:   7     0.3217D-01
 Iteration:   8     0.1962D-01
 Iteration:   9     0.4940D-02
 Iteration:  10     0.1157D-01
 Iteration:  11     0.1298D-02
 Iteration:  12     0.8619D-03
 Iteration:  13     0.3494D-02
 Iteration:  14     0.3421D-03
 Iteration:  15     0.9930D-03
 Iteration:  16     0.1099D-03
 Iteration:  17     0.6288D-04
 PAPT operator written to  7000.1
 PAPT orbitals and eigenvalues written to  7000.2

 MP3(D):                -0.44614572  -139.54067386    -0.01211409



 RESULTS
 =======

  Reference energy                   -139.094528135430
  MP3 singlet pair energy              -0.304171028066
  MP3 triplet pair energy              -0.141974695893
  MP3 correlation energy               -0.446145723960

 !MP3 total energy                   -139.540673859390

 Timing summary (sec):

 STEP                 CPU(USER)    SYS     CPU(TOT)    WALL
 Transformation          0.08      0.01      0.09      0.22
 CCSD iterations         1.92      0.07      1.99      1.14

 Program statistics:

 Available memory in ccsd:               805306163
 Min. memory needed in ccsd:                697237
 Max. memory used in ccsd:                  867232
 Max. memory used in cckext:                672707 ( 1 integral passes)



 **********************************************************************************************************************************
 DATASETS  * FILE   NREC   LENGTH (MB)   RECORD NAMES
              1      21       79.33       500      610      700      900      950      970     1000      129      960     1100   
                                          VAR    BASINP    GEOM    SYMINP    ZMAT    AOBASIS   BASIS     P2S    ABASIS      S 
                                         1400     1410     1200     1210     1080     1600     1650     1300     1700     1380   
                                           T        V       H0       H01     AOSYM     SMH    MOLCAS    ERIS     OPER     JKOP   
                                         7000   
                                        PAPT AO    

              2       6        1.33       700     1000      520     2100     2101     7000   
                                         GEOM     BASIS   MCVARS     RHF      RHF     PAPT   

 PROGRAMS   *        TOTAL      PAPT    HF-SCF    HF-SCF       INT
 CPU TIMES  *         1.93      0.58      0.12      0.55      0.58
 REAL TIME  *         6.89 SEC
 DISK USED  *       211.25 MB
 **********************************************************************************************************************************


 PROGRAM * MP4 (Closed-shell)     Authors: C. Hampel, H.-J. Werner, 1991, M. Deegan, P.J. Knowles, 1992


 Convergence thresholds:  THRVAR = 1.00D-08  THRDEN = 1.00D-06

 MP4(T)     terms to be evaluated (factor= 0.000)


 Number of core orbitals:           2 (   2 )
 Number of closed-shell orbitals:   7 (   7 )
 Number of external orbitals:      93 (  93 )

 Molecular orbitals read from record     7000.2  Type=PAPT/CANONICAL (state 1.1)

 Number of N-1 electron functions:               7
 Number of N-2 electron functions:              28
 Number of singly external CSFs:               651
 Number of doubly external CSFs:            212226
 Total number of CSFs:                      212878

 Length of J-op  integral file:               0.00 MB
 Length of K-op  integral file:               0.78 MB

 Memory could be reduced to 8.34 Mwords without degradation in triples

 Integral transformation finished. Total CPU:   0.19 sec, npass=  1  Memory used:   5.00 MW
 Orbital energies read from record       7000.2  Type=PAPT/CANONICAL (state 1.1)

 Reference energy:                   -139.09452814

                        CORR.ENERGY   TOTAL ENERGY   ENERGY CHANGE
 MP2:                   -0.45068555  -139.54521368    -0.45068555

 SCS-MP2 correlation energy:           -0.45163171   (PS=  1.200000  PT=  0.333333)
 SCS-MP2 total energy:               -139.54615985

 MP3(D):                -0.45088096  -139.54540909    -0.00019541
 MP4(DQ):               -0.44740457  -139.54193271     0.00347639
 MP4(SDQ):              -0.45052313  -139.54505126    -0.00311856

 Norm of t1 vector:      0.04179967      S-energy:    -0.00311856      T1 diagnostic:  0.00789939

 Largest off-diagonal element in interal  block of Fock matrix:  0.13D+00
 Largest off-diagonal element in external block of Fock matrix:  0.52D+00


 Total CPU time for triples:      1.30 sec


 RESULTS
 =======

  Reference energy                   -139.094528135430
  MP4(SDQ) singlet pair energy         -0.305144421658
  MP4(SDQ) triplet pair energy         -0.142260149324
  MP4(SDQ) correlation energy          -0.450523127403

  Triples contribution                 -0.014566796217
  Total correlation energy             -0.465089923620

  MP4(SDQ) total energy              -139.545051262834
 !MP4(SDTQ) total energy             -139.559618059051

 Timing summary (sec):

 STEP                 CPU(USER)    SYS     CPU(TOT)    WALL
 Transformation          0.25      0.04      0.29      0.80
 CCSD iterations         2.28      0.02      2.30      0.67
 Triples                 1.30      0.11      1.41      1.58

 Program statistics:

 Available memory in ccsd:               805306163
 Min. memory needed in ccsd:                697237
 Max. memory used in ccsd:                  867232
 Max. memory used in cckext:                672707 ( 1 integral passes)



 **********************************************************************************************************************************
 DATASETS  * FILE   NREC   LENGTH (MB)   RECORD NAMES
              1      22      101.04       500      610      700      900      950      970     1000      129      960     1100   
                                          VAR    BASINP    GEOM    SYMINP    ZMAT    AOBASIS   BASIS     P2S    ABASIS      S 
                                         1400     1410     1200     1210     1080     1600     1650     1300     1700     1380   
                                           T        V       H0       H01     AOSYM     SMH    MOLCAS    ERIS     OPER     JKOP   
                                         7000     1380(1)
                                        PAPT AO   JKOP   

              2       6        1.33       700     1000      520     2100     2101     7000   
                                         GEOM     BASIS   MCVARS     RHF      RHF     PAPT   

 PROGRAMS   *        TOTAL       MP4      PAPT    HF-SCF    HF-SCF       INT
 CPU TIMES  *         3.75      1.83      0.58      0.12      0.55      0.58
 REAL TIME  *        10.22 SEC
 DISK USED  *       211.25 MB
 **********************************************************************************************************************************

 Dump information in style XML to xml output                                                                      

 Orbitals will not be exported.

 **********************************************************************************************************************************

 MP4/cc-pVTZ energy=   -139.559618059051

             MP4            PAPT          HF-SCF          HF-SCF
   -139.55961806   -139.54067386   -139.09452814   -139.09452814
 **********************************************************************************************************************************
 Molpro calculation terminated
