
 Working directory              : /tmp/peterk/molpro.8Ut8NzfwkG/
 Global scratch directory       : /tmp/peterk/molpro.8Ut8NzfwkG/
 Wavefunction directory         : /home/peterk/wfu/
 Main file repository           : /tmp/peterk/molpro.8Ut8NzfwkG/

 id        : peterk

 Nodes     nprocs
 marat        1
 GA implementation: MPI file
 GA implementation (serial work in mppx): MPI file

 Using customized tuning parameters: mindgm=1; mindgv=20; mindgc=4; mindgr=1; noblas=0; minvec=7
 default implementation of scratch files=df  


 Variables initialized (1032), CPU time= 0.00 sec
 
 symmetry,nosym
 
 
 geometry={
           12
     N         -0.79328369     -1.37400766     -0.32036436
     P         -1.76898046      0.00000000      0.03727417
     N         -0.79328369      1.37400766     -0.32036436
     P          0.88449023      1.53198202      0.03727417
     N          1.58656739      0.00000000     -0.32036436
     P          0.88449023     -1.53198202      0.03727417
     H         -1.08668589     -1.88219517     -1.14115553
     H         -1.47492030      0.00000000      1.42424573
     H         -1.08668589      1.88219517     -1.14115553
     H          0.73746015      1.27731845      1.42424573
     H          2.17337177      0.00000000     -1.14115553
     H          0.73746015     -1.27731845      1.42424573
 }
 basis=cc-pVDZ
 
 
 
 hf; ccsd(t)
 
 
 
 {put,xml;noorbitals,nobasis}
 Commands initialized (841), CPU time= 0.01 sec, 708 directives.
 Default parameters read. Elapsed time= 0.05 sec

 Checking input...
 Passed
1


                                         ***  PROGRAM SYSTEM MOLPRO  ***
                                       Copyright, TTI GmbH Stuttgart, 2015
                                    Version 2023.1 linked Sat Jun 10 08:01:27 2023


 **********************************************************************************************************************************
 LABEL *                                                                                                                                                                 
  (16 PROC) 64 bit serial version                                                        DATE: 13-Jun-23          TIME: 11:30:06  
 **********************************************************************************************************************************

 SHA1:             8376d659ba1296ca7ee514c57770fe2c96af278c
 **********************************************************************************************************************************

 Memory per process:      1074 MW
 Total memory per node:   1074 MW

 GA preallocation disabled
 GA check disabled

 Variable memory set to 1073.7 MW

 ZSYMEL=NOSYM


 Geometry recognized as XYZ

 SETTING BASIS          =    CC-PVDZ


 Recomputing integrals since basis changed


 Using spherical harmonics

 Library entry N      S cc-pVDZ              selected for orbital group  1
 Library entry N      P cc-pVDZ              selected for orbital group  1
 Library entry N      D cc-pVDZ              selected for orbital group  1
 Library entry P      S cc-pVDZ              selected for orbital group  2
 Library entry P      P cc-pVDZ              selected for orbital group  2
 Library entry P      D cc-pVDZ              selected for orbital group  2
 Library entry H      S cc-pVDZ              selected for orbital group  7
 Library entry H      P cc-pVDZ              selected for orbital group  7


 PROGRAM * SEWARD (Integral evaluation for generally contracted gaussian basis sets)     Author: Roland Lindh, 1990

 Geometry written to block  1 of record 700


 Point group  C1  



 ATOMIC COORDINATES

 NR  ATOM    CHARGE       X              Y              Z

   1  N       7.00   -1.499088913   -2.596498171   -0.605400900
   2  P      15.00   -3.342888589    0.000000000    0.070437973
   3  N       7.00   -1.499088913    2.596498171   -0.605400900
   4  P      15.00    1.671444295    2.895026446    0.070437973
   5  N       7.00    2.998177845    0.000000000   -0.605400900
   6  P      15.00    1.671444295   -2.895026446    0.070437973
   7  H       1.00   -2.053538716   -3.556833384   -2.156471417
   8  H       1.00   -2.787195423    0.000000000    2.691434364
   9  H       1.00   -2.053538716    3.556833384   -2.156471417
  10  H       1.00    1.393597711    2.413782044    2.691434364
  11  H       1.00    4.107077412    0.000000000   -2.156471417
  12  H       1.00    1.393597711   -2.413782044    2.691434364

 Bond lengths in Bohr (Angstrom)

 1-2  3.255481251  1-6  3.255481245  1-7  1.906692963  2-3  3.255481251  2-8  2.679256796
     ( 1.722726489)     ( 1.722726485)     ( 1.008978464)     ( 1.722726489)     ( 1.417801638)

  3- 4  3.255481245   3- 9  1.906692963   4- 5  3.255481258   4-10  2.679256796   5- 6  3.255481258
       ( 1.722726485)       ( 1.008978464)       ( 1.722726492)       ( 1.417801639)       ( 1.722726492)

  5-11  1.906692948   6-12  2.679256796
       ( 1.008978456)       ( 1.417801639)

 Bond angles

  1- 2- 3  105.79875380   1- 2- 8   94.91157002   1- 6- 5  105.79875394   1- 6-12   94.91157003

  2-1-6  125.56521225   2-1-7  113.94737884   2-3-4  125.56521225   2-3-9  113.94737884

  3- 2- 8   94.91157002   3- 4- 5  105.79875394   3- 4-10   94.91157003   4- 3- 9  113.94737925

  4- 5- 6  125.56521191   4- 5-11  113.94737899   5- 4-10   94.91156998   5- 6-12   94.91156998

  6- 1- 7  113.94737925   6- 5-11  113.94737899

 NUCLEAR CHARGE:                   72
 NUMBER OF PRIMITIVE AOS:         249
 NUMBER OF SYMMETRY AOS:          243
 NUMBER OF CONTRACTIONS:          126   (  126A   )
 NUMBER OF INNER CORE ORBITALS:     3   (    3A   )
 NUMBER OF OUTER CORE ORBITALS:    15   (   15A   )
 NUMBER OF VALENCE ORBITALS:       30   (   30A   )


 NUCLEAR REPULSION ENERGY  478.78948540


 Eigenvalues of metric

         1 0.397E-02 0.397E-02 0.602E-02 0.143E-01 0.143E-01 0.218E-01 0.309E-01 0.324E-01


 Contracted 2-electron integrals neglected if value below      1.0D-11
 AO integral compression algorithm  1   Integral accuracy      1.0D-11

     130.810 MB (compressed) written to integral file ( 46.1%)


 NUMBER OF SORTED TWO-ELECTRON INTEGRALS:   32012001.     BUFFER LENGTH:  32768
 NUMBER OF SEGMENTS:   3  SEGMENT LENGTH:   15998004      RECORD LENGTH: 524288

 Memory used in sort:      16.56 MW

 SORT1 READ    35458958. AND WROTE    30445393. INTEGRALS IN     89 RECORDS. CPU TIME:     0.28 SEC, REAL TIME:     0.52 SEC
 SORT2 READ    30445393. AND WROTE    32012001. INTEGRALS IN    499 RECORDS. CPU TIME:     0.35 SEC, REAL TIME:     0.47 SEC

 FILE SIZES:   FILE 1:   161.6 MBYTE,  FILE 4:   373.4 MBYTE,   TOTAL:    535.0 MBYTE

 OPERATOR DM      FOR CENTER  0  COORDINATES:    0.000000    0.000000    0.000000


 **********************************************************************************************************************************
 DATASETS  * FILE   NREC   LENGTH (MB)   RECORD NAMES
              1      19      141.95       500      610      700      900      950      970     1000      129      960     1100   
                                          VAR    BASINP    GEOM    SYMINP    ZMAT    AOBASIS   BASIS     P2S    ABASIS      S 
                                         1400     1410     1200     1210     1080     1600     1650     1300     1700   
                                           T        V       H0       H01     AOSYM     SMH    MOLCAS    ERIS     OPER   

 PROGRAMS   *        TOTAL       INT
 CPU TIMES  *         3.46      3.34
 REAL TIME  *         4.69 SEC
 DISK USED  *       510.72 MB
 **********************************************************************************************************************************


 Program * Restricted Hartree-Fock

 Orbital guess generated from atomic densities. Full valence occupancy:   48

 Initial occupancy:  36

 NELEC=   72   SYM=1   MS2= 0   THRE=1.0D-08   THRD=3.2D-06   THRG=3.2D-06  HFMA2=F  DIIS_START=2   DIIS_MAX=10   DIIS_INCORE=F

 Level shifts:    0.00 (CLOSED)    0.00 (OPEN)    0.30 (GAP_MIN)

 ITER           ETOT              DE          GRAD        DDIFF     DIIS  NEXP   TIME(IT)  TIME(TOT)  DIAG
   1    -1189.02118619   -1189.02118619     0.00D+00     0.12D+00     0     0       0.18      0.35    start
   2    -1189.08471955      -0.06353336     0.38D-02     0.10D-01     1     0       0.18      0.53    diag
   3    -1189.09126494      -0.00654540     0.13D-02     0.26D-02     2     0       0.17      0.70    diag
   4    -1189.09251452      -0.00124957     0.54D-03     0.13D-02     3     0       0.18      0.88    diag
   5    -1189.09257301      -0.00005850     0.98D-04     0.24D-03     4     0       0.17      1.05    diag
   6    -1189.09257849      -0.00000548     0.25D-04     0.80D-04     5     0       0.17      1.22    diag
   7    -1189.09257876      -0.00000027     0.48D-05     0.20D-04     6     0       0.16      1.38    diag
   8    -1189.09257878      -0.00000002     0.13D-05     0.44D-05     7     0       0.19      1.57    fixocc
   9    -1189.09257879      -0.00000000     0.40D-06     0.15D-05     8     0       0.17      1.74    diag
  10    -1189.09257879      -0.00000000     0.12D-06     0.27D-06     0     0       0.19      1.93    diag/orth

 Final occupancy:  36

 !RHF STATE 1.1 Energy              -1189.092578786182
  RHF One-electron energy           -2595.981901181108
  RHF Two-electron energy             928.099836995468
  RHF Kinetic energy                 1188.802650232114
  RHF Nuclear energy                  478.789485399457
  RHF Virial quotient                  -1.000243882830

 !RHF STATE 1.1 Dipole moment          -0.00000000    -0.00000000    -0.56149512
 Dipole moment /Debye                  -0.00000001    -0.00000000    -1.42717824

 Orbital energies:

           1.1          2.1          3.1          4.1          5.1          6.1          7.1          8.1          9.1         10.1
    -79.990373   -79.990373   -79.990373   -15.556652   -15.556652   -15.556634    -7.524743    -7.524743    -7.524717    -5.419138

          11.1         12.1         13.1         14.1         15.1         16.1         17.1         18.1         19.1         20.1
     -5.419136    -5.419136    -5.418255    -5.418248    -5.418248    -5.417009    -5.416995    -5.416995    -1.214061    -1.148077

          21.1         22.1         23.1         24.1         25.1         26.1         27.1         28.1         29.1         30.1
     -1.148077    -0.836253    -0.836253    -0.788148    -0.633931    -0.633931    -0.603272    -0.603225    -0.535023    -0.535023

          31.1         32.1         33.1         34.1         35.1         36.1         37.1         38.1
     -0.486649    -0.413427    -0.405261    -0.405261    -0.343412    -0.343412     0.147961     0.147961


 HOMO     36.1    -0.343412 =      -9.3447eV
 LUMO     37.1     0.147961 =       4.0262eV
 LUMO-HOMO         0.491373 =      13.3709eV

 Orbitals saved in record  2100.2


 **********************************************************************************************************************************
 DATASETS  * FILE   NREC   LENGTH (MB)   RECORD NAMES
              1      19      141.95       500      610      700      900      950      970     1000      129      960     1100   
                                          VAR    BASINP    GEOM    SYMINP    ZMAT    AOBASIS   BASIS     P2S    ABASIS      S 
                                         1400     1410     1200     1210     1080     1600     1650     1300     1700   
                                           T        V       H0       H01     AOSYM     SMH    MOLCAS    ERIS     OPER   

              2       4        0.82       700     1000      520     2100   
                                         GEOM     BASIS   MCVARS     RHF  

 PROGRAMS   *        TOTAL    HF-SCF       INT
 CPU TIMES  *         5.39      1.93      3.34
 REAL TIME  *         6.83 SEC
 DISK USED  *       510.72 MB
 **********************************************************************************************************************************


 PROGRAM * CCSD (Closed-shell coupled cluster)     Authors: C. Hampel, H.-J. Werner, 1991, M. Deegan, P.J. Knowles, 1992


 Convergence thresholds:  THRVAR = 1.00D-08  THRDEN = 1.00D-06

 CCSD(T)     terms to be evaluated (factor= 1.000)


 Number of core orbitals:          18 (  18 )
 Number of closed-shell orbitals:  18 (  18 )
 Number of external orbitals:      90 (  90 )

 Molecular orbitals read from record     2100.2  Type=RHF/CANONICAL  

 Number of N-1 electron functions:              18
 Number of N-2 electron functions:             171
 Number of singly external CSFs:              1620
 Number of doubly external CSFs:           1313010
 Total number of CSFs:                     1314631

 Length of J-op  integral file:               0.00 MB
 Length of K-op  integral file:               1.15 MB
 Length of 3-ext integral record:             0.00 MB

 Memory could be reduced to 18.37 Mwords without degradation in triples

 Integral transformation finished. Total CPU:   1.63 sec, npass=  1  Memory used:  23.92 MW

 Reference energy:                  -1189.09257879

 MP2 singlet pair energy:              -0.52816282
 MP2 triplet pair energy:              -0.32011931
 MP2 correlation energy:               -0.84828213
 MP2 total energy:                  -1189.94086092

 SCS-MP2 correlation energy:           -0.83298074   (PS=  1.200000  PT=  0.333333)
 SCS-MP2 total energy:              -1189.92555952

 ITER.      SQ.NORM     CORR.ENERGY   TOTAL ENERGY   ENERGY CHANGE        DEN1      VAR(S)    VAR(P)  DIIS     TIME  TIME/IT
   1      1.34180596    -0.90339973 -1189.99597852    -0.05511760    -0.02784818  0.55D-02  0.66D-02  1  1    13.60     6.11
   2      1.37521828    -0.90923700 -1190.00181578    -0.00583727    -0.02709194  0.10D-03  0.91D-03  2  2    19.44     6.04
   3      1.38596752    -0.90941001 -1190.00198879    -0.00017301    -0.00488420  0.85D-04  0.39D-04  3  3    25.56     6.10
   4      1.38942026    -0.90940103 -1190.00197981     0.00000898    -0.00103166  0.70D-05  0.51D-05  4  4    31.96     6.21
   5      1.39041791    -0.90939063 -1190.00196941     0.00001040    -0.00019111  0.16D-05  0.54D-06  5  5    38.35     6.27
   6      1.39072662    -0.90937533 -1190.00195411     0.00001530    -0.00003863  0.18D-06  0.69D-07  6  6    44.63     6.29
   7      1.39079812    -0.90937275 -1190.00195153     0.00000258    -0.00000287  0.19D-07  0.13D-07  6  2    50.64     6.26
   8      1.39081938    -0.90937199 -1190.00195078     0.00000075    -0.00000240  0.35D-08  0.15D-08  6  1    56.95     6.28
   9      1.39082267    -0.90937195 -1190.00195074     0.00000004     0.00000128  0.56D-09  0.25D-09  6  4    63.29     6.30

 Norm of t1 vector:      0.11550487      S-energy:     0.00000023      T1 diagnostic:  0.01361238
                                                                       D1 diagnostic:  0.03356725
                                                                       D2 diagnostic:  0.16670262 (internal)


 Total CPU time for triples:     55.11 sec


 RESULTS
 =======

  Reference energy                  -1189.092578786182
  CCSD singlet pair energy             -0.617704770541
  CCSD triplet pair energy             -0.291667409052
  CCSD correlation energy              -0.909371950317

  Triples (T) contribution             -0.030469226428
  Total correlation energy             -0.939841176745

  CCSD total energy                 -1190.001950736499
  CCSD[T] energy                    -1190.033621663644
  CCSD-T energy                     -1190.031921991015
 !CCSD(T) total energy              -1190.032419962927

 Timing summary (sec):

 STEP                 CPU(USER)    SYS     CPU(TOT)    WALL
 Transformation          1.72      0.22      1.94      1.93
 CCSD iterations        61.69      1.00     62.69     56.87
 Triples                55.11      1.45     56.56     56.56

 Program statistics:

 Available memory in ccsd:              1073740492
 Min. memory needed in ccsd:               3549286
 Max. memory used in ccsd:                 4650238
 Max. memory used in cckext:               5670341 ( 9 integral passes)



 **********************************************************************************************************************************
 DATASETS  * FILE   NREC   LENGTH (MB)   RECORD NAMES
              1      20      223.96       500      610      700      900      950      970     1000      129      960     1100   
                                          VAR    BASINP    GEOM    SYMINP    ZMAT    AOBASIS   BASIS     P2S    ABASIS      S 
                                         1400     1410     1200     1210     1080     1600     1650     1300     1700     1380   
                                           T        V       H0       H01     AOSYM     SMH    MOLCAS    ERIS     OPER     JKOP   

              2       4        0.82       700     1000      520     2100   
                                         GEOM     BASIS   MCVARS     RHF  

 PROGRAMS   *        TOTAL   CCSD(T)    HF-SCF       INT
 CPU TIMES  *       118.10    112.71      1.93      3.34
 REAL TIME  *       122.25 SEC
 DISK USED  *       510.72 MB
 **********************************************************************************************************************************

 Dump information in style XML to xml output                                                                      

 Orbitals will not be exported.

 **********************************************************************************************************************************

 CCSD(T)/cc-pVDZ energy=  -1190.032419962927

         CCSD(T)          HF-SCF
  -1190.03241996  -1189.09257879
 **********************************************************************************************************************************
 Molpro calculation terminated
