
 Working directory              : /var/folders/2v/xbgp75_9785319ghcgb4zr4r0000gp/T//molpro.kn9rLOzsDy/
 Global scratch directory       : /var/folders/2v/xbgp75_9785319ghcgb4zr4r0000gp/T//molpro.kn9rLOzsDy/
 Wavefunction directory         : /Users/sacpjk/wfu/
 Main file repository           : /var/folders/2v/xbgp75_9785319ghcgb4zr4r0000gp/T//molpro.kn9rLOzsDy/

 id        : peterk

 Nodes                        nprocs
 Cardiff-University-G34YLXT77Y    1
 GA implementation: MPI file
 GA implementation (serial work in mppx): MPI file

 Using customized tuning parameters: mindgm=1; mindgv=20; mindgc=4; mindgr=1; noblas=0; minvec=7
 default implementation of scratch files=df  


 Variables initialized (1032), CPU time= 0.00 sec
 
 core,small
 angstrom
 
 geometry={
 N1;X,N1,10;H1,N1,1.01116937,X,112.42635522;H2,N1,1.01116937,X,112.42635522,H1,120;H3,N1,1.01116937,X,112.42635522,H2,120
 }
 basis=cc-pCVQZ
 
 
 
 hf; hf; papt; mp4
 
 
 
 {put,xml;noorbitals,nobasis}
 Commands initialized (841), CPU time= 0.01 sec, 704 directives.
 Default parameters read. Elapsed time= 0.91 sec

 Checking input...
 Passed
1


                                         ***  PROGRAM SYSTEM MOLPRO  ***
                                       Copyright, TTI GmbH Stuttgart, 2015
                                    Version 2023.1 linked Tue Jun  6 09:54:11 2023


 **********************************************************************************************************************************
 LABEL *                                                                                                                                                                 
  64 bit serial version                                                                  DATE: 12-Jun-23          TIME: 10:53:03  
 **********************************************************************************************************************************

 SHA1:             8ebb0dd001088a5c915591db1a321413035db0b1
 **********************************************************************************************************************************

 Memory per process:       393 MW
 Total memory per node:    524 MW
 Total GA space:           131 MW

 GA preallocation disabled
 GA check enabled

 Variable memory set to 393.2 MW

 ZUNIT=ANG

 SETTING BASIS          =    CC-PCVQZ


 Recomputing integrals since basis changed


 Using spherical harmonics

 Library entry N      S cc-pCVQZ             selected for orbital group  1
 Library entry N      P cc-pCVQZ             selected for orbital group  1
 Library entry N      D cc-pCVQZ             selected for orbital group  1
 Library entry N      F cc-pCVQZ             selected for orbital group  1
 Library entry N      G cc-pCVQZ             selected for orbital group  1
 Library entry H      S cc-pVQZ              selected for orbital group  2
 Library entry H      P cc-pVQZ              selected for orbital group  2
 Library entry H      D cc-pVQZ              selected for orbital group  2
 Library entry H      F cc-pVQZ              selected for orbital group  2


 PROGRAM * SEWARD (Integral evaluation for generally contracted gaussian basis sets)     Author: Roland Lindh, 1990

 Geometry written to block  1 of record 700

 Orientation using atomic masses  
 Molecule type: Symmetric top,     Order of principal axis = 3
 Symmetry elements: Y
 Rotational constants:     298.8703436    298.8703436    191.3027215 GHz  (calculated with average atomic masses)

 Point group  Cs  



 ATOMIC COORDINATES

 NR  ATOM    CHARGE       X              Y              Z

   1  N1      7.00    0.000000000    0.000000000    0.129431608
   2  H1      1.00    0.883159051   -1.529676348   -0.599542866
   3  H3      1.00    0.883159051    1.529676348   -0.599542866
   4  H2      1.00   -1.766318102    0.000000000   -0.599542866

 Bond lengths in Bohr (Angstrom)

 1-2  1.910833175  1-3  1.910833175  1-4  1.910833175
     ( 1.011169370)     ( 1.011169370)     ( 1.011169370)

 Bond angles

  2-1-3  106.36119335   2-1-4  106.36119335   3-1-4  106.36119335

 NUCLEAR CHARGE:                   10
 NUMBER OF PRIMITIVE AOS:         228
 NUMBER OF SYMMETRY AOS:          193
 NUMBER OF CONTRACTIONS:          174   (  104A'  +   70A"  )
 NUMBER OF INNER CORE ORBITALS:     0   (    0A'  +    0A"  )
 NUMBER OF OUTER CORE ORBITALS:     1   (    1A'  +    0A"  )
 NUMBER OF VALENCE ORBITALS:        7   (    5A'  +    2A"  )


 NUCLEAR REPULSION ENERGY   11.97056997


 Eigenvalues of metric

         1 0.252E-04 0.214E-03 0.375E-03 0.998E-03 0.136E-02 0.145E-02 0.189E-02 0.269E-02
         2 0.375E-03 0.145E-02 0.269E-02 0.656E-02 0.905E-02 0.112E-01 0.115E-01 0.163E-01


 Contracted 2-electron integrals neglected if value below      1.0D-12
 AO integral compression algorithm  1   Integral accuracy      1.0D-12

     339.214 MB (compressed) written to integral file ( 58.4%)


 NUMBER OF SORTED TWO-ELECTRON INTEGRALS:   58701685.     BUFFER LENGTH:  32768
 NUMBER OF SEGMENTS:   4  SEGMENT LENGTH:   15998556      RECORD LENGTH: 524288

 Memory used in sort:      16.56 MW

 SORT1 READ    72555399. AND WROTE    53636519. INTEGRALS IN    156 RECORDS. CPU TIME:     0.52 SEC, REAL TIME:     0.73 SEC
 SORT2 READ    53636519. AND WROTE    58701685. INTEGRALS IN   1294 RECORDS. CPU TIME:     0.51 SEC, REAL TIME:     0.66 SEC

 FILE SIZES:   FILE 1:   370.0 MBYTE,  FILE 4:   654.4 MBYTE,   TOTAL:   1024.4 MBYTE

 OPERATOR DM      FOR CENTER  0  COORDINATES:    0.000000    0.000000    0.000000


 **********************************************************************************************************************************
 DATASETS  * FILE   NREC   LENGTH (MB)   RECORD NAMES
              1      19      294.48       500      610      700      900      950      970     1000      129      960     1100   
                                          VAR    BASINP    GEOM    SYMINP    ZMAT    AOBASIS   BASIS     P2S    ABASIS      S 
                                         1400     1410     1200     1210     1080     1600     1650     1300     1700   
                                           T        V       H0       H01     AOSYM     SMH    MOLCAS    ERIS     OPER   

 PROGRAMS   *        TOTAL       INT
 CPU TIMES  *         2.87      2.76
 REAL TIME  *         7.01 SEC
 DISK USED  *       977.35 MB
 **********************************************************************************************************************************


 Program * Restricted Hartree-Fock

 Orbital guess generated from atomic densities. Full valence occupancy:    6   2

 Initial occupancy:   4   1

 NELEC=   10   SYM=1   MS2= 0   THRE=1.0D-08   THRD=3.2D-06   THRG=3.2D-06  HFMA2=F  DIIS_START=2   DIIS_MAX=10   DIIS_INCORE=F

 Level shifts:    0.00 (CLOSED)    0.00 (OPEN)    0.30 (GAP_MIN)

 ITER           ETOT              DE          GRAD        DDIFF     DIIS  NEXP   TIME(IT)  TIME(TOT)  DIAG
   1      -56.19733881     -56.19733881     0.00D+00     0.51D-01     0     0       0.21      0.41    start
   2      -56.21806308      -0.02072427     0.75D-02     0.68D-02     1     0       0.21      0.62    diag
   3      -56.22296844      -0.00490536     0.38D-02     0.23D-02     2     0       0.21      0.83    diag
   4      -56.22319360      -0.00022517     0.57D-03     0.42D-03     3     0       0.21      1.04    diag
   5      -56.22320825      -0.00001465     0.13D-03     0.11D-03     4     0       0.21      1.25    diag
   6      -56.22320890      -0.00000065     0.23D-04     0.34D-04     5     0       0.20      1.45    diag
   7      -56.22320893      -0.00000002     0.40D-05     0.95D-05     6     0       0.21      1.66    diag
   8      -56.22320893      -0.00000000     0.11D-05     0.23D-05     7     0       0.21      1.87    fixocc
   9      -56.22320893      -0.00000000     0.14D-06     0.24D-06     0     0       0.21      2.08    diag

 Final occupancy:   4   1

 !RHF STATE 1.1 Energy                -56.223208927465
  RHF One-electron energy             -99.666885466420
  RHF Two-electron energy              31.473106564988
  RHF Kinetic energy                   56.171083496094
  RHF Nuclear energy                   11.970569973967
  RHF Virial quotient                  -1.000927976249

 !RHF STATE 1.1 Dipole moment           0.00000000     0.00000000    -0.64873957
 Dipole moment /Debye                   0.00000000     0.00000000    -1.64893151

 Orbital energies:

           1.1          2.1          3.1          4.1          5.1          6.1
    -15.536712    -1.141129    -0.626499    -0.429495     0.111390     0.182748

           1.2          2.2          3.2
     -0.626499     0.182748     0.379329


 HOMO      4.1    -0.429495 =     -11.6872eV
 LUMO      5.1     0.111390 =       3.0311eV
 LUMO-HOMO         0.540885 =      14.7182eV

 Orbitals saved in record  2100.2


 **********************************************************************************************************************************
 DATASETS  * FILE   NREC   LENGTH (MB)   RECORD NAMES
              1      19      294.48       500      610      700      900      950      970     1000      129      960     1100   
                                          VAR    BASINP    GEOM    SYMINP    ZMAT    AOBASIS   BASIS     P2S    ABASIS      S 
                                         1400     1410     1200     1210     1080     1600     1650     1300     1700   
                                           T        V       H0       H01     AOSYM     SMH    MOLCAS    ERIS     OPER   

              2       4        0.67       700     1000      520     2100   
                                         GEOM     BASIS   MCVARS     RHF  

 PROGRAMS   *        TOTAL    HF-SCF       INT
 CPU TIMES  *         4.95      2.08      2.76
 REAL TIME  *        10.12 SEC
 DISK USED  *       977.35 MB
 **********************************************************************************************************************************


 Program * Restricted Hartree-Fock

 Molecular orbitals read from record     2100.2  Type=RHF/CANONICAL  

 Initial occupancy:   4   1

 NELEC=   10   SYM=1   MS2= 0   THRE=1.0D-08   THRD=3.2D-06   THRG=3.2D-06  HFMA2=F  DIIS_START=2   DIIS_MAX=10   DIIS_INCORE=F

 Level shifts:    0.00 (CLOSED)    0.00 (OPEN)    0.30 (GAP_MIN)

 ITER           ETOT              DE          GRAD        DDIFF     DIIS  NEXP   TIME(IT)  TIME(TOT)  DIAG
   1      -56.22320893     -56.22320893     0.00D+00     0.52D-01     0     0       0.21      0.21    start
   2      -56.22320893      -0.00000000     0.61D-07     0.87D-07     1     0       0.20      0.41    diag

 Final occupancy:   4   1

 !RHF STATE 1.1 Energy                -56.223208927470
  RHF One-electron energy             -99.666888225561
  RHF Two-electron energy              31.473109324124
  RHF Kinetic energy                   56.171084412730
  RHF Nuclear energy                   11.970569973967
  RHF Virial quotient                  -1.000927959915

 !RHF STATE 1.1 Dipole moment           0.00000000     0.00000000    -0.64874182
 Dipole moment /Debye                   0.00000000     0.00000000    -1.64893723

 Orbital energies:

           1.1          2.1          3.1          4.1          5.1          6.1
    -15.536713    -1.141129    -0.626499    -0.429495     0.111390     0.182748

           1.2          2.2          3.2
     -0.626499     0.182748     0.379329


 HOMO      4.1    -0.429495 =     -11.6872eV
 LUMO      5.1     0.111390 =       3.0311eV
 LUMO-HOMO         0.540885 =      14.7182eV

 Orbitals saved in record  2101.2


 **********************************************************************************************************************************
 DATASETS  * FILE   NREC   LENGTH (MB)   RECORD NAMES
              1      19      294.48       500      610      700      900      950      970     1000      129      960     1100   
                                          VAR    BASINP    GEOM    SYMINP    ZMAT    AOBASIS   BASIS     P2S    ABASIS      S 
                                         1400     1410     1200     1210     1080     1600     1650     1300     1700   
                                           T        V       H0       H01     AOSYM     SMH    MOLCAS    ERIS     OPER   

              2       5        1.20       700     1000      520     2100     2101   
                                         GEOM     BASIS   MCVARS     RHF      RHF  

 PROGRAMS   *        TOTAL    HF-SCF    HF-SCF       INT
 CPU TIMES  *         5.37      0.42      2.08      2.76
 REAL TIME  *        10.88 SEC
 DISK USED  *       977.35 MB
 **********************************************************************************************************************************


 PROGRAM * PAPT (Closed-shell)     Authors: C. Hampel, H.-J. Werner, 1991, P.J. Knowles, 2021


 CORETYPE=SMALL

 Convergence thresholds:  THRVAR = 1.00D-08  THRDEN = 1.00D-06

 Number of closed-shell orbitals:   5 (   4   1 )
 Number of external orbitals:     169 ( 100  69 )

 Molecular orbitals read from record     2101.2  Type=RHF/CANONICAL  

 Number of N-1 electron functions:               5
 Number of N-2 electron functions:              15
 Number of singly external CSFs:               469
 Number of doubly external CSFs:            181091
 Total number of CSFs:                      181561

 Length of J-op  integral file:               0.00 MB
 Length of K-op  integral file:               1.14 MB

 Integral transformation finished. Total CPU:   0.25 sec, npass=  1  Memory used:   0.45 MW

 Reference energy:                    -56.22320893

                        CORR.ENERGY   TOTAL ENERGY   ENERGY CHANGE
 MP2:                   -0.30770093   -56.53090986    -0.30770093

 SCS-MP2 correlation energy:           -0.31679061   (PS=  1.200000  PT=  0.333333)
 SCS-MP2 total energy:                -56.53999954
 Iteration:   1     0.4017D+00
 Iteration:   2     0.4864D+00
 Iteration:   3     0.1307D+00
 Iteration:   4     0.9158D-01
 Iteration:   5     0.6278D+00
 Iteration:   6     0.1949D-01
 Iteration:   7     0.2946D-01
 Iteration:   8     0.8964D-02
 Iteration:   9     0.8346D-02
 Iteration:  10     0.1158D-01
 Iteration:  11     0.1052D-02
 Iteration:  12     0.6705D-03
 Iteration:  13     0.2945D-01
 Iteration:  14     0.2138D-03
 Iteration:  15     0.5158D-04
 PAPT operator written to  7000.1
 PAPT orbitals and eigenvalues written to  7000.2

 MP3(D):                -0.31774767   -56.54095659    -0.01004673



 RESULTS
 =======

  Reference energy                    -56.223208927470

  Correlated core orbitals:             1.1
  Orbital energies:                   -15.5367

  MP3 core-core energy                 -0.040621490286
  MP3 core-valence energy              -0.016523011939
  MP3 valence correlation energy       -0.260603164476

  MP3 singlet pair energy              -0.231477841835
  MP3 triplet pair energy              -0.086269824867
  MP3 correlation energy               -0.317747666702

 !MP3 total energy                    -56.540956594172

 Timing summary (sec):

 STEP                 CPU(USER)    SYS     CPU(TOT)    WALL
 Transformation          0.26      0.04      0.30      0.50
 CCSD iterations         5.97      0.08      6.05      1.32

 Program statistics:

 Available memory in ccsd:               393215896
 Min. memory needed in ccsd:                706832
 Max. memory used in ccsd:                  847448
 Max. memory used in cckext:               1357573 ( 1 integral passes)



 **********************************************************************************************************************************
 DATASETS  * FILE   NREC   LENGTH (MB)   RECORD NAMES
              1      21      297.44       500      610      700      900      950      970     1000      129      960     1100   
                                          VAR    BASINP    GEOM    SYMINP    ZMAT    AOBASIS   BASIS     P2S    ABASIS      S 
                                         1400     1410     1200     1210     1080     1600     1650     1300     1700     1380   
                                           T        V       H0       H01     AOSYM     SMH    MOLCAS    ERIS     OPER     JKOP   
                                         7000   
                                        PAPT AO    

              2       6        1.66       700     1000      520     2100     2101     7000   
                                         GEOM     BASIS   MCVARS     RHF      RHF     PAPT   

 PROGRAMS   *        TOTAL      PAPT    HF-SCF    HF-SCF       INT
 CPU TIMES  *         6.13      0.76      0.42      2.08      2.76
 REAL TIME  *        13.03 SEC
 DISK USED  *       977.35 MB
 **********************************************************************************************************************************


 PROGRAM * MP4 (Closed-shell)     Authors: C. Hampel, H.-J. Werner, 1991, M. Deegan, P.J. Knowles, 1992


 CORETYPE=SMALL

 Convergence thresholds:  THRVAR = 1.00D-08  THRDEN = 1.00D-06

 MP4(T)     terms to be evaluated (factor= 0.000)


 Number of closed-shell orbitals:   5 (   4   1 )
 Number of external orbitals:     169 ( 100  69 )

 Molecular orbitals read from record     7000.2  Type=PAPT/CANONICAL (state 1.1)

 Number of N-1 electron functions:               5
 Number of N-2 electron functions:              15
 Number of singly external CSFs:               469
 Number of doubly external CSFs:            181091
 Total number of CSFs:                      181561

 Length of J-op  integral file:               0.00 MB
 Length of K-op  integral file:               1.14 MB

 Memory could be reduced to 17.90 Mwords without degradation in triples

 Integral transformation finished. Total CPU:   0.42 sec, npass=  1  Memory used:   5.35 MW
 Orbital energies read from record       7000.2  Type=PAPT/CANONICAL (state 1.1)

 Reference energy:                    -56.22320893

                        CORR.ENERGY   TOTAL ENERGY   ENERGY CHANGE
 MP2:                   -0.32019785   -56.54340677    -0.32019785

 SCS-MP2 correlation energy:           -0.33024678   (PS=  1.200000  PT=  0.333333)
 SCS-MP2 total energy:                -56.55345571

 MP3(D):                -0.32030686   -56.54351578    -0.00010901
 MP4(DQ):               -0.31697623   -56.54018516     0.00333062
 MP4(SDQ):              -0.31848656   -56.54169549    -0.00151033

 Norm of t1 vector:      0.02596195      S-energy:    -0.00151033      T1 diagnostic:  0.00580527

 Largest off-diagonal element in interal  block of Fock matrix:  0.12D+00
 Largest off-diagonal element in external block of Fock matrix:  0.23D+01


 Total CPU time for triples:      1.59 sec


 RESULTS
 =======

  Reference energy                    -56.223208927470

  Correlated core orbitals:             1.1
  Orbital energies:                   -14.1958

  MP4(SDQ) core-core energy            -0.040868404139
  MP4(SDQ) core-valence energy         -0.016380372143
  MP4(SDQ) valence correlation ener    -0.261237788092

  MP4(SDQ) singlet pair energy         -0.231445050868
  MP4(SDQ) triplet pair energy         -0.085531181388
  MP4(SDQ) correlation energy          -0.318486564374

  Triples contribution                 -0.010402235897
  Total correlation energy             -0.328888800271

  MP4(SDQ) total energy               -56.541695491844
 !MP4(SDTQ) total energy              -56.552097727741

 Timing summary (sec):

 STEP                 CPU(USER)    SYS     CPU(TOT)    WALL
 Transformation          0.63      0.09      0.72      1.35
 CCSD iterations         6.61      0.03      6.64      0.84
 Triples                 1.59      0.10      1.69      1.76

 Program statistics:

 Available memory in ccsd:               393215896
 Min. memory needed in ccsd:                706832
 Max. memory used in ccsd:                  847448
 Max. memory used in cckext:               1357573 ( 1 integral passes)



 **********************************************************************************************************************************
 DATASETS  * FILE   NREC   LENGTH (MB)   RECORD NAMES
              1      22      343.95       500      610      700      900      950      970     1000      129      960     1100   
                                          VAR    BASINP    GEOM    SYMINP    ZMAT    AOBASIS   BASIS     P2S    ABASIS      S 
                                         1400     1410     1200     1210     1080     1600     1650     1300     1700     1380   
                                           T        V       H0       H01     AOSYM     SMH    MOLCAS    ERIS     OPER     JKOP   
                                         7000     1380(1)
                                        PAPT AO   JKOP   

              2       6        1.66       700     1000      520     2100     2101     7000   
                                         GEOM     BASIS   MCVARS     RHF      RHF     PAPT   

 PROGRAMS   *        TOTAL       MP4      PAPT    HF-SCF    HF-SCF       INT
 CPU TIMES  *         8.73      2.60      0.76      0.42      2.08      2.76
 REAL TIME  *        17.78 SEC
 DISK USED  *       977.35 MB
 **********************************************************************************************************************************

 Dump information in style XML to xml output                                                                      

 Orbitals will not be exported.

 **********************************************************************************************************************************

 MP4/cc-pCVQZ energy=    -56.552097727741

             MP4            PAPT          HF-SCF          HF-SCF
    -56.55209773    -56.54095659    -56.22320893    -56.22320893
 **********************************************************************************************************************************
 Molpro calculation terminated
