
 Working directory              : /var/folders/2v/xbgp75_9785319ghcgb4zr4r0000gp/T//molpro.NE8BJBlzKO/
 Global scratch directory       : /var/folders/2v/xbgp75_9785319ghcgb4zr4r0000gp/T//molpro.NE8BJBlzKO/
 Wavefunction directory         : /Users/sacpjk/wfu/
 Main file repository           : /var/folders/2v/xbgp75_9785319ghcgb4zr4r0000gp/T//molpro.NE8BJBlzKO/

 id        : peterk

 Nodes                        nprocs
 Cardiff-University-G34YLXT77Y    1
 GA implementation: MPI file
 GA implementation (serial work in mppx): MPI file

 Using customized tuning parameters: mindgm=1; mindgv=20; mindgc=4; mindgr=1; noblas=0; minvec=7
 default implementation of scratch files=df  


 Variables initialized (1032), CPU time= 0.00 sec
 
 symmetry,nosym
 
 
 geometry={
           16
     H         -1.95893195      1.23117463      1.29239846
     C         -1.06070463      1.11528658      0.69655225
     C          0.18777282      0.75556346      1.24302544
     C         -1.06070463      1.11528658     -0.69655225
     H          2.34975759      0.20429126      0.00000000
     P          1.42058126      1.27945464      0.00000000
     C          0.18777282     -1.39749831      0.69647025
     H          0.37679588      0.79493047      2.30956082
     C          0.18777282     -1.39749831     -0.69647025
     H         -1.95893195      1.23117463     -1.29239846
     C          0.18777282      0.75556346     -1.24302544
     H          0.37679588      0.79493047     -2.30956082
     H          1.10246114     -1.60704838     -1.23710044
     H         -0.72033551     -1.63428139      1.23514844
     H          1.10246114     -1.60704838      1.23710044
     H         -0.72033551     -1.63428139     -1.23514844
 }
 basis=cc-pVDZ
 
 
 
 hf
 
 
 
 {put,xml;noorbitals,nobasis}
 Commands initialized (841), CPU time= 0.00 sec, 704 directives.
 Default parameters read. Elapsed time= 0.22 sec

 Checking input...
 Passed
1


                                         ***  PROGRAM SYSTEM MOLPRO  ***
                                       Copyright, TTI GmbH Stuttgart, 2015
                                    Version 2023.1 linked Tue Jun  6 09:54:11 2023


 **********************************************************************************************************************************
 LABEL *                                                                                                                                                                 
  64 bit serial version                                                                  DATE: 10-Jun-23          TIME: 14:40:05  
 **********************************************************************************************************************************

 SHA1:             8ebb0dd001088a5c915591db1a321413035db0b1
 **********************************************************************************************************************************

 Memory per process:       805 MW
 Total memory per node:   1074 MW
 Total GA space:           268 MW

 GA preallocation disabled
 GA check enabled

 Variable memory set to 805.3 MW

 ZSYMEL=NOSYM


 Geometry recognized as XYZ

 SETTING BASIS          =    CC-PVDZ


 Recomputing integrals since basis changed


 Using spherical harmonics

 Library entry H      S cc-pVDZ              selected for orbital group  1
 Library entry H      P cc-pVDZ              selected for orbital group  1
 Library entry C      S cc-pVDZ              selected for orbital group  2
 Library entry C      P cc-pVDZ              selected for orbital group  2
 Library entry C      D cc-pVDZ              selected for orbital group  2
 Library entry P      S cc-pVDZ              selected for orbital group  4
 Library entry P      P cc-pVDZ              selected for orbital group  4
 Library entry P      D cc-pVDZ              selected for orbital group  4


 PROGRAM * SEWARD (Integral evaluation for generally contracted gaussian basis sets)     Author: Roland Lindh, 1990

 Geometry written to block  1 of record 700


 Point group  C1  



 ATOMIC COORDINATES

 NR  ATOM    CHARGE       X              Y              Z

   1  H       1.00   -3.701844882    2.326582862    2.442279133
   2  C       6.00   -2.004441250    2.107586187    1.316292984
   3  C       6.00    0.354839203    1.427808009    2.348977648
   4  C       6.00   -2.004441250    2.107586187   -1.316292984
   5  H       1.00    4.440398304    0.386054531    0.000000000
   6  P      15.00    2.684509519    2.417818858    0.000000000
   7  C       6.00    0.354839203   -2.640889066    1.316138026
   8  H       1.00    0.712041018    1.502200876    4.364437418
   9  C       6.00    0.354839203   -2.640889066   -1.316138026
  10  H       1.00   -3.701844882    2.326582862   -2.442279133
  11  C       6.00    0.354839203    1.427808009   -2.348977648
  12  H       1.00    0.712041018    1.502200876   -4.364437418
  13  H       1.00    2.083349618   -3.036881307   -2.337781020
  14  H       1.00   -1.361236832   -3.088344238    2.334092275
  15  H       1.00    2.083349618   -3.036881307    2.337781020
  16  H       1.00   -1.361236832   -3.088344238   -2.334092275

 Bond lengths in Bohr (Angstrom)

 1-2  2.048654057  2-3  2.663595360  2-4  2.632585968  3-6  3.453285573  3-8  2.048220086
     ( 1.084101040)     ( 1.409513964)     ( 1.393104500)     ( 1.827400028)     ( 1.083871392)

  4-10  2.048654057   4-11  2.663595360   5- 6  2.685369939   6-11  3.453285573   7- 9  2.632276053
       ( 1.084101040)       ( 1.409513964)       ( 1.421036574)       ( 1.827400028)       ( 1.392940500)

  7-14  2.044838366   7-15  2.046536712   9-13  2.046536712   9-16  2.044838366  11-12  2.048220086
       ( 1.082081863)       ( 1.082980589)       ( 1.082980589)       ( 1.082081863)       ( 1.083871392)

 Bond angles

  1-2-3  123.23510093   1-2-4  123.34111155   2-3-6  105.10931479   2-3-8  121.78304048

  2- 4-10  123.34111155   2- 4-11  112.81166619   3- 2- 4  112.81166619   3- 6- 5  102.95639987

  3- 6-11   85.72093770   4-11- 6  105.10931479   4-11-12  121.78304048   5- 6-11  102.95639987

  6- 3- 8  122.77020188   6-11-12  122.77020188   7- 9-13  119.94746996   7- 9-16  119.85564468

  9- 7-14  119.85564468   9- 7-15  119.94746996  10- 4-11  123.23510093  13- 9-16  114.70565433

 14- 7-15  114.70565433

 NUCLEAR CHARGE:                   60
 NUMBER OF PRIMITIVE AOS:         267
 NUMBER OF SYMMETRY AOS:          260
 NUMBER OF CONTRACTIONS:          147   (  147A   )
 NUMBER OF INNER CORE ORBITALS:     1   (    1A   )
 NUMBER OF OUTER CORE ORBITALS:    10   (   10A   )
 NUMBER OF VALENCE ORBITALS:       37   (   37A   )


 NUCLEAR REPULSION ENERGY  359.84267382


 Eigenvalues of metric

         1 0.101E-02 0.277E-02 0.328E-02 0.413E-02 0.437E-02 0.116E-01 0.129E-01 0.151E-01


 Contracted 2-electron integrals neglected if value below      1.0D-11
 AO integral compression algorithm  1   Integral accuracy      1.0D-11

     249.037 MB (compressed) written to integral file ( 49.1%)


 NUMBER OF SORTED TWO-ELECTRON INTEGRALS:   59170881.     BUFFER LENGTH:  32768
 NUMBER OF SEGMENTS:   4  SEGMENT LENGTH:   15999503      RECORD LENGTH: 524288

 Memory used in sort:      16.56 MW

 SORT1 READ    63319020. AND WROTE    56957780. INTEGRALS IN    165 RECORDS. CPU TIME:     0.46 SEC, REAL TIME:     0.66 SEC
 SORT2 READ    56957780. AND WROTE    59170881. INTEGRALS IN    950 RECORDS. CPU TIME:     0.44 SEC, REAL TIME:     0.63 SEC

 FILE SIZES:   FILE 1:   280.1 MBYTE,  FILE 4:   692.1 MBYTE,   TOTAL:    972.2 MBYTE

 OPERATOR DM      FOR CENTER  0  COORDINATES:    0.000000    0.000000    0.000000


 **********************************************************************************************************************************
 DATASETS  * FILE   NREC   LENGTH (MB)   RECORD NAMES
              1      19      247.89       500      610      700      900      950      970     1000      129      960     1100   
                                          VAR    BASINP    GEOM    SYMINP    ZMAT    AOBASIS   BASIS     P2S    ABASIS      S 
                                         1400     1410     1200     1210     1080     1600     1650     1300     1700   
                                           T        V       H0       H01     AOSYM     SMH    MOLCAS    ERIS     OPER   

 PROGRAMS   *        TOTAL       INT
 CPU TIMES  *         3.48      3.40
 REAL TIME  *         5.20 SEC
 DISK USED  *       927.80 MB
 **********************************************************************************************************************************


 Program * Restricted Hartree-Fock

 Orbital guess generated from atomic densities. Full valence occupancy:   48

 Initial occupancy:  30

 NELEC=   60   SYM=1   MS2= 0   THRE=1.0D-08   THRD=3.2D-06   THRG=3.2D-06  HFMA2=F  DIIS_START=2   DIIS_MAX=10   DIIS_INCORE=F

 Level shifts:    0.00 (CLOSED)    0.00 (OPEN)    0.30 (GAP_MIN)

 ITER           ETOT              DE          GRAD        DDIFF     DIIS  NEXP   TIME(IT)  TIME(TOT)  DIAG
   1     -572.97099834    -572.97099834     0.00D+00     0.95D-01     0     0       0.26      0.50    start
   2     -573.04233698      -0.07133864     0.36D-02     0.88D-02     1     0       0.27      0.77    diag
   3     -573.05367457      -0.01133759     0.16D-02     0.33D-02     2     0       0.27      1.04    diag
   4     -573.05570865      -0.00203409     0.53D-03     0.13D-02     3     0       0.26      1.30    diag
   5     -573.05580376      -0.00009511     0.89D-04     0.28D-03     4     0       0.27      1.57    diag
   6     -573.05582316      -0.00001940     0.40D-04     0.12D-03     5     0       0.26      1.83    diag
   7     -573.05582630      -0.00000313     0.16D-04     0.47D-04     6     0       0.26      2.09    diag
   8     -573.05582683      -0.00000053     0.59D-05     0.21D-04     7     0       0.27      2.36    fixocc
   9     -573.05582687      -0.00000005     0.16D-05     0.57D-05     8     0       0.26      2.62    diag
  10     -573.05582688      -0.00000001     0.78D-06     0.19D-05     9     0       0.26      2.88    diag/orth
  11     -573.05582688      -0.00000000     0.28D-06     0.67D-06     0     0       0.26      3.14    diag

 Final occupancy:  30

 !RHF STATE 1.1 Energy               -573.055826879582
  RHF One-electron energy           -1499.432935503612
  RHF Two-electron energy             566.534434804337
  RHF Kinetic energy                  572.719002711480
  RHF Nuclear energy                  359.842673819692
  RHF Virial quotient                  -1.000588114183

 !RHF STATE 1.1 Dipole moment          -0.22167744    -0.32729195    -0.00000000
 Dipole moment /Debye                  -0.56344784    -0.83189317    -0.00000000

 Orbital energies:

           1.1          2.1          3.1          4.1          5.1          6.1          7.1          8.1          9.1         10.1
    -79.946063   -11.253118   -11.253091   -11.237278   -11.236086   -11.233715   -11.232522    -7.487329    -5.381679    -5.380942

          11.1         12.1         13.1         14.1         15.1         16.1         17.1         18.1         19.1         20.1
     -5.379448    -1.134294    -1.013613    -0.962849    -0.902638    -0.792352    -0.744285    -0.711512    -0.682098    -0.622538

          21.1         22.1         23.1         24.1         25.1         26.1         27.1         28.1         29.1         30.1
     -0.567227    -0.549942    -0.536307    -0.531323    -0.501608    -0.483327    -0.457881    -0.351665    -0.315995    -0.299257

          31.1         32.1
      0.107697     0.140317


 HOMO     30.1    -0.299257 =      -8.1432eV
 LUMO     31.1     0.107697 =       2.9306eV
 LUMO-HOMO         0.406954 =      11.0738eV

 Orbitals saved in record  2100.2


 **********************************************************************************************************************************
 DATASETS  * FILE   NREC   LENGTH (MB)   RECORD NAMES
              1      19      247.89       500      610      700      900      950      970     1000      129      960     1100   
                                          VAR    BASINP    GEOM    SYMINP    ZMAT    AOBASIS   BASIS     P2S    ABASIS      S 
                                         1400     1410     1200     1210     1080     1600     1650     1300     1700   
                                           T        V       H0       H01     AOSYM     SMH    MOLCAS    ERIS     OPER   

              2       4        0.98       700     1000      520     2100   
                                         GEOM     BASIS   MCVARS     RHF  

 PROGRAMS   *        TOTAL    HF-SCF       INT
 CPU TIMES  *         6.63      3.15      3.40
 REAL TIME  *         9.27 SEC
 DISK USED  *       927.80 MB
 **********************************************************************************************************************************

 Dump information in style XML to xml output                                                                      

 Orbitals will not be exported.

 **********************************************************************************************************************************

 HF/cc-pVDZ energy=   -573.055826879582

          HF-SCF
   -573.05582688
 **********************************************************************************************************************************
 Molpro calculation terminated
