
 Working directory              : /var/folders/2v/xbgp75_9785319ghcgb4zr4r0000gp/T//molpro.lUSzJnO61w/
 Global scratch directory       : /var/folders/2v/xbgp75_9785319ghcgb4zr4r0000gp/T//molpro.lUSzJnO61w/
 Wavefunction directory         : /Users/sacpjk/wfu/
 Main file repository           : /var/folders/2v/xbgp75_9785319ghcgb4zr4r0000gp/T//molpro.lUSzJnO61w/

 id        : peterk

 Nodes                        nprocs
 Cardiff-University-G34YLXT77Y    1
 GA implementation: MPI file
 GA implementation (serial work in mppx): MPI file

 Using customized tuning parameters: mindgm=1; mindgv=20; mindgc=4; mindgr=1; noblas=0; minvec=7
 default implementation of scratch files=df  


 Variables initialized (1032), CPU time= 0.00 sec
 
 core,small
 angstrom
 
 geometry={
 C1;C2,C1,1.33117445;H11,C1,1.08089487,C2,121.44926360;H12,C1,1.08089487,C2,121.44926360,H11,180;H21,C2,1.08089487,C1,121.44926360,H11,0;H22,C2,1.08089487,C1,121.44926360,H12,0
 }
 basis=cc-pCVDZ
 
 
 
 hf; hf; papt; mp2
 
 
 
 {put,xml;noorbitals,nobasis}
 Commands initialized (841), CPU time= 0.01 sec, 704 directives.
 Default parameters read. Elapsed time= 0.59 sec

 Checking input...
 Passed
1


                                         ***  PROGRAM SYSTEM MOLPRO  ***
                                       Copyright, TTI GmbH Stuttgart, 2015
                                    Version 2023.1 linked Tue Jun  6 09:54:11 2023


 **********************************************************************************************************************************
 LABEL *                                                                                                                                                                 
  64 bit serial version                                                                  DATE: 12-Jun-23          TIME: 09:37:54  
 **********************************************************************************************************************************

 SHA1:             8ebb0dd001088a5c915591db1a321413035db0b1
 **********************************************************************************************************************************

 Memory per process:       393 MW
 Total memory per node:    524 MW
 Total GA space:           131 MW

 GA preallocation disabled
 GA check enabled

 Variable memory set to 393.2 MW

 ZUNIT=ANG

 SETTING BASIS          =    CC-PCVDZ


 Recomputing integrals since basis changed


 Using spherical harmonics

 Library entry C      S cc-pCVDZ             selected for orbital group  1
 Library entry C      P cc-pCVDZ             selected for orbital group  1
 Library entry C      D cc-pCVDZ             selected for orbital group  1
 Library entry H      S cc-pVDZ              selected for orbital group  2
 Library entry H      P cc-pVDZ              selected for orbital group  2


 PROGRAM * SEWARD (Integral evaluation for generally contracted gaussian basis sets)     Author: Roland Lindh, 1990

 Geometry written to block  1 of record 700

 Orientation using atomic masses  
 Molecule type: Asymmetric top,     Order of principal axis = 2
 Symmetry elements: X,Y,Z
 Rotational constants:      25.0620134     30.1953945    147.4188996 GHz  (calculated with average atomic masses)

 Point group  D2h 



 ATOMIC COORDINATES

 NR  ATOM    CHARGE       X              Y              Z

   1  C1      6.00    0.000000000    0.000000000   -1.257777567
   2  C2      6.00    0.000000000    0.000000000    1.257777567
   3  H11     1.00    0.000000000    1.742543158   -2.323488032
   4  H12     1.00    0.000000000   -1.742543158   -2.323488032
   5  H21     1.00    0.000000000    1.742543158    2.323488032
   6  H22     1.00    0.000000000   -1.742543158    2.323488032

 Bond lengths in Bohr (Angstrom)

 1-2  2.515555135  1-3  2.042595274  1-4  2.042595274  2-5  2.042595274  2-6  2.042595274
     ( 1.331174450)     ( 1.080894870)     ( 1.080894870)     ( 1.080894870)     ( 1.080894870)

 Bond angles

  1-2-5  121.44926360   1-2-6  121.44926360   2-1-3  121.44926360   2-1-4  121.44926360

  3-1-4  117.10147280   5-2-6  117.10147280

 NUCLEAR CHARGE:                   16
 NUMBER OF PRIMITIVE AOS:          90
 NUMBER OF SYMMETRY AOS:           88
 NUMBER OF CONTRACTIONS:           56   (   13Ag  +    5B3u +    8B2u +    2B1g +   13B1u +    5B2g +    8B3g +    2Au  )
 NUMBER OF INNER CORE ORBITALS:     0   (    0Ag  +    0B3u +    0B2u +    0B1g +    0B1u +    0B2g +    0B3g +    0Au  )
 NUMBER OF OUTER CORE ORBITALS:     2   (    1Ag  +    0B3u +    0B2u +    0B1g +    1B1u +    0B2g +    0B3g +    0Au  )
 NUMBER OF VALENCE ORBITALS:       12   (    3Ag  +    1B3u +    2B2u +    0B1g +    3B1u +    1B2g +    2B3g +    0Au  )


 NUCLEAR REPULSION ENERGY   33.43534958

 Eigenvalues of metric

         1 0.153E-01 0.439E-01 0.683E-01 0.907E-01 0.138E+00 0.350E+00 0.942E+00 0.111E+01
         2 0.177E+00 0.572E+00 0.101E+01 0.160E+01 0.306E+01
         3 0.365E-01 0.627E-01 0.139E+00 0.740E+00 0.969E+00 0.114E+01 0.168E+01 0.401E+01
         4 0.510E+00 0.165E+01
         5 0.379E-02 0.248E-01 0.418E-01 0.478E-01 0.814E-01 0.118E+00 0.346E+00 0.895E+00
         6 0.113E+00 0.307E+00 0.476E+00 0.101E+01 0.170E+01
         7 0.156E-01 0.254E-01 0.107E+00 0.220E+00 0.971E+00 0.107E+01 0.115E+01 0.199E+01
         8 0.364E+00 0.145E+01


 Contracted 2-electron integrals neglected if value below      1.0D-11
 AO integral compression algorithm  1   Integral accuracy      1.0D-11

     1.573 MB (compressed) written to integral file ( 71.2%)


 NUMBER OF SORTED TWO-ELECTRON INTEGRALS:     184652.     BUFFER LENGTH:  32768
 NUMBER OF SEGMENTS:   1  SEGMENT LENGTH:     184652      RECORD LENGTH: 524288

 Memory used in sort:       0.74 MW

 SORT1 READ      309224. AND WROTE      182012. INTEGRALS IN      1 RECORDS. CPU TIME:     0.01 SEC, REAL TIME:     0.01 SEC
 SORT2 READ      182012. AND WROTE      184652. INTEGRALS IN      6 RECORDS. CPU TIME:     0.02 SEC, REAL TIME:     0.02 SEC

 FILE SIZES:   FILE 1:    31.7 MBYTE,  FILE 4:     4.3 MBYTE,   TOTAL:     35.9 MBYTE

 OPERATOR DM      FOR CENTER  0  COORDINATES:    0.000000    0.000000    0.000000


 **********************************************************************************************************************************
 DATASETS  * FILE   NREC   LENGTH (MB)   RECORD NAMES
              1      19       29.63       500      610      700      900      950      970     1000      129      960     1100   
                                          VAR    BASINP    GEOM    SYMINP    ZMAT    AOBASIS   BASIS     P2S    ABASIS      S 
                                         1400     1410     1200     1210     1080     1600     1650     1300     1700   
                                           T        V       H0       H01     AOSYM     SMH    MOLCAS    ERIS     OPER   

 PROGRAMS   *        TOTAL       INT
 CPU TIMES  *         0.24      0.15
 REAL TIME  *         1.63 SEC
 DISK USED  *        34.64 MB
 **********************************************************************************************************************************


 Program * Restricted Hartree-Fock

 Orbital guess generated from atomic densities. Full valence occupancy:    4   1   2   0   4   1   2   0


 Initial occupancy:   3   1   1   0   2   0   1   0

 NELEC=   16   SYM=1   MS2= 0   THRE=1.0D-08   THRD=3.2D-06   THRG=3.2D-06  HFMA2=F  DIIS_START=2   DIIS_MAX=10   DIIS_INCORE=F

 Level shifts:    0.00 (CLOSED)    0.00 (OPEN)    0.30 (GAP_MIN)

 ITER           ETOT              DE          GRAD        DDIFF     DIIS  NEXP   TIME(IT)  TIME(TOT)  DIAG
   1      -78.01919790     -78.01919790     0.00D+00     0.30D+00     0     0       0.00      0.00    start
   2      -78.03897109      -0.01977319     0.14D-01     0.29D-01     1     0       0.00      0.00    diag
   3      -78.04083025      -0.00185916     0.46D-02     0.89D-02     2     0       0.00      0.00    diag
   4      -78.04105597      -0.00022571     0.14D-02     0.32D-02     3     0       0.00      0.00    diag
   5      -78.04105830      -0.00000234     0.13D-03     0.36D-03     4     0       0.00      0.00    diag
   6      -78.04105837      -0.00000007     0.21D-04     0.62D-04     5     0       0.00      0.00    diag
   7      -78.04105837      -0.00000000     0.31D-05     0.88D-05     6     0       0.00      0.00    diag
   8      -78.04105837      -0.00000000     0.36D-06     0.11D-05     7     0       0.00      0.00    fixocc
   9      -78.04105837      -0.00000000     0.37D-07     0.79D-07     0     0       0.00      0.00    diag

 Final occupancy:   3   1   1   0   2   0   1   0

 !RHF STATE 1.1 Energy                -78.041058371917
  RHF One-electron energy            -170.159940471156
  RHF Two-electron energy              58.683532520341
  RHF Kinetic energy                   77.864379848953
  RHF Nuclear energy                   33.435349578897
  RHF Virial quotient                  -1.002269054519

 !RHF STATE 1.1 Dipole moment           0.00000000     0.00000000     0.00000000
 Dipole moment /Debye                   0.00000000     0.00000000     0.00000000

 Orbital energies:

           1.1          2.1          3.1          4.1          5.1
    -11.235812    -1.032651    -0.583998     0.203032     0.575363

           1.2          2.2          3.2
     -0.374767     0.687082     1.264880

           1.3          2.3          3.3
     -0.640684     0.232971     0.612721

           1.4          2.4
      1.130671     1.973582

           1.5          2.5          3.5          4.5
    -11.234130    -0.790378     0.237870     0.461051

           1.6          2.6
      0.168278     0.806430

           1.7          2.7          3.7
     -0.504017     0.303281     0.935203

           1.8          2.8
      1.293938     2.373531


 HOMO      1.2    -0.374767 =     -10.1979eV
 LUMO      1.6     0.168278 =       4.5791eV
 LUMO-HOMO         0.543045 =      14.7770eV

 Orbitals saved in record  2100.2


 **********************************************************************************************************************************
 DATASETS  * FILE   NREC   LENGTH (MB)   RECORD NAMES
              1      19       29.63       500      610      700      900      950      970     1000      129      960     1100   
                                          VAR    BASINP    GEOM    SYMINP    ZMAT    AOBASIS   BASIS     P2S    ABASIS      S 
                                         1400     1410     1200     1210     1080     1600     1650     1300     1700   
                                           T        V       H0       H01     AOSYM     SMH    MOLCAS    ERIS     OPER   

              2       4        0.43       700     1000      520     2100   
                                         GEOM     BASIS   MCVARS     RHF  

 PROGRAMS   *        TOTAL    HF-SCF       INT
 CPU TIMES  *         0.24      0.00      0.15
 REAL TIME  *         2.25 SEC
 DISK USED  *        34.64 MB
 **********************************************************************************************************************************


 Program * Restricted Hartree-Fock

 Molecular orbitals read from record     2100.2  Type=RHF/CANONICAL  

 Initial occupancy:   3   1   1   0   2   0   1   0

 NELEC=   16   SYM=1   MS2= 0   THRE=1.0D-08   THRD=3.2D-06   THRG=3.2D-06  HFMA2=F  DIIS_START=2   DIIS_MAX=10   DIIS_INCORE=F

 Level shifts:    0.00 (CLOSED)    0.00 (OPEN)    0.30 (GAP_MIN)

 ITER           ETOT              DE          GRAD        DDIFF     DIIS  NEXP   TIME(IT)  TIME(TOT)  DIAG
   1      -78.04105837     -78.04105837     0.00D+00     0.31D+00     0     0       0.00      0.00    start
   2      -78.04105837      -0.00000000     0.12D-07     0.25D-07     1     0       0.00      0.00    diag

 Final occupancy:   3   1   1   0   2   0   1   0

 !RHF STATE 1.1 Energy                -78.041058371918
  RHF One-electron energy            -170.159940497540
  RHF Two-electron energy              58.683532546725
  RHF Kinetic energy                   77.864379849992
  RHF Nuclear energy                   33.435349578897
  RHF Virial quotient                  -1.002269054506

 !RHF STATE 1.1 Dipole moment           0.00000000     0.00000000     0.00000000
 Dipole moment /Debye                   0.00000000     0.00000000     0.00000000

 Orbital energies:

           1.1          2.1          3.1          4.1          5.1
    -11.235812    -1.032651    -0.583998     0.203032     0.575363

           1.2          2.2          3.2
     -0.374767     0.687082     1.264880

           1.3          2.3          3.3
     -0.640684     0.232971     0.612721

           1.4          2.4
      1.130671     1.973582

           1.5          2.5          3.5          4.5
    -11.234130    -0.790378     0.237870     0.461051

           1.6          2.6
      0.168278     0.806430

           1.7          2.7          3.7
     -0.504017     0.303281     0.935203

           1.8          2.8
      1.293938     2.373531


 HOMO      1.2    -0.374767 =     -10.1979eV
 LUMO      1.6     0.168278 =       4.5791eV
 LUMO-HOMO         0.543045 =      14.7770eV

 Orbitals saved in record  2101.2


 **********************************************************************************************************************************
 DATASETS  * FILE   NREC   LENGTH (MB)   RECORD NAMES
              1      19       29.63       500      610      700      900      950      970     1000      129      960     1100   
                                          VAR    BASINP    GEOM    SYMINP    ZMAT    AOBASIS   BASIS     P2S    ABASIS      S 
                                         1400     1410     1200     1210     1080     1600     1650     1300     1700   
                                           T        V       H0       H01     AOSYM     SMH    MOLCAS    ERIS     OPER   

              2       5        0.54       700     1000      520     2100     2101   
                                         GEOM     BASIS   MCVARS     RHF      RHF  

 PROGRAMS   *        TOTAL    HF-SCF    HF-SCF       INT
 CPU TIMES  *         0.25      0.00      0.00      0.15
 REAL TIME  *         2.53 SEC
 DISK USED  *        34.64 MB
 **********************************************************************************************************************************


 PROGRAM * PAPT (Closed-shell)     Authors: C. Hampel, H.-J. Werner, 1991, P.J. Knowles, 2021


 CORETYPE=SMALL

 Convergence thresholds:  THRVAR = 1.00D-08  THRDEN = 1.00D-06

 Number of closed-shell orbitals:   8 (   3   1   1   0   2   0   1   0 )
 Number of external orbitals:      48 (  10   4   7   2  11   5   7   2 )

 Molecular orbitals read from record     2101.2  Type=RHF/CANONICAL  

 Number of N-1 electron functions:               8
 Number of N-2 electron functions:              36
 Number of singly external CSFs:                70
 Number of doubly external CSFs:             10644
 Total number of CSFs:                       10715

 Length of J-op  integral file:               0.00 MB
 Length of K-op  integral file:               0.10 MB

 Integral transformation finished. Total CPU:   0.00 sec, npass=  1  Memory used:   0.08 MW

 Reference energy:                    -78.04105837

                        CORR.ENERGY   TOTAL ENERGY   ENERGY CHANGE
 MP2:                   -0.34756196   -78.38862033    -0.34756196

 SCS-MP2 correlation energy:           -0.36024680   (PS=  1.200000  PT=  0.333333)
 SCS-MP2 total energy:                -78.40130517
 Iteration:   1     0.4826D+00
 Iteration:   2     0.5773D+01
 Iteration:   3     0.2033D+00
 Iteration:   4     0.1401D+00
 Iteration:   5     0.1179D+00
 Iteration:   6     0.5527D-01
 Iteration:   7     0.6989D-01
 Iteration:   8     0.1056D-01
 Iteration:   9     0.5010D-02
 Iteration:  10     0.1514D-01
 Iteration:  11     0.1100D-02
 Iteration:  12     0.8104D-03
 Iteration:  13     0.1037D-02
 Iteration:  14     0.1761D-03
 Iteration:  15     0.9573D-03
 Iteration:  16     0.4481D-04
 PAPT operator written to  7000.1
 PAPT orbitals and eigenvalues written to  7000.2

 MP3(D):                -0.37637839   -78.41743676    -0.02881644



 RESULTS
 =======

  Reference energy                    -78.041058371918

  Correlated core orbitals:             1.1       1.5
  Orbital energies:                   -11.2358  -11.2341

  MP3 core-core energy                 -0.063127863155
  MP3 core-valence energy              -0.011627917029
  MP3 valence correlation energy       -0.301622610988

  MP3 singlet pair energy              -0.281189788246
  MP3 triplet pair energy              -0.095188602926
  MP3 correlation energy               -0.376378391172

 !MP3 total energy                    -78.417436763089

 Timing summary (sec):

 STEP                 CPU(USER)    SYS     CPU(TOT)    WALL
 CCSD iterations         0.39      0.02      0.41      0.47

 Program statistics:

 Available memory in ccsd:               393215741
 Min. memory needed in ccsd:                 37055
 Max. memory used in ccsd:                   45193
 Max. memory used in cckext:                 72001 ( 1 integral passes)



 **********************************************************************************************************************************
 DATASETS  * FILE   NREC   LENGTH (MB)   RECORD NAMES
              1      21       29.84       500      610      700      900      950      970     1000      129      960     1100   
                                          VAR    BASINP    GEOM    SYMINP    ZMAT    AOBASIS   BASIS     P2S    ABASIS      S 
                                         1400     1410     1200     1210     1080     1600     1650     1300     1700     1380   
                                           T        V       H0       H01     AOSYM     SMH    MOLCAS    ERIS     OPER     JKOP   
                                         7000   
                                        PAPT AO    

              2       6        0.65       700     1000      520     2100     2101     7000   
                                         GEOM     BASIS   MCVARS     RHF      RHF     PAPT   

 PROGRAMS   *        TOTAL      PAPT    HF-SCF    HF-SCF       INT
 CPU TIMES  *         0.31      0.06      0.00      0.00      0.15
 REAL TIME  *         3.18 SEC
 DISK USED  *        34.64 MB
 **********************************************************************************************************************************


 PROGRAM * MP2 (Closed-shell)     Authors: C. Hampel, H.-J. Werner, 1991, M. Deegan, P.J. Knowles, 1992


 CORETYPE=SMALL

 Convergence thresholds:  THRVAR = 1.00D-08  THRDEN = 1.00D-06

 Number of closed-shell orbitals:   8 (   3   1   1   0   2   0   1   0 )
 Number of external orbitals:      48 (  10   4   7   2  11   5   7   2 )

 Molecular orbitals read from record     7000.2  Type=PAPT/CANONICAL (state 1.1)

 Number of N-1 electron functions:               8
 Number of N-2 electron functions:              36
 Number of singly external CSFs:                70
 Number of doubly external CSFs:             10644
 Total number of CSFs:                       10715

 Length of J-op  integral file:               0.00 MB
 Length of K-op  integral file:               0.10 MB

 Integral transformation finished. Total CPU:   0.00 sec, npass=  1  Memory used:   0.08 MW
 Orbital energies read from record       7000.2  Type=PAPT/CANONICAL (state 1.1)

 Memory needed for MP2:                      0.00 MW

 SCS-MP2 correlation energy:           -0.397634713272   (PS=  1.200000  PT=  0.333333)
 SCS-MP2 total energy:                -78.438693085190


  Reference energy                    -78.041058371918

  Correlated core orbitals:             1.1       1.5
  Orbital energies:                   -10.4008  -10.3975

  MP2 core-core energy                 -0.063407518898
  MP2 core-valence energy              -0.011869575083
  MP2 valence correlation energy       -0.306410228538

  MP2 singlet pair energy              -0.277166041028
  MP2 triplet pair energy              -0.104521281491
  MP2 correlation energy               -0.381687322519

 !MP2 total energy                    -78.422745694436


 **********************************************************************************************************************************
 DATASETS  * FILE   NREC   LENGTH (MB)   RECORD NAMES
              1      21       29.84       500      610      700      900      950      970     1000      129      960     1100   
                                          VAR    BASINP    GEOM    SYMINP    ZMAT    AOBASIS   BASIS     P2S    ABASIS      S 
                                         1400     1410     1200     1210     1080     1600     1650     1300     1700     1380   
                                           T        V       H0       H01     AOSYM     SMH    MOLCAS    ERIS     OPER     JKOP   
                                         7000   
                                        PAPT AO    

              2       6        0.65       700     1000      520     2100     2101     7000   
                                         GEOM     BASIS   MCVARS     RHF      RHF     PAPT   

 PROGRAMS   *        TOTAL       MP2      PAPT    HF-SCF    HF-SCF       INT
 CPU TIMES  *         0.35      0.04      0.06      0.00      0.00      0.15
 REAL TIME  *         3.55 SEC
 DISK USED  *        34.64 MB
 **********************************************************************************************************************************

 Dump information in style XML to xml output                                                                      

 Orbitals will not be exported.

 **********************************************************************************************************************************

 MP2/cc-pCVDZ energy=    -78.422745694436

             MP2            PAPT          HF-SCF          HF-SCF
    -78.42274569    -78.41743676    -78.04105837    -78.04105837
 **********************************************************************************************************************************
 Molpro calculation terminated
