
 Working directory              : /tmp/peterk/molpro.8dSGOtYRV8/
 Global scratch directory       : /tmp/peterk/molpro.8dSGOtYRV8/
 Wavefunction directory         : /home/peterk/wfu/
 Main file repository           : /tmp/peterk/molpro.8dSGOtYRV8/

 id        : peterk

 Nodes     nprocs
 marat        1
 GA implementation: MPI file
 GA implementation (serial work in mppx): MPI file

 Using customized tuning parameters: mindgm=1; mindgv=20; mindgc=4; mindgr=1; noblas=0; minvec=7
 default implementation of scratch files=df  


 Variables initialized (1032), CPU time= 0.01 sec
 
 symmetry,nosym
 
 
 geometry={
           18
     SI         0.67139927      0.96171872      1.80521348
     SI        -0.67139927     -0.96171872      1.80521348
     SI         0.00000000     -2.31395795      0.00000000
     SI         0.67139927     -0.96171872     -1.80521348
     SI        -0.67139927      0.96171872     -1.80521348
     SI         0.00000000      2.31395795      0.00000000
     H          2.08573887      0.54782614      1.59489390
     H          0.59761219      1.71115483      3.08849794
     H         -0.59761219     -1.71115483      3.08849794
     H         -2.08573887     -0.54782614      1.59489390
     H         -1.12581429     -3.18741508     -0.42917386
     H          1.12581429     -3.18741508      0.42917386
     H          2.08573887     -0.54782614     -1.59489390
     H          0.59761219     -1.71115483     -3.08849794
     H         -2.08573887      0.54782614     -1.59489390
     H         -0.59761219      1.71115483     -3.08849794
     H         -1.12581429      3.18741508      0.42917386
     H          1.12581429      3.18741508     -0.42917386
 }
 basis=cc-pVTZ
 
 
 
 hf; ccsd(t)
 
 
 
 {put,xml;noorbitals,nobasis}
 Commands initialized (841), CPU time= 0.00 sec, 708 directives.
 Default parameters read. Elapsed time= 0.05 sec

 Checking input...
 Passed
1


                                         ***  PROGRAM SYSTEM MOLPRO  ***
                                       Copyright, TTI GmbH Stuttgart, 2015
                                    Version 2023.1 linked Sat Jun 10 08:01:27 2023


 **********************************************************************************************************************************
 LABEL *                                                                                                                                                                 
  (16 PROC) 64 bit serial version                                                        DATE: 13-Jun-23          TIME: 11:57:05  
 **********************************************************************************************************************************

 SHA1:             8376d659ba1296ca7ee514c57770fe2c96af278c
 **********************************************************************************************************************************

 Memory per process:      1074 MW
 Total memory per node:   1074 MW

 GA preallocation disabled
 GA check disabled

 Variable memory set to 1073.7 MW

 ZSYMEL=NOSYM


 Geometry recognized as XYZ

 SETTING BASIS          =    CC-PVTZ


 Recomputing integrals since basis changed


 Using spherical harmonics

 Library entry SI     S cc-pVTZ              selected for orbital group  1
 Library entry SI     P cc-pVTZ              selected for orbital group  1
 Library entry SI     D cc-pVTZ              selected for orbital group  1
 Library entry SI     F cc-pVTZ              selected for orbital group  1
 Library entry H      S cc-pVTZ              selected for orbital group  2
 Library entry H      P cc-pVTZ              selected for orbital group  2
 Library entry H      D cc-pVTZ              selected for orbital group  2


 PROGRAM * SEWARD (Integral evaluation for generally contracted gaussian basis sets)     Author: Roland Lindh, 1990

 Geometry written to block  1 of record 700


 Point group  C1  



 ATOMIC COORDINATES

 NR  ATOM    CHARGE       X              Y              Z

   1  SI     14.00    1.268760741    1.817384990    3.411359074
   2  SI     14.00   -1.268760741   -1.817384990    3.411359074
   3  SI     14.00    0.000000000   -4.372746789    0.000000000
   4  SI     14.00    1.268760741   -1.817384990   -3.411359074
   5  SI     14.00   -1.268760741    1.817384990   -3.411359074
   6  SI     14.00    0.000000000    4.372746789    0.000000000
   7  H       1.00    3.941475232    1.035241369    3.013912669
   8  H       1.00    1.129323368    3.233613986    5.836415243
   9  H       1.00   -1.129323368   -3.233613986    5.836415243
  10  H       1.00   -3.941475232   -1.035241369    3.013912669
  11  H       1.00   -2.127480675   -6.023341547   -0.811021055
  12  H       1.00    2.127480675   -6.023341547    0.811021055
  13  H       1.00    3.941475232   -1.035241369   -3.013912669
  14  H       1.00    1.129323368   -3.233613986   -5.836415243
  15  H       1.00   -3.941475232    1.035241369   -3.013912669
  16  H       1.00   -1.129323368    3.233613986   -5.836415243
  17  H       1.00   -2.127480675    6.023341547    0.811021055
  18  H       1.00    2.127480675    6.023341547   -0.811021055

 Bond lengths in Bohr (Angstrom)

 1-2  4.432896127  1-6  4.447133737  1-7  2.813025958  1-8  2.811768976  2-3  4.447133737
     ( 2.345787609)     ( 2.353321827)     ( 1.488589231)     ( 1.487924064)     ( 2.353321827)

  2- 9  2.811768976   2-10  2.813025958   3- 4  4.447133737   3-11  2.812186379   3-12  2.812186379
       ( 1.487924064)       ( 1.488589231)       ( 2.353321827)       ( 1.488144944)       ( 1.488144944)

  4- 5  4.432896127   4-13  2.813025958   4-14  2.811768976   5- 6  4.447133737   5-15  2.813025958
       ( 2.345787609)       ( 1.488589231)       ( 1.487924064)       ( 2.353321827)       ( 1.488589231)

  5-16  2.811768976   6-17  2.812186379   6-18  2.812186379
       ( 1.487924064)       ( 1.488144944)       ( 1.488144944)

 Bond angles

  1- 2- 3  107.92906079   1- 2- 9  112.61930491   1- 2-10  108.41482557   1- 6- 5  109.85553033

  1- 6-17  109.38243490   1- 6-18  110.03864338   2- 1- 6  107.92906079   2- 1- 7  108.41482557

  2- 1- 8  112.61930491   2- 3- 4  109.85553033   2- 3-11  110.03864338   2- 3-12  109.38243490

  3- 2- 9  110.97890823   3- 2-10  108.81137139   3- 4- 5  107.92906079   3- 4-13  108.81137139

  3- 4-14  110.97890823   4- 3-11  109.38243490   4- 3-12  110.03864338   4- 5- 6  107.92906079

  4- 5-15  108.41482557   4- 5-16  112.61930491   5- 4-13  108.41482557   5- 4-14  112.61930491

  5- 6-17  110.03864338   5- 6-18  109.38243490   6- 1- 7  108.81137139   6- 1- 8  110.97890823

  6- 5-15  108.81137139   6- 5-16  110.97890823   7- 1- 8  108.00004762   9- 2-10  108.00004762

 11- 3-12  108.11917112  13- 4-14  108.00004762  15- 5-16  108.00004762  17- 6-18  108.11917112

 NUCLEAR CHARGE:                   96
 NUMBER OF PRIMITIVE AOS:         588
 NUMBER OF SYMMETRY AOS:          546
 NUMBER OF CONTRACTIONS:          372   (  372A   )
 NUMBER OF INNER CORE ORBITALS:     6   (    6A   )
 NUMBER OF OUTER CORE ORBITALS:    24   (   24A   )
 NUMBER OF VALENCE ORBITALS:       36   (   36A   )


 NUCLEAR REPULSION ENERGY  681.30113274


 Eigenvalues of metric

         1 0.571E-03 0.910E-03 0.108E-02 0.122E-02 0.133E-02 0.134E-02 0.164E-02 0.178E-02


 Contracted 2-electron integrals neglected if value below      1.0D-11
 AO integral compression algorithm  1   Integral accuracy      1.0D-11

     5670.699 MB (compressed) written to integral file ( 31.3%)


 NUMBER OF SORTED TWO-ELECTRON INTEGRALS: 2406688131.     BUFFER LENGTH:  32768
 NUMBER OF SEGMENTS:  76  SEGMENT LENGTH:   31999951      RECORD LENGTH: 262144

 Memory used in sort:      32.29 MW

 SORT1 READ  2266617803. AND WROTE  1607852665. INTEGRALS IN   9237 RECORDS. CPU TIME:    67.27 SEC, REAL TIME:   649.22 SEC
 SORT2 READ  1607852665. AND WROTE  2406688131. INTEGRALS IN  21632 RECORDS. CPU TIME:    17.25 SEC, REAL TIME:    46.83 SEC

 FILE SIZES:   FILE 1:  5706.1 MBYTE,  FILE 4: 19371.5 MBYTE,   TOTAL:  25077.6 MBYTE

 OPERATOR DM      FOR CENTER  0  COORDINATES:    0.000000    0.000000    0.000000


 **********************************************************************************************************************************
 DATASETS  * FILE   NREC   LENGTH (MB)   RECORD NAMES
              1      19     4940.30       500      610      700      900      950      970     1000      129      960     1100   
                                          VAR    BASINP    GEOM    SYMINP    ZMAT    AOBASIS   BASIS     P2S    ABASIS      S 
                                         1400     1410     1200     1210     1080     1600     1650     1300     1700   
                                           T        V       H0       H01     AOSYM     SMH    MOLCAS    ERIS     OPER   

 PROGRAMS   *        TOTAL       INT
 CPU TIMES  *       186.67    186.58
 REAL TIME  *       873.15 SEC
 DISK USED  *        23.36 GB
 **********************************************************************************************************************************


 Program * Restricted Hartree-Fock

 Orbital guess generated from atomic densities. Full valence occupancy:   66

 Initial occupancy:  48

 NELEC=   96   SYM=1   MS2= 0   THRE=1.0D-08   THRD=3.2D-06   THRG=3.2D-06  HFMA2=F  DIIS_START=2   DIIS_MAX=10   DIIS_INCORE=F

 Level shifts:    0.00 (CLOSED)    0.00 (OPEN)    0.30 (GAP_MIN)

 ITER           ETOT              DE          GRAD        DDIFF     DIIS  NEXP   TIME(IT)  TIME(TOT)  DIAG
   1    -1740.58293937   -1740.58293937     0.00D+00     0.50D-01     0     0      14.77     28.65    start
   2    -1740.65312341      -0.07018404     0.13D-02     0.23D-02     1     0      14.92     43.57    diag
   3    -1740.66308675      -0.00996334     0.42D-03     0.86D-03     2     0      14.87     58.44    diag
   4    -1740.66348033      -0.00039358     0.10D-03     0.20D-03     3     0      15.06     73.50    diag
   5    -1740.66352021      -0.00003988     0.31D-04     0.75D-04     4     0      14.98     88.48    diag
   6    -1740.66352200      -0.00000179     0.54D-05     0.24D-04     5     0      14.83    103.31    diag
   7    -1740.66352207      -0.00000008     0.12D-05     0.52D-05     6     0      14.58    117.89    diag
   8    -1740.66352208      -0.00000000     0.24D-06     0.11D-05     7     0      14.76    132.65    fixocc
   9    -1740.66352208      -0.00000000     0.58D-07     0.15D-06     0     0      14.56    147.21    diag

 Final occupancy:  48

 !RHF STATE 1.1 Energy              -1740.663522077054
  RHF One-electron energy           -3773.654331005856
  RHF Two-electron energy            1351.689676185904
  RHF Kinetic energy                 1740.836051995766
  RHF Nuclear energy                  681.301132742899
  RHF Virial quotient                  -0.999900892494

 !RHF STATE 1.1 Dipole moment          -0.00000000    -0.00000000    -0.00000000
 Dipole moment /Debye                  -0.00000000    -0.00000000    -0.00000000

 Orbital energies:

           1.1          2.1          3.1          4.1          5.1          6.1          7.1          8.1          9.1         10.1
    -68.774106   -68.774106   -68.773941   -68.773941   -68.773939   -68.773939    -6.124269    -6.124207    -6.124193    -6.124062

          11.1         12.1         13.1         14.1         15.1         16.1         17.1         18.1         19.1         20.1
     -6.124053    -6.123985    -4.230347    -4.230252    -4.230247    -4.230157    -4.230153    -4.230145    -4.229931    -4.229919

          21.1         22.1         23.1         24.1         25.1         26.1         27.1         28.1         29.1         30.1
     -4.229915    -4.229876    -4.229840    -4.229828    -4.229617    -4.229608    -4.229605    -4.229523    -4.229494    -4.229414

          31.1         32.1         33.1         34.1         35.1         36.1         37.1         38.1         39.1         40.1
     -0.795745    -0.742778    -0.742530    -0.665691    -0.660318    -0.620390    -0.515209    -0.507769    -0.497916    -0.487643

          41.1         42.1         43.1         44.1         45.1         46.1         47.1         48.1         49.1         50.1
     -0.474652    -0.471692    -0.455924    -0.433209    -0.416405    -0.382081    -0.370577    -0.370319     0.091948     0.092470


 HOMO     48.1    -0.370319 =     -10.0769eV
 LUMO     49.1     0.091948 =       2.5020eV
 LUMO-HOMO         0.462267 =      12.5789eV

 Orbitals saved in record  2100.2


 **********************************************************************************************************************************
 DATASETS  * FILE   NREC   LENGTH (MB)   RECORD NAMES
              1      19     4940.30       500      610      700      900      950      970     1000      129      960     1100   
                                          VAR    BASINP    GEOM    SYMINP    ZMAT    AOBASIS   BASIS     P2S    ABASIS      S 
                                         1400     1410     1200     1210     1080     1600     1650     1300     1700   
                                           T        V       H0       H01     AOSYM     SMH    MOLCAS    ERIS     OPER   

              2       4        2.84       700     1000      520     2100   
                                         GEOM     BASIS   MCVARS     RHF  

 PROGRAMS   *        TOTAL    HF-SCF       INT
 CPU TIMES  *       333.89    147.21    186.58
 REAL TIME  *      1028.55 SEC
 DISK USED  *        23.36 GB
 **********************************************************************************************************************************


 PROGRAM * CCSD (Closed-shell coupled cluster)     Authors: C. Hampel, H.-J. Werner, 1991, M. Deegan, P.J. Knowles, 1992


 Convergence thresholds:  THRVAR = 1.00D-08  THRDEN = 1.00D-06

 CCSD(T)     terms to be evaluated (factor= 1.000)


 Number of core orbitals:          30 (  30 )
 Number of closed-shell orbitals:  18 (  18 )
 Number of external orbitals:     324 ( 324 )

 Molecular orbitals read from record     2100.2  Type=RHF/CANONICAL  

 Number of N-1 electron functions:              18
 Number of N-2 electron functions:             171
 Number of singly external CSFs:              5832
 Number of doubly external CSFs:          17009028
 Total number of CSFs:                    17014861

 Length of J-op  integral file:               0.00 MB
 Length of K-op  integral file:               9.56 MB
 Length of 3-ext integral record:             0.00 MB

 Memory could be reduced to 738.62 Mwords without degradation in triples

 Integral transformation finished. Total CPU: 120.61 sec, npass=  1  Memory used: 531.85 MW

 Reference energy:                  -1740.66352208

 MP2 singlet pair energy:              -0.55488932
 MP2 triplet pair energy:              -0.18865481
 MP2 correlation energy:               -0.74354413
 MP2 total energy:                  -1741.40706620

 SCS-MP2 correlation energy:           -0.78325239   (PS=  1.200000  PT=  0.333333)
 SCS-MP2 total energy:              -1741.44677447

 ITER.      SQ.NORM     CORR.ENERGY   TOTAL ENERGY   ENERGY CHANGE        DEN1      VAR(S)    VAR(P)  DIIS     TIME  TIME/IT
   1      1.43451222    -0.84999369 -1741.51351577    -0.10644957    -0.07456061  0.44D-02  0.82D-02  1  1   671.72   215.77
   2      1.48934089    -0.85872743 -1741.52224951    -0.00873373    -0.03524954  0.13D-03  0.60D-03  2  2   891.13   218.49
   3      1.50083345    -0.85870655 -1741.52222863     0.00002087    -0.00412383  0.92D-04  0.41D-04  3  3  1111.98   219.98
   4      1.50542894    -0.85873208 -1741.52225416    -0.00002553    -0.00087755  0.14D-04  0.41D-05  4  4  1335.32   221.35
   5      1.50712960    -0.85871576 -1741.52223784     0.00001632    -0.00027286  0.93D-06  0.75D-06  5  5  1560.21   222.48
   6      1.50755291    -0.85868893 -1741.52221101     0.00002683    -0.00005505  0.86D-07  0.68D-07  6  6  1784.46   223.23
   7      1.50762557    -0.85868442 -1741.52220649     0.00000451    -0.00000421  0.95D-08  0.94D-08  6  1  2009.96   223.89
   8      1.50763790    -0.85868461 -1741.52220669    -0.00000019     0.00000065  0.14D-08  0.94D-09  6  2  2236.73   224.55
   9      1.50763619    -0.85868498 -1741.52220706    -0.00000037     0.00000212  0.27D-09  0.15D-09  6  4  2461.28   224.81

 Norm of t1 vector:      0.12601155      S-energy:    -0.00000006      T1 diagnostic:  0.01485060
                                                                       D1 diagnostic:  0.03560545
                                                                       D2 diagnostic:  0.17468410 (internal)

   CPU time for triples:   1961.03 sec for i =  1 - 13 / 18 (~  39.4 % done)
   CPU time for triples:   2086.88 sec for i = 14 - 17 / 18 (~  84.8 % done)
   CPU time for triples:    695.83 sec for i = 18 - 18 / 18 (  100.0 % done)

 Total CPU time for triples:   4743.74 sec


 RESULTS
 =======

  Reference energy                  -1740.663522077052
  CCSD singlet pair energy             -0.662958774899
  CCSD triplet pair energy             -0.195726146529
  CCSD correlation energy              -0.858684978778

  Triples (T) contribution             -0.035999116419
  Total correlation energy             -0.894684095197

  CCSD total energy                 -1741.522207055830
  CCSD[T] energy                    -1741.559046797558
  CCSD-T energy                     -1741.557869125938
 !CCSD(T) total energy              -1741.558206172249

 Timing summary (sec):

 STEP                 CPU(USER)    SYS     CPU(TOT)    WALL
 Transformation        122.25      6.11    128.36    128.48
 CCSD iterations      2340.80     17.98   2358.78   2025.15
 Triples              4743.74     62.36   4806.10   4806.54

 Program statistics:

 Available memory in ccsd:              1073740480
 Min. memory needed in ccsd:              40956925
 Max. memory used in ccsd:                56422741
 Max. memory used in cckext:              48679609 ( 9 integral passes)



 **********************************************************************************************************************************
 DATASETS  * FILE   NREC   LENGTH (MB)   RECORD NAMES
              1      20     7556.11       500      610      700      900      950      970     1000      129      960     1100   
                                          VAR    BASINP    GEOM    SYMINP    ZMAT    AOBASIS   BASIS     P2S    ABASIS      S 
                                         1400     1410     1200     1210     1080     1600     1650     1300     1700     1380   
                                           T        V       H0       H01     AOSYM     SMH    MOLCAS    ERIS     OPER     JKOP   

              2       4        2.84       700     1000      520     2100   
                                         GEOM     BASIS   MCVARS     RHF  

 PROGRAMS   *        TOTAL   CCSD(T)    HF-SCF       INT
 CPU TIMES  *      7206.49   6872.60    147.21    186.58
 REAL TIME  *      7989.09 SEC
 DISK USED  *        23.36 GB
 **********************************************************************************************************************************

 Dump information in style XML to xml output                                                                      

 Orbitals will not be exported.

 **********************************************************************************************************************************

 CCSD(T)/cc-pVTZ energy=  -1741.558206172249

         CCSD(T)          HF-SCF
  -1741.55820617  -1740.66352208
 **********************************************************************************************************************************
 Molpro calculation terminated
